INSANE! Membrane UpperLeaflet>loPI:POPI:DPPI:PYPI:ERGO=20.0:5.0:3.0:2.0:10.0 LowerLeaflet>PSPI:POPI:POPS:YOPS:POPE:YOPE:POPC:YOPC:ERGO=6.0:14.0:21.0:9.0:9.0:21.0:12.0:48.0:60.0
48947
    1loPI    C1    1  12.404   8.837  10.909 -0.0230 -0.1429 -0.2124
    1loPI    C2    2  12.209   9.177  10.831  0.1611 -0.0377 -0.2222
    1loPI    C3    3  12.082   8.936  11.124 -0.0210 -0.0045 -0.2725
    1loPI   PO4    4  12.451   8.733  10.594  0.2395 -0.0192 -0.1060
    1loPI   GL1    5  12.263   8.826  10.190  0.1493 -0.1615 -0.1875
    1loPI   GL2    6  12.352   8.537  10.109 -0.2425  0.0977 -0.2294
    1loPI   C1A    7  11.943   8.828   9.840 -0.0463 -0.1824  0.0456
    1loPI   C2A    8  11.859   8.617   9.532 -0.1017 -0.0611  0.1130
    1loPI   C3A    9  11.814   8.641   9.120 -0.1932 -0.2383 -0.0280
    1loPI   C4A   10  11.826   8.411   8.680 -0.3156  0.1815  0.0974
    1loPI   C5A   11  11.871   8.514   8.305  0.3204  0.1164  0.1040
    1loPI   C6A   12  11.856   8.410   7.880 -0.2273  0.1110  0.0424
    1loPI   C1B   13  12.289   8.453   9.696 -0.0824 -0.3012  0.1958
    1loPI   C2B   14  12.218   8.334   9.239 -0.0935 -0.0073 -0.0477
    1loPI   C3B   15  12.295   8.232   8.716 -0.1719 -0.3792 -0.2481
    1loPI   C4B   16  12.198   8.143   8.288 -0.1991  0.1595 -0.3298
    2loPI    C1   17  14.515  10.305  10.701  0.2076 -0.0570 -0.0721
    2loPI    C2   18  14.736  10.519  10.956 -0.1245 -0.0197  0.1919
    2loPI    C3   19  14.768  10.121  10.950  0.0868 -0.0026  0.0932
    2loPI   PO4   20  14.428  10.487  10.494  0.0256 -0.0413  0.3426
    2loPI   GL1   21  14.669  10.550  10.148 -0.0021 -0.2570 -0.0347
    2loPI   GL2   22  14.706  10.795   9.956 -0.1578  0.0645  0.2777
    2loPI   C1A   23  14.754  10.265   9.925  0.0890 -0.1172 -0.3550
    2loPI   C2A   24  14.917  10.239   9.479 -0.0876  0.0552  0.2355
    2loPI   C3A   25  15.004  10.165   9.075 -0.0020 -0.0426  0.1466
    2loPI   C4A   26  15.060  10.118   8.639 -0.2137  0.1711 -0.0967
    2loPI   C5A   27  15.024   9.853   8.332  0.3191 -0.0802  0.1018
    2loPI   C6A   28  14.695   9.504   8.350  0.0916  0.0569  0.0061
    2loPI   C1B   29  14.465  10.570   9.620  0.4136  0.3122  0.0715
    2loPI   C2B   30  14.463  10.365   9.241  0.2051  0.3574  0.0600
    2loPI   C3B   31  14.290  10.370   8.722 -0.3716  0.2658 -0.2672
    2loPI   C4B   32  13.955  10.317   8.369 -0.1759  0.1047 -0.0325
    3loPI    C1   33   8.054   7.783  10.099 -0.1441  0.0729 -0.0376
    3loPI    C2   34   7.684   7.863  10.227 -0.1350  0.1305 -0.0470
    3loPI    C3   35   7.934   7.651  10.457 -0.1946  0.0367 -0.0678
    3loPI   PO4   36   8.056   8.071   9.984 -0.0380  0.3274 -0.0002
    3loPI   GL1   37   7.800   8.098   9.684 -0.0439 -0.0050  0.1506
    3loPI   GL2   38   7.879   7.872   9.549 -0.0207  0.2601  0.1780
    3loPI   C1A   39   7.419   8.045   9.435 -0.0516 -0.1676 -0.1254
    3loPI   C2A   40   7.402   7.975   9.080 -0.2244  0.2051 -0.1034
    3loPI   C3A   41   7.447   8.000   8.656 -0.1440  0.1729  0.0957
    3loPI   C4A   42   7.511   7.884   8.183 -0.0575 -0.2100 -0.1228
    3loPI   C5A   43   7.851   7.784   7.772  0.3821  0.2064 -0.0499
    3loPI   C6A   44   8.331   7.710   7.454 -0.0133 -0.1816  0.3870
    3loPI   C1B   45   7.933   7.891   9.122  0.3218 -0.1182 -0.2604
    3loPI   C2B   46   7.899   7.710   8.681 -0.2128  0.0541 -0.1849
    3loPI   C3B   47   8.020   7.757   8.275  0.0616  0.2441 -0.0062
    3loPI   C4B   48   8.355   7.619   7.969 -0.0433 -0.1645  0.1657
    4loPI    C1   49  17.035   9.196  10.305  0.0438  0.0435  0.0204
    4loPI    C2   50  17.233   9.071   9.981  0.0526  0.2235 -0.0449
    4loPI    C3   51  17.093   8.805  10.244 -0.0129  0.0722 -0.2306
    4loPI   PO4   52  16.874   9.406  10.178 -0.3718  0.0455 -0.2229
    4loPI   GL1   53  16.674   9.287   9.854  0.2583  0.1822  0.1751
    4loPI   GL2   54  16.777   8.981   9.895  0.0686  0.0844  0.0233
    4loPI   C1A   55  16.903   9.226   9.473  0.1157  0.1180 -0.0550
    4loPI   C2A   56  16.839   9.167   9.004  0.0513  0.2585  0.1339
    4loPI   C3A   57  16.724   9.255   8.537  0.0473 -0.0685  0.0181
    4loPI   C4A   58  16.747   9.292   8.198 -0.0984  0.0967 -0.0445
    4loPI   C5A   59  16.682   9.229   7.784 -0.2093  0.0784 -0.0344
    4loPI   C6A   60  16.570   9.207   7.408 -0.3373 -0.2201 -0.2054
    4loPI   C1B   61  16.469   8.932   9.567  0.0830  0.0936 -0.2376
    4loPI   C2B   62  16.427   9.160   9.192 -0.0845 -0.0405 -0.2517
    4loPI   C3B   63  16.299   9.384   8.834  0.0253 -0.1752 -0.0077
    4loPI   C4B   64  16.275   9.361   8.331 -0.4112 -0.0773 -0.0391
    5loPI    C1   65  13.090   4.393  10.854 -0.1139  0.0332  0.0185
    5loPI    C2   66  12.805   4.184  10.669 -0.0770  0.1593 -0.1847
    5loPI    C3   67  12.715   4.401  10.993 -0.1637  0.0195 -0.1137
    5loPI   PO4   68  13.261   4.489  10.587 -0.4654  0.0598 -0.0372
    5loPI   GL1   69  13.074   4.223  10.164 -0.1572  0.1824 -0.1638
    5loPI   GL2   70  13.248   4.462  10.046  0.1809  0.0410 -0.0765
    5loPI   C1A   71  12.902   4.308   9.731  0.0339 -0.1112 -0.0532
    5loPI   C2A   72  12.755   4.117   9.343  0.1400 -0.0241 -0.1038
    5loPI   C3A   73  12.699   4.258   8.906  0.1006 -0.1438 -0.0606
    5loPI   C4A   74  12.736   4.174   8.464  0.1281  0.0549  0.0732
    5loPI   C5A   75  12.843   4.374   8.158  0.2136  0.2271 -0.1196
    5loPI   C6A   76  12.814   4.804   8.180 -0.0551  0.4713  0.0552
    5loPI   C1B   77  13.576   4.671   9.773 -0.1909  0.4338  0.4199
    5loPI   C2B   78  13.745   4.707   9.380  0.2287  0.0049  0.3652
    5loPI   C3B   79  13.673   4.578   9.004  0.0095  0.1855 -0.0375
    5loPI   C4B   80  13.576   4.907   8.676  0.3936 -0.1406 -0.0271
    6loPI    C1   81   6.861  17.647  10.137  0.1415  0.0389  0.3720
    6loPI    C2   82   6.611  17.941  10.241 -0.0772 -0.0163  0.0187
    6loPI    C3   83   6.538  17.566  10.359 -0.0345  0.0033  0.1074
    6loPI   PO4   84   6.886  17.640   9.839 -0.0378 -0.0015 -0.2136
    6loPI   GL1   85   6.923  17.890   9.625 -0.0934 -0.1261  0.4290
    6loPI   GL2   86   6.944  18.234   9.815  0.3692 -0.1262  0.1058
    6loPI   C1A   87   6.976  18.020   9.177 -0.0253 -0.1884  0.3778
    6loPI   C2A   88   6.950  18.172   8.654 -0.3146 -0.0790 -0.0662
    6loPI   C3A   89   6.801  18.489   8.460  0.0569  0.3054  0.0261
    6loPI   C4A   90   7.149  18.629   8.259  0.1733  0.0186 -0.1214
    6loPI   C5A   91   7.498  18.450   8.089  0.4798 -0.0821 -0.3111
    6loPI   C6A   92   7.775  18.334   7.941  0.1116  0.0321 -0.1491
    6loPI   C1B   93   7.242  18.427   9.409  0.0486  0.0755 -0.0151
    6loPI   C2B   94   7.287  18.393   8.978  0.2011 -0.0602 -0.1335
    6loPI   C3B   95   7.432  18.430   8.623  0.4101 -0.0543 -0.2802
    6loPI   C4B   96   7.822  18.352   8.441  0.2546  0.2650  0.0565
    7loPI    C1   97   8.923  13.256  10.148  0.1818  0.0134  0.0305
    7loPI    C2   98   9.250  13.431  10.298 -0.0350  0.3611  0.1062
    7loPI    C3   99   8.889  13.516  10.449 -0.1571 -0.0768  0.0742
    7loPI   PO4  100   8.848  13.325   9.841 -0.1147  0.1621  0.2890
    7loPI   GL1  101   8.935  13.242   9.443 -0.5093  0.0715  0.2804
    7loPI   GL2  102   8.663  13.437   9.246  0.1108 -0.1071  0.0569
    7loPI   C1A  103   8.967  12.931   9.170  0.1370  0.1603  0.3178
    7loPI   C2A  104   9.123  12.581   8.871  0.2636  0.4579  0.0294
    7loPI   C3A  105   9.347  12.639   8.552  0.1745 -0.0146 -0.0025
    7loPI   C4A  106   9.373  12.689   8.090  0.0580  0.0444  0.1101
    7loPI   C5A  107   9.241  12.841   7.634  0.1625 -0.2168  0.1895
    7loPI   C6A  108   9.073  12.504   7.413  0.2314 -0.0492 -0.2714
    7loPI   C1B  109   8.772  13.302   8.880 -0.3016  0.0474 -0.3149
    7loPI   C2B  110   9.022  13.024   8.690  0.0210  0.2075 -0.3732
    7loPI   C3B  111   8.905  12.765   8.389 -0.2432  0.1605 -0.0081
    7loPI   C4B  112   8.859  12.570   8.005 -0.0352 -0.1217  0.3794
    8loPI    C1  113  16.210  10.056  10.734  0.0203  0.0486  0.1352
    8loPI    C2  114  15.870  10.222  10.603  0.0146 -0.2063 -0.1854
    8loPI    C3  115  15.870  10.002  10.938 -0.0952 -0.0458 -0.0790
    8loPI   PO4  116  16.334   9.932  10.515  0.0150 -0.2904 -0.4038
    8loPI   GL1  117  16.477  10.122  10.094 -0.0967  0.0561 -0.0433
    8loPI   GL2  118  16.508  10.473   9.945  0.0427 -0.1512  0.5576
    8loPI   C1A  119  16.306  10.075   9.696  0.0367 -0.0634 -0.3993
    8loPI   C2A  120  16.110  10.145   9.399  0.0020  0.1871  0.2197
    8loPI   C3A  121  16.172  10.272   8.897  0.2827  0.2437  0.1270
    8loPI   C4A  122  16.206  10.132   8.479  0.0997 -0.1022  0.0578
    8loPI   C5A  123  16.390   9.942   8.057  0.0109 -0.0639 -0.0306
    8loPI   C6A  124  16.656   9.721   7.885 -0.0374  0.0160 -0.4830
    8loPI   C1B  125  16.587  10.732   9.502 -0.2253 -0.1833 -0.1089
    8loPI   C2B  126  16.369  10.945   9.259  0.0792 -0.3080  0.1516
    8loPI   C3B  127  16.223  11.014   8.906  0.0456  0.0771  0.0042
    8loPI   C4B  128  16.057  11.309   8.634  0.3149  0.2567 -0.4056
    9loPI    C1  129  15.812  16.061  11.047  0.0018 -0.1572  0.1344
    9loPI    C2  130  15.852  16.456  10.999 -0.0228 -0.1690  0.0122
    9loPI    C3  131  15.674  16.311  11.327  0.1020 -0.0835  0.1185
    9loPI   PO4  132  15.801  16.003  10.772  0.4375 -0.0021 -0.1023
    9loPI   GL1  133  15.895  16.060  10.291  0.0714  0.0319 -0.0973
    9loPI   GL2  134  15.576  15.889  10.313  0.1893 -0.1190 -0.2265
    9loPI   C1A  135  16.018  16.018   9.866  0.1042  0.1290  0.0613
    9loPI   C2A  136  16.111  15.757   9.546  0.2113  0.0744  0.2656
    9loPI   C3A  137  16.173  15.817   9.088  0.4262  0.2377 -0.0569
    9loPI   C4A  138  16.132  15.760   8.650  0.2014  0.1960  0.1467
    9loPI   C5A  139  16.181  15.960   8.311 -0.1653 -0.2899 -0.2616
    9loPI   C6A  140  16.277  16.232   8.023 -0.2655 -0.1224 -0.2525
    9loPI   C1B  141  15.638  15.640   9.938 -0.3473 -0.2341 -0.1382
    9loPI   C2B  142  15.601  15.731   9.475 -0.2191 -0.1524 -0.0210
    9loPI   C3B  143  15.333  15.690   9.068  0.3075  0.0655 -0.0944
    9loPI   C4B  144  14.974  15.593   8.885  0.2986 -0.3503  0.2108
   10loPI    C1  145  12.857  10.170  10.232 -0.2182 -0.0104  0.0559
   10loPI    C2  146  12.673  10.074  10.574 -0.1139 -0.2253  0.0537
   10loPI    C3  147  12.932  10.379  10.565 -0.2090 -0.1412  0.1370
   10loPI   PO4  148  12.942  10.007  10.148  0.5751  0.1447  0.0909
   10loPI   GL1  149  13.194  10.028   9.830  0.3375 -0.0897  0.3205
   10loPI   GL2  150  12.958  10.196   9.715  0.0252 -0.1804  0.1745
   10loPI   C1A  151  13.190   9.688   9.598 -0.2210 -0.0475 -0.0817
   10loPI   C2A  152  13.174   9.544   9.227  0.2866  0.0757 -0.0254
   10loPI   C3A  153  13.134   9.616   8.893 -0.0648  0.0627  0.3815
   10loPI   C4A  154  13.394   9.637   8.553  0.0337  0.0480  0.0884
   10loPI   C5A  155  13.785   9.763   8.266 -0.0638 -0.1656  0.1912
   10loPI   C6A  156  14.063   9.996   7.994 -0.3151 -0.1290 -0.1020
   10loPI   C1B  157  12.914  10.422   9.399 -0.0764  0.3024  0.1243
   10loPI   C2B  158  13.071  10.464   8.956  0.0218 -0.1235  0.0004
   10loPI   C3B  159  13.069  10.590   8.516  0.0737  0.3416  0.0593
   10loPI   C4B  160  13.372  10.677   8.130  0.4695 -0.1405  0.0015
   11loPI    C1  161  16.390   2.876  10.733  0.0959 -0.1434  0.1157
   11loPI    C2  162  16.561   3.048  11.051  0.1033 -0.0904  0.0831
   11loPI    C3  163  16.612   2.657  10.984  0.1805 -0.0825  0.0944
   11loPI   PO4  164  16.426   3.059  10.573 -0.0841 -0.0436  0.0636
   11loPI   GL1  165  16.030   3.092  10.167  0.0888  0.2089  0.2869
   11loPI   GL2  166  16.024   3.345  10.013 -0.0290  0.1475  0.1311
   11loPI   C1A  167  16.277   2.965   9.890 -0.0609 -0.0690  0.0942
   11loPI   C2A  168  16.252   2.854   9.481  0.1494 -0.1836  0.0774
   11loPI   C3A  169  15.989   2.704   9.113  0.1500 -0.2804  0.3846
   11loPI   C4A  170  15.685   2.517   8.774  0.1272 -0.4417 -0.0495
   11loPI   C5A  171  15.454   2.572   8.449 -0.0597 -0.0403  0.0064
   11loPI   C6A  172  15.072   2.907   8.505 -0.2816 -0.3094 -0.1723
   11loPI   C1B  173  15.980   3.262   9.584 -0.1088  0.1535  0.1434
   11loPI   C2B  174  15.948   3.252   9.183 -0.0869 -0.0657 -0.0522
   11loPI   C3B  175  16.352   3.084   9.067 -0.1650  0.1928  0.0978
   11loPI   C4B  176  16.533   2.687   9.069  0.0545 -0.2330  0.0880
   12loPI    C1  177   1.197   8.482  10.556 -0.1789  0.0620  0.0447
   12loPI    C2  178   1.527   8.262  10.604 -0.2930 -0.1077  0.0591
   12loPI    C3  179   1.526   8.647  10.713 -0.1010 -0.1065  0.0603
   12loPI   PO4  180   1.162   8.328  10.213 -0.1697  0.2901  0.0312
   12loPI   GL1  181   1.279   8.260   9.844  0.1881 -0.0481  0.0217
   12loPI   GL2  182   1.210   8.562   9.733  0.1439  0.0294 -0.2399
   12loPI   C1A  183   1.137   8.060   9.472 -0.0157 -0.1994  0.0598
   12loPI   C2A  184   1.168   7.890   9.109 -0.0932 -0.0564 -0.3223
   12loPI   C3A  185   1.221   7.850   8.722  0.1295 -0.1823 -0.0947
   12loPI   C4A  186   1.416   7.694   8.360  0.3839 -0.1446 -0.3018
   12loPI   C5A  187   1.478   7.779   7.904  0.2273  0.0927 -0.0709
   12loPI   C6A  188   1.368   7.791   7.417 -0.1026 -0.0535 -0.3208
   12loPI   C1B  189   0.922   8.628   9.370  0.1785  0.1574 -0.0250
   12loPI   C2B  190   0.928   8.587   8.881  0.0334  0.1399  0.1239
   12loPI   C3B  191   0.887   8.627   8.517 -0.0862 -0.1225 -0.3601
   12loPI   C4B  192   0.894   8.500   8.189 -0.2132 -0.5712  0.3988
   13loPI    C1  193   3.360   6.865  10.290 -0.1613 -0.1219  0.0620
   13loPI    C2  194   3.689   7.003  10.472 -0.1368  0.0108 -0.0809
   13loPI    C3  195   3.380   6.871  10.690 -0.0406  0.0077  0.0549
   13loPI   PO4  196   3.267   7.017  10.139 -0.0267 -0.0926  0.0937
   13loPI   GL1  197   3.444   7.063   9.615  0.0505 -0.1158  0.1909
   13loPI   GL2  198   3.667   7.235   9.579 -0.0933 -0.1319  0.1614
   13loPI   C1A  199   3.472   7.223   9.159 -0.2577 -0.3423 -0.2353
   13loPI   C2A  200   3.415   7.100   8.656 -0.1468  0.2935  0.3032
   13loPI   C3A  201   3.453   7.132   8.218  0.2882 -0.0576 -0.1212
   13loPI   C4A  202   3.411   6.879   7.876 -0.2917 -0.1382 -0.0258
   13loPI   C5A  203   3.162   6.633   7.596  0.0234  0.1328 -0.1351
   13loPI   C6A  204   2.764   6.486   7.583 -0.1900  0.2192  0.2579
   13loPI   C1B  205   3.754   7.616   9.350  0.1699 -0.0313  0.1487
   13loPI   C2B  206   3.645   7.763   8.955  0.2282  0.1016 -0.3280
   13loPI   C3B  207   3.729   7.630   8.529 -0.1577  0.1847 -0.0386
   13loPI   C4B  208   3.771   7.434   8.107 -0.1833 -0.1718 -0.2177
   14loPI    C1  209  10.500   4.992  10.599  0.4036 -0.1526 -0.1291
   14loPI    C2  210  10.654   4.667  10.775  0.1956 -0.0548  0.2452
   14loPI    C3  211  10.266   4.754  10.819  0.1486  0.0026 -0.2277
   14loPI   PO4  212  10.624   5.027  10.428 -0.0519 -0.4456 -0.0066
   14loPI   GL1  213  10.657   5.134  10.055 -0.0440  0.0190  0.1784
   14loPI   GL2  214  10.509   4.817   9.878  0.0100  0.0555 -0.0812
   14loPI   C1A  215  10.803   5.177   9.700 -0.0900 -0.1336  0.1599
   14loPI   C2A  216  10.866   5.178   9.281 -0.0390 -0.0338 -0.1902
   14loPI   C3A  217  10.663   5.335   8.828 -0.2212  0.3782 -0.0629
   14loPI   C4A  218  10.460   5.253   8.433  0.0894 -0.1844  0.1379
   14loPI   C5A  219  10.137   5.036   8.306 -0.1421 -0.0476  0.0693
   14loPI   C6A  220   9.720   5.187   8.340  0.0239  0.3051  0.1735
   14loPI   C1B  221  10.555   4.800   9.468  0.3082 -0.0636  0.2211
   14loPI   C2B  222  10.495   4.451   9.057 -0.0270  0.1294 -0.0070
   14loPI   C3B  223  10.445   4.217   8.690 -0.1115  0.1218  0.0918
   14loPI   C4B  224  10.202   4.282   8.234 -0.0615 -0.2860 -0.0186
   15loPI    C1  225   4.595   0.505   9.782  0.1646 -0.1580  0.0754
   15loPI    C2  226   4.532   0.660  10.145 -0.0117  0.1240 -0.0720
   15loPI    C3  227   4.550   0.264  10.098 -0.1742  0.0795  0.2149
   15loPI   PO4  228   4.534   0.678   9.648  0.2828  0.2526  0.1295
   15loPI   GL1  229   4.265   0.616   9.346 -0.0875  0.1085 -0.0419
   15loPI   GL2  230   4.032   0.935   9.378  0.2111  0.0439 -0.2079
   15loPI   C1A  231   4.126   0.681   8.883  0.0513 -0.1935 -0.2680
   15loPI   C2A  232   4.086   0.589   8.461  0.0682 -0.0919 -0.2568
   15loPI   C3A  233   4.004   0.484   8.070  0.3366  0.3668  0.5183
   15loPI   C4A  234   3.661   0.569   7.799 -0.0802 -0.1024  0.2935
   15loPI   C5A  235   3.510   0.577   7.376  0.0569  0.1698  0.2462
   15loPI   C6A  236   3.628   0.833   7.041 -0.1529  0.1585  0.1033
   15loPI   C1B  237   3.687   0.950   9.044 -0.1481  0.0328 -0.2348
   15loPI   C2B  238   3.352   0.722   8.854 -0.1633 -0.0998 -0.0430
   15loPI   C3B  239   3.089   0.748   8.571 -0.0331 -0.0960 -0.0482
   15loPI   C4B  240   3.031   0.568   8.154 -0.0167  0.1716  0.3085
   16loPI    C1  241  16.799   4.310  10.521 -0.1774 -0.0581 -0.1188
   16loPI    C2  242  16.583   4.434  10.834  0.1839 -0.2260  0.2048
   16loPI    C3  243  16.934   4.608  10.752  0.1805 -0.3106  0.0063
   16loPI   PO4  244  16.697   4.303  10.385  0.0589  0.0284  0.0449
   16loPI   GL1  245  16.473   4.280  10.108  0.1987  0.1771 -0.0082
   16loPI   GL2  246  16.612   4.136   9.913  0.1631 -0.0372 -0.0211
   16loPI   C1A  247  16.231   4.426   9.723  0.1437  0.0824  0.0216
   16loPI   C2A  248  16.235   4.384   9.242  0.0650  0.0355  0.1670
   16loPI   C3A  249  15.891   4.400   8.899  0.1242 -0.2511  0.0362
   16loPI   C4A  250  15.468   4.443   8.800 -0.3853  0.2108  0.1705
   16loPI   C5A  251  15.334   4.077   8.635  0.1540  0.1723  0.5617
   16loPI   C6A  252  14.949   3.872   8.586 -0.0710 -0.0184 -0.2666
   16loPI   C1B  253  16.555   4.087   9.432 -0.1014 -0.2969  0.0239
   16loPI   C2B  254  16.616   4.048   9.042  0.0519 -0.0769 -0.1065
   16loPI   C3B  255  16.381   4.318   8.792  0.1403 -0.2515 -0.0367
   16loPI   C4B  256  16.092   4.356   8.408 -0.1557 -0.2986 -0.1386
   17loPI    C1  257  13.953  15.400  11.024 -0.1893 -0.1661  0.1141
   17loPI    C2  258  14.137  15.678  11.245  0.1425 -0.3050  0.0188
   17loPI    C3  259  13.747  15.608  11.296  0.0085  0.3098 -0.0880
   17loPI   PO4  260  13.893  15.445  10.746  0.3814 -0.0914 -0.3110
   17loPI   GL1  261  13.892  15.588  10.265 -0.0166 -0.1676 -0.0535
   17loPI   GL2  262  13.835  15.850  10.127  0.0371 -0.0848  0.1097
   17loPI   C1A  263  14.284  15.520   9.935 -0.2090  0.3400 -0.0257
   17loPI   C2A  264  14.371  15.741   9.504  0.0246  0.1850  0.0095
   17loPI   C3A  265  14.491  15.710   9.055  0.4386 -0.0668  0.0542
   17loPI   C4A  266  14.562  15.764   8.616 -0.0511 -0.2611 -0.2140
   17loPI   C5A  267  14.850  16.047   8.414 -0.0163 -0.3318 -0.1051
   17loPI   C6A  268  15.189  16.338   8.373  0.2227 -0.1057  0.1215
   17loPI   C1B  269  14.076  16.007   9.823  0.3065  0.1543 -0.0682
   17loPI   C2B  270  14.041  16.078   9.352  0.0424  0.1706  0.1375
   17loPI   C3B  271  14.087  16.189   9.086 -0.3060 -0.0865  0.0619
   17loPI   C4B  272  14.391  16.140   8.846  0.0048  0.0974 -0.2215
   18loPI    C1  273   7.709   4.267  10.618 -0.0580  0.2495 -0.0078
   18loPI    C2  274   7.691   4.228  11.015  0.2801  0.0441 -0.0093
   18loPI    C3  275   7.584   4.573  10.844 -0.2749 -0.0039  0.2215
   18loPI   PO4  276   7.542   4.142  10.507  0.1022  0.1168  0.0829
   18loPI   GL1  277   7.336   4.294  10.143 -0.0639  0.2402  0.0707
   18loPI   GL2  278   7.147   4.106   9.983 -0.3426  0.0881  0.1179
   18loPI   C1A  279   7.429   4.748   9.951 -0.1559 -0.0704 -0.2255
   18loPI   C2A  280   7.518   4.902   9.512 -0.3760 -0.0278  0.2647
   18loPI   C3A  281   7.642   4.748   9.104  0.1900  0.0568 -0.1175
   18loPI   C4A  282   7.523   4.773   8.689  0.0108 -0.0914  0.1055
   18loPI   C5A  283   7.343   4.442   8.439  0.2145  0.1583 -0.0727
   18loPI   C6A  284   6.802   4.332   8.333  0.5843  0.2723 -0.0046
   18loPI   C1B  285   7.271   4.085   9.589  0.1185  0.1470 -0.1320
   18loPI   C2B  286   7.377   3.824   9.245  0.3544  0.0450 -0.0666
   18loPI   C3B  287   7.317   3.618   8.909  0.2691  0.0485 -0.0188
   18loPI   C4B  288   7.288   3.485   8.485  0.1619 -0.2518  0.0326
   19loPI    C1  289  14.174   1.045  10.483  0.1690  0.0864 -0.0798
   19loPI    C2  290  13.796   0.953  10.388  0.2886 -0.2580 -0.2394
   19loPI    C3  291  13.889   1.325  10.502 -0.0935 -0.1655 -0.2165
   19loPI   PO4  292  14.314   0.986  10.313  0.1231  0.2370  0.2790
   19loPI   GL1  293  14.479   1.060  10.003 -0.0902 -0.1128  0.3237
   19loPI   GL2  294  14.680   0.934   9.970 -0.3612 -0.4199  0.0714
   19loPI   C1A  295  14.209   1.298   9.797 -0.0542 -0.0142 -0.1069
   19loPI   C2A  296  14.151   1.135   9.410 -0.1273  0.2227 -0.2623
   19loPI   C3A  297  14.108   1.177   8.995 -0.2036 -0.0859  0.1697
   19loPI   C4A  298  14.149   1.461   8.688  0.1019 -0.3888  0.4101
   19loPI   C5A  299  14.147   1.789   8.387  0.0272 -0.3036  0.1551
   19loPI   C6A  300  13.952   1.774   8.012  0.3885 -0.0803  0.3370
   19loPI   C1B  301  14.675   1.063   9.550  0.0864  0.2037  0.1669
   19loPI   C2B  302  14.580   1.196   9.113  0.0345  0.3410  0.1904
   19loPI   C3B  303  14.600   1.169   8.719 -0.2257  0.1215 -0.3942
   19loPI   C4B  304  14.766   1.096   8.388 -0.2878  0.3110  0.0724
   20loPI    C1  305   2.384   4.308  10.299  0.0270  0.1353  0.0067
   20loPI    C2  306   2.514   4.604  10.535 -0.2495  0.2379  0.0337
   20loPI    C3  307   2.132   4.596  10.415 -0.1838  0.0250 -0.1697
   20loPI   PO4  308   2.570   4.256  10.119  0.1768 -0.1280 -0.1071
   20loPI   GL1  309   2.803   4.369   9.751 -0.1281 -0.0530 -0.0216
   20loPI   GL2  310   3.008   4.283   9.665  0.0475  0.2205  0.0112
   20loPI   C1A  311   2.648   4.441   9.313 -0.2198 -0.1551 -0.1042
   20loPI   C2A  312   2.641   4.349   8.842  0.3661 -0.2066 -0.0996
   20loPI   C3A  313   2.355   4.415   8.529 -0.1962  0.1085 -0.1589
   20loPI   C4A  314   2.255   4.419   8.156 -0.0532 -0.1118 -0.2103
   20loPI   C5A  315   2.318   4.565   7.785  0.4986 -0.2751  0.1178
   20loPI   C6A  316   2.408   4.269   7.484 -0.0207  0.1477  0.2231
   20loPI   C1B  317   2.858   3.998   9.164 -0.1413 -0.0463  0.0486
   20loPI   C2B  318   2.779   3.690   8.851  0.1741  0.0678 -0.5562
   20loPI   C3B  319   2.720   3.500   8.380 -0.0181  0.1918  0.0671
   20loPI   C4B  320   2.637   3.203   8.059 -0.2806 -0.0478  0.1429
   21loPI    C1  321  12.966   8.014  10.456 -0.0815  0.0872  0.0998
   21loPI    C2  322  13.104   8.389  10.443  0.1206  0.0129  0.0742
   21loPI    C3  323  12.711   8.323  10.475  0.0848  0.2264  0.0952
   21loPI   PO4  324  13.199   7.862  10.359 -0.1400  0.2287 -0.4713
   21loPI   GL1  325  13.217   7.573  10.134 -0.4506  0.2214  0.2542
   21loPI   GL2  326  13.086   7.336  10.041 -0.1246  0.2603  0.1001
   21loPI   C1A  327  13.390   7.677   9.692 -0.0770 -0.1255 -0.0294
   21loPI   C2A  328  13.339   7.580   9.340 -0.3516 -0.0641  0.0048
   21loPI   C3A  329  13.442   7.707   8.953  0.0995  0.2947  0.1092
   21loPI   C4A  330  13.209   7.700   8.551 -0.1406 -0.0184 -0.0839
   21loPI   C5A  331  13.139   7.502   8.159 -0.3803 -0.0789 -0.0408
   21loPI   C6A  332  13.069   7.616   7.722  0.2633 -0.1324  0.1192
   21loPI   C1B  333  13.203   7.226   9.686  0.1110  0.0838 -0.0328
   21loPI   C2B  334  13.016   7.163   9.339 -0.3288  0.3883  0.1064
   21loPI   C3B  335  13.142   7.262   8.957  0.0520 -0.1610  0.0035
   21loPI   C4B  336  13.258   7.184   8.590  0.3882 -0.0528 -0.2045
   22loPI    C1  337   0.601  16.297  11.024 -0.0320  0.0170 -0.0667
   22loPI    C2  338   0.367  16.229  11.341 -0.0823  0.0116 -0.1048
   22loPI    C3  339   0.581  16.567  11.318  0.0976 -0.0901  0.0421
   22loPI   PO4  340   0.492  16.148  10.802  0.0006  0.0788 -0.4468
   22loPI   GL1  341   0.272  16.140  10.482 -0.0223  0.1135  0.0917
   22loPI   GL2  342  -0.068  16.129  10.465 -0.0052 -0.1435  0.0014
   22loPI   C1A  343   0.170  16.012  10.092 -0.0706  0.2455 -0.0482
   22loPI   C2A  344   0.035  15.855   9.814  0.1798  0.4651 -0.0044
   22loPI   C3A  345   0.219  15.506   9.718  0.0266  0.0005  0.0343
   22loPI   C4A  346   0.379  15.507   9.217  0.1497  0.0914  0.0952
   22loPI   C5A  347   0.235  15.387   8.832  0.1606  0.1468  0.2540
   22loPI   C6A  348  -0.040  15.010   8.902 -0.1557 -0.0086  0.0589
   22loPI   C1B  349  -0.298  16.179  10.024 -0.2288 -0.3462 -0.1769
   22loPI   C2B  350  -0.605  16.213   9.659  0.1102 -0.1321 -0.0596
   22loPI   C3B  351  -0.699  16.255   9.197  0.1321 -0.0460  0.0580
   22loPI   C4B  352  -0.958  16.576   8.937  0.0755  0.3520 -0.2097
   23loPI    C1  353  15.847  16.927  10.836  0.0423 -0.0650  0.0025
   23loPI    C2  354  15.996  17.298  10.848 -0.0829 -0.0029 -0.2776
   23loPI    C3  355  15.647  17.217  11.026  0.0780 -0.0523  0.0207
   23loPI   PO4  356  15.838  16.919  10.553 -0.2415  0.1388 -0.1499
   23loPI   GL1  357  15.495  16.841  10.285  0.1354  0.4130 -0.1815
   23loPI   GL2  358  15.722  16.513  10.042 -0.1644  0.0843 -0.0464
   23loPI   C1A  359  15.566  16.967   9.759 -0.1221  0.0273 -0.0398
   23loPI   C2A  360  15.484  16.836   9.303 -0.3369  0.0322  0.2174
   23loPI   C3A  361  15.364  16.943   8.906  0.2502  0.1215  0.0454
   23loPI   C4A  362  15.110  16.846   8.603  0.0700 -0.2187 -0.1364
   23loPI   C5A  363  14.696  16.994   8.383  0.0546  0.0131 -0.1242
   23loPI   C6A  364  14.569  17.331   8.082 -0.0142  0.1729 -0.1783
   23loPI   C1B  365  15.836  16.458   9.763  0.0992  0.2127 -0.0473
   23loPI   C2B  366  15.914  16.625   9.268  0.0828 -0.0856 -0.1009
   23loPI   C3B  367  15.772  16.582   8.853  0.2602 -0.1660  0.2427
   23loPI   C4B  368  15.610  16.670   8.452  0.0135  0.3289 -0.2299
   24loPI    C1  369  12.481   7.935  10.834  0.0518 -0.0838 -0.0890
   24loPI    C2  370  12.576   7.567  10.960 -0.2124 -0.2090 -0.2470
   24loPI    C3  371  12.860   7.848  10.930  0.0005 -0.4138 -0.1755
   24loPI   PO4  372  12.454   7.875  10.522 -0.0186 -0.0785  0.1042
   24loPI   GL1  373  12.080   7.821  10.225 -0.2051  0.0560  0.2605
   24loPI   GL2  374  12.339   7.996   9.997 -0.1075  0.1111 -0.4761
   24loPI   C1A  375  12.065   7.631   9.791 -0.1641  0.1669 -0.0552
   24loPI   C2A  376  12.006   7.406   9.489  0.1289  0.1723 -0.1087
   24loPI   C3A  377  12.056   7.321   9.130 -0.3472  0.1663 -0.0207
   24loPI   C4A  378  12.043   7.266   8.665 -0.1276 -0.2192  0.1106
   24loPI   C5A  379  11.895   6.946   8.438 -0.0475  0.1830 -0.1179
   24loPI   C6A  380  12.145   6.548   8.369  0.0122 -0.0508  0.4464
   24loPI   C1B  381  12.339   7.997   9.584  0.1376  0.3357  0.0686
   24loPI   C2B  382  12.319   7.757   9.177  0.0119  0.3948 -0.0072
   24loPI   C3B  383  12.345   7.646   8.838  0.0830  0.0807 -0.3435
   24loPI   C4B  384  12.413   7.756   8.407  0.0030  0.0818 -0.3753
   25loPI    C1  385   6.463   7.594  10.195 -0.1809  0.1493  0.0638
   25loPI    C2  386   6.375   7.625  10.584  0.0708  0.3268  0.1090
   25loPI    C3  387   6.751   7.679  10.459  0.0014  0.2181 -0.1541
   25loPI   PO4  388   6.187   7.429  10.103 -0.0918 -0.0955  0.1802
   25loPI   GL1  389   6.170   7.304   9.707  0.0148  0.1192  0.3708
   25loPI   GL2  390   5.963   7.582   9.548  0.0007  0.1760  0.1243
   25loPI   C1A  391   6.288   7.243   9.289 -0.3012  0.1324  0.1644
   25loPI   C2A  392   6.188   7.239   8.863 -0.0755 -0.0766  0.0122
   25loPI   C3A  393   6.095   7.252   8.433 -0.0734  0.1563 -0.0437
   25loPI   C4A  394   6.204   7.007   8.086  0.0905  0.0742  0.0682
   25loPI   C5A  395   6.290   6.939   7.643  0.0892  0.1992  0.1299
   25loPI   C6A  396   6.479   7.304   7.459  0.1057  0.2649 -0.1173
   25loPI   C1B  397   5.907   7.660   9.139  0.1706  0.0184 -0.0651
   25loPI   C2B  398   5.648   7.513   8.737 -0.2282  0.1904 -0.3186
   25loPI   C3B  399   5.622   7.222   8.316  0.0278 -0.1823  0.5617
   25loPI   C4B  400   5.428   7.047   8.033 -0.2551 -0.1203 -0.2327
   26loPI    C1  401  16.391   5.478  10.694  0.0669  0.0460 -0.1353
   26loPI    C2  402  16.318   5.447  11.086  0.0876  0.1712 -0.1209
   26loPI    C3  403  16.603   5.696  10.955 -0.0850  0.3133 -0.2311
   26loPI   PO4  404  16.122   5.559  10.560  0.0695 -0.0876  0.0813
   26loPI   GL1  405  15.782   5.421  10.313 -0.1479 -0.1304  0.1144
   26loPI   GL2  406  15.995   5.634  10.102 -0.0784  0.2493 -0.1912
   26loPI   C1A  407  15.657   5.479   9.810  0.0308 -0.4066  0.0336
   26loPI   C2A  408  15.689   5.719   9.392 -0.0371 -0.0351 -0.1901
   26loPI   C3A  409  16.005   5.763   9.135 -0.1401  0.0072  0.2963
   26loPI   C4A  410  16.062   5.687   8.693 -0.0666 -0.0854 -0.1069
   26loPI   C5A  411  16.213   5.581   8.340 -0.2241 -0.1393  0.3400
   26loPI   C6A  412  16.405   5.713   8.039  0.5416  0.3301  0.2636
   26loPI   C1B  413  16.078   5.264   9.894  0.2468  0.1137  0.0536
   26loPI   C2B  414  15.970   5.296   9.409 -0.0552  0.1104 -0.2920
   26loPI   C3B  415  16.006   5.276   8.946  0.0923 -0.0158  0.0953
   26loPI   C4B  416  15.869   5.226   8.526 -0.0091  0.0940  0.1572
   27loPI    C1  417   5.766  16.696   9.841  0.0614 -0.1687  0.3917
   27loPI    C2  418   6.004  16.390   9.743  0.0776 -0.0032 -0.1135
   27loPI    C3  419   5.608  16.354   9.706  0.0636 -0.0430  0.0630
   27loPI   PO4  420   5.935  16.876   9.748 -0.2105 -0.5209  0.1191
   27loPI   GL1  421   6.147  16.956   9.410 -0.1332  0.1377 -0.0774
   27loPI   GL2  422   6.325  16.602   9.451 -0.2247  0.0012 -0.3785
   27loPI   C1A  423   6.146  17.176   9.076 -0.2578 -0.1197  0.1346
   27loPI   C2A  424   6.184  17.182   8.600 -0.1867  0.1900 -0.0177
   27loPI   C3A  425   6.493  17.253   8.246  0.0581  0.2696 -0.1100
   27loPI   C4A  426   6.492  17.101   7.875 -0.0493  0.1740  0.1760
   27loPI   C5A  427   6.747  17.120   7.549 -0.1996  0.1171 -0.3148
   27loPI   C6A  428   7.086  17.075   7.237 -0.1622 -0.3105 -0.0904
   27loPI   C1B  429   6.481  16.444   9.169 -0.0934 -0.3813  0.2297
   27loPI   C2B  430   6.491  16.338   8.854 -0.0400  0.3284  0.0646
   27loPI   C3B  431   6.453  16.240   8.465 -0.0683 -0.2068  0.0032
   27loPI   C4B  432   6.426  16.051   8.142 -0.0125  0.0148 -0.0485
   28loPI    C1  433  10.437   6.838  10.560 -0.0151 -0.1207 -0.0323
   28loPI    C2  434  10.577   7.165  10.378  0.0947 -0.1191  0.0548
   28loPI    C3  435  10.190   7.140  10.474  0.0575 -0.0753 -0.0819
   28loPI   PO4  436  10.555   6.676  10.471 -0.1232  0.2169  0.2271
   28loPI   GL1  437  10.773   6.599  10.124  0.1593  0.4312  0.0860
   28loPI   GL2  438  10.394   6.418  10.028 -0.4688 -0.1192  0.0656
   28loPI   C1A  439  10.546   6.699   9.657 -0.1881 -0.0473 -0.0511
   28loPI   C2A  440  10.533   6.731   9.203  0.0562  0.2054  0.0981
   28loPI   C3A  441  10.298   6.909   8.871 -0.0860 -0.0154  0.0880
   28loPI   C4A  442  10.322   6.855   8.373  0.0061 -0.1248 -0.0197
   28loPI   C5A  443  10.093   7.189   8.074  0.3575 -0.1090  0.0927
   28loPI   C6A  444   9.808   7.456   7.919 -0.3928  0.3072 -0.1069
   28loPI   C1B  445  10.313   6.332   9.530  0.2248  0.1169 -0.2288
   28loPI   C2B  446  10.394   6.283   9.001  0.0537  0.1896  0.1927
   28loPI   C3B  447  10.569   6.537   8.684  0.0310 -0.1404  0.2158
   28loPI   C4B  448  10.802   6.888   8.756  0.2561  0.1689  0.1124
   29loPI    C1  449   6.279  14.919  10.120 -0.0525  0.1031  0.0800
   29loPI    C2  450   6.364  14.551  10.254  0.0767  0.0830 -0.0550
   29loPI    C3  451   6.227  14.830  10.507 -0.0531 -0.0668  0.0415
   29loPI   PO4  452   6.242  14.896   9.854 -0.4008  0.1431 -0.0958
   29loPI   GL1  453   6.184  15.197   9.535 -0.2005 -0.0727 -0.0019
   29loPI   GL2  454   5.918  15.423   9.608 -0.0665 -0.2563  0.0155
   29loPI   C1A  455   6.036  14.988   9.117 -0.0335  0.1679 -0.0722
   29loPI   C2A  456   6.138  14.901   8.735 -0.3217 -0.2805  0.0839
   29loPI   C3A  457   6.039  15.006   8.339  0.0277  0.1074  0.2684
   29loPI   C4A  458   5.666  14.958   8.114  0.1790  0.0737 -0.2528
   29loPI   C5A  459   5.721  14.770   7.767 -0.0232 -0.1021  0.2735
   29loPI   C6A  460   5.389  14.738   7.406  0.0801 -0.1542 -0.0732
   29loPI   C1B  461   5.986  15.468   9.134  0.0197  0.0108 -0.2156
   29loPI   C2B  462   5.879  15.484   8.714 -0.1928 -0.0738  0.2814
   29loPI   C3B  463   5.785  15.439   8.262 -0.1567  0.2426  0.0703
   29loPI   C4B  464   6.046  15.236   7.908  0.0819  0.0003  0.0621
   30loPI    C1  465  10.978  10.342  10.462  0.1274  0.0147 -0.1372
   30loPI    C2  466  11.257  10.056  10.442  0.0519 -0.0547 -0.2059
   30loPI    C3  467  11.101  10.159  10.796  0.0468 -0.1301 -0.1859
   30loPI   PO4  468  11.101  10.477  10.281  0.1948 -0.1794  0.2092
   30loPI   GL1  469  10.909  10.717   9.961 -0.0197 -0.0228 -0.0633
   30loPI   GL2  470  10.789  11.006   9.774  0.3113  0.0586  0.2573
   30loPI   C1A  471  11.028  10.574   9.567  0.0408  0.0284 -0.1250
   30loPI   C2A  472  10.899  10.364   9.128 -0.4166 -0.0940 -0.1307
   30loPI   C3A  473  11.083  10.156   8.777 -0.2161  0.0947  0.0783
   30loPI   C4A  474  11.220  10.071   8.417 -0.1302  0.2329 -0.3140
   30loPI   C5A  475  11.286   9.986   7.995 -0.1232 -0.0266  0.0718
   30loPI   C6A  476  11.112   9.616   7.768 -0.1805  0.2546  0.0253
   30loPI   C1B  477  10.781  11.294   9.413  0.2921 -0.1837  0.0999
   30loPI   C2B  478  10.643  11.718   9.457 -0.0433 -0.2002 -0.0743
   30loPI   C3B  479  10.575  12.039   9.167  0.1315 -0.1002 -0.0184
   30loPI   C4B  480  10.245  12.276   8.859  0.2167  0.0148 -0.2584
   31loPI    C1  481   2.663   9.336  10.576 -0.1233 -0.1118 -0.0521
   31loPI    C2  482   2.909   9.243  10.274  0.0380  0.0096  0.0402
   31loPI    C3  483   2.874   8.997  10.588  0.1094  0.0348  0.0680
   31loPI   PO4  484   2.456   9.367  10.497 -0.1015  0.2489 -0.0199
   31loPI   GL1  485   2.476   9.391  10.036  0.1401 -0.0646 -0.0189
   31loPI   GL2  486   2.179   9.443   9.807  0.0298 -0.0211 -0.0778
   31loPI   C1A  487   2.567   9.434   9.579 -0.2949 -0.1095 -0.2524
   31loPI   C2A  488   2.543   9.400   9.155  0.2142  0.3229  0.0183
   31loPI   C3A  489   2.424   9.431   8.770 -0.4021  0.5225  0.1358
   31loPI   C4A  490   2.310   9.354   8.347  0.0516 -0.1578  0.1930
   31loPI   C5A  491   2.105   9.424   7.986 -0.0198  0.2350  0.1744
   31loPI   C6A  492   2.110   9.380   7.534  0.0596  0.2689  0.2340
   31loPI   C1B  493   2.057   9.384   9.376  0.2338 -0.1971 -0.1221
   31loPI   C2B  494   1.982   9.423   9.009 -0.0681  0.0908  0.1594
   31loPI   C3B  495   1.867   9.528   8.598 -0.0137 -0.1330  0.2120
   31loPI   C4B  496   1.612   9.771   8.221 -0.1235 -0.0297 -0.2088
   32loPI    C1  497  17.691   7.653  10.647  0.0082  0.1522  0.0875
   32loPI    C2  498  17.909   7.358  10.806 -0.1382 -0.0692 -0.1144
   32loPI    C3  499  17.968   7.736  10.922 -0.0297 -0.1893  0.2341
   32loPI   PO4  500  17.727   7.658  10.420  0.3500 -0.1591 -0.0774
   32loPI   GL1  501  17.714   7.717   9.975 -0.1701  0.0822 -0.0809
   32loPI   GL2  502  17.471   7.815  10.001  0.0738 -0.0571  0.1288
   32loPI   C1A  503  17.746   7.792   9.537  0.3587  0.0030 -0.1296
   32loPI   C2A  504  17.629   7.961   9.147 -0.2443 -0.1101  0.0860
   32loPI   C3A  505  17.351   8.012   8.786 -0.0152 -0.1125  0.0849
   32loPI   C4A  506  17.014   8.026   8.460  0.0743 -0.0922  0.0164
   32loPI   C5A  507  16.728   8.395   8.222 -0.4510 -0.0593  0.0909
   32loPI   C6A  508  16.310   8.347   8.113 -0.4503 -0.0247 -0.3616
   32loPI   C1B  509  17.421   8.149   9.576 -0.0618  0.1027  0.2352
   32loPI   C2B  510  17.124   8.353   9.303 -0.0611  0.5133 -0.2966
   32loPI   C3B  511  16.917   8.156   9.016 -0.2823  0.2636  0.0181
   32loPI   C4B  512  16.588   8.207   8.746  0.0900  0.0479 -0.0253
   33loPI    C1  513  13.586   2.608  10.850  0.0548  0.0375 -0.0469
   33loPI    C2  514  13.543   2.219  10.934  0.0889  0.0514  0.0350
   33loPI    C3  515  13.808   2.440  11.137  0.1395  0.0954 -0.0782
   33loPI   PO4  516  13.612   2.586  10.549  0.0386  0.0898  0.0306
   33loPI   GL1  517  13.454   2.697  10.243  0.0965  0.0100 -0.3698
   33loPI   GL2  518  13.119   2.862  10.113 -0.2200 -0.3148 -0.1681
   33loPI   C1A  519  13.678   2.622   9.818  0.6369 -0.1533 -0.1139
   33loPI   C2A  520  13.729   2.561   9.385 -0.0660 -0.1337 -0.1033
   33loPI   C3A  521  13.651   2.729   8.985  0.0349  0.3974 -0.0562
   33loPI   C4A  522  13.709   2.922   8.628 -0.2917 -0.1373 -0.2915
   33loPI   C5A  523  13.791   3.240   8.377  0.0698 -0.0282 -0.0375
   33loPI   C6A  524  13.492   3.498   8.079  0.1867 -0.1617 -0.3275
   33loPI   C1B  525  13.201   2.795   9.742 -0.2012  0.1527  0.1942
   33loPI   C2B  526  13.331   3.081   9.366  0.0581  0.0399 -0.0610
   33loPI   C3B  527  13.433   3.311   8.987 -0.0023 -0.3210  0.3809
   33loPI   C4B  528  13.447   3.591   8.622  0.0930 -0.1677  0.3039
   34loPI    C1  529   6.793  14.966   9.968  0.2198  0.0498 -0.0776
   34loPI    C2  530   6.652  15.215  10.248  0.3700  0.0278  0.0187
   34loPI    C3  531   6.745  14.838  10.344 -0.1297 -0.1560 -0.1887
   34loPI   PO4  532   7.010  15.006   9.845  0.0506 -0.0121 -0.3583
   34loPI   GL1  533   6.970  15.016   9.426 -0.0030  0.1897 -0.0130
   34loPI   GL2  534   6.705  14.833   9.407 -0.1163  0.3382 -0.1213
   34loPI   C1A  535   7.003  14.979   9.014 -0.1701 -0.1814 -0.0028
   34loPI   C2A  536   6.848  14.943   8.737  0.1437 -0.3247  0.0095
   34loPI   C3A  537   6.964  15.064   8.323  0.2462 -0.1652 -0.0004
   34loPI   C4A  538   6.899  15.370   7.813 -0.0701 -0.3349  0.1973
   34loPI   C5A  539   6.912  15.852   7.597  0.3938 -0.0065 -0.1526
   34loPI   C6A  540   6.816  16.180   7.316  0.0874  0.1015  0.1724
   34loPI   C1B  541   6.542  14.649   8.960 -0.1094 -0.2144  0.0761
   34loPI   C2B  542   6.520  14.742   8.476 -0.1484  0.1458 -0.1414
   34loPI   C3B  543   6.493  14.931   8.087  0.0300 -0.0415 -0.0055
   34loPI   C4B  544   6.521  15.025   7.743 -0.3600 -0.5847 -0.0024
   35loPI    C1  545   4.378   6.180  10.291  0.0729 -0.1902 -0.0620
   35loPI    C2  546   4.471   6.123  10.676 -0.3248  0.0282  0.0729
   35loPI    C3  547   4.438   6.495  10.531  0.3315 -0.0464 -0.3092
   35loPI   PO4  548   4.466   6.115  10.096  0.1913  0.2325 -0.0757
   35loPI   GL1  549   4.449   5.812   9.752  0.0465  0.1362 -0.0570
   35loPI   GL2  550   4.137   5.929   9.735 -0.1345  0.0956  0.0229
   35loPI   C1A  551   4.574   5.873   9.364 -0.1878  0.0643  0.2157
   35loPI   C2A  552   4.528   5.796   9.006  0.0911  0.1858  0.0807
   35loPI   C3A  553   4.549   5.663   8.658  0.1897 -0.2022  0.1349
   35loPI   C4A  554   4.424   5.267   8.358  0.0315  0.1585 -0.2361
   35loPI   C5A  555   4.431   5.272   7.926  0.0818  0.1044 -0.0764
   35loPI   C6A  556   4.668   5.099   7.669 -0.3581 -0.2021  0.0433
   35loPI   C1B  557   4.112   5.934   9.205  0.2661 -0.0234  0.1938
   35loPI   C2B  558   4.164   6.058   8.800  0.1443  0.0779 -0.2550
   35loPI   C3B  559   4.051   5.803   8.465  0.0499 -0.0091  0.0288
   35loPI   C4B  560   3.833   5.939   8.117 -0.2382 -0.0196  0.2176
   36loPI    C1  561   9.442   7.460  10.491 -0.0016  0.1229 -0.0550
   36loPI    C2  562   9.616   7.171  10.707 -0.1302  0.1253  0.0532
   36loPI    C3  563   9.395   7.451  10.888  0.0184  0.3101 -0.0472
   36loPI   PO4  564   9.335   7.383  10.340  0.3672 -0.0965  0.0847
   36loPI   GL1  565   9.336   7.503   9.957  0.0489  0.0278 -0.3216
   36loPI   GL2  566   9.326   7.162   9.861 -0.0213  0.0849 -0.0238
   36loPI   C1A  567   9.085   7.733   9.635  0.0237  0.1596  0.1515
   36loPI   C2A  568   9.004   7.687   9.237 -0.1052 -0.0029  0.1831
   36loPI   C3A  569   9.093   7.553   8.800 -0.0829 -0.1026 -0.1833
   36loPI   C4A  570   8.943   7.636   8.342  0.0149 -0.1336  0.0884
   36loPI   C5A  571   8.838   7.681   7.860  0.1222 -0.1784 -0.2922
   36loPI   C6A  572   8.900   7.570   7.471  0.0045  0.1698 -0.0249
   36loPI   C1B  573   9.601   6.867   9.753  0.1206 -0.1499 -0.3138
   36loPI   C2B  574   9.641   6.615   9.498 -0.2818 -0.5051  0.3333
   36loPI   C3B  575   9.349   6.626   9.108  0.0442 -0.3295 -0.1184
   36loPI   C4B  576   9.495   6.589   8.709 -0.1540  0.2216 -0.1860
   37loPI    C1  577  17.556  13.922  11.079  0.1381 -0.0568 -0.1682
   37loPI    C2  578  17.357  13.754  11.382 -0.0286  0.1072 -0.1851
   37loPI    C3  579  17.650  13.552  11.200 -0.0848 -0.0828 -0.0688
   37loPI   PO4  580  17.330  14.000  10.955 -0.1233 -0.0327  0.1517
   37loPI   GL1  581  17.289  13.912  10.560  0.0420  0.1214 -0.0888
   37loPI   GL2  582  17.320  13.784  10.250  0.1234  0.0271  0.2000
   37loPI   C1A  583  17.082  14.168  10.198  0.0025  0.1021 -0.0384
   37loPI   C2A  584  16.968  14.596  10.252  0.1309  0.0005 -0.1891
   37loPI   C3A  585  16.757  14.594   9.880 -0.0755 -0.1392 -0.0368
   37loPI   C4A  586  16.647  14.604   9.504  0.0623  0.4488  0.0601
   37loPI   C5A  587  16.664  14.633   8.963 -0.1306  0.1569  0.0772
   37loPI   C6A  588  16.595  14.663   8.539 -0.0912 -0.1832 -0.4123
   37loPI   C1B  589  17.344  13.481   9.952  0.0840  0.2967 -0.2850
   37loPI   C2B  590  17.447  13.342   9.528 -0.3201 -0.0250  0.0910
   37loPI   C3B  591  17.709  13.413   9.228  0.3267  0.0790  0.1844
   37loPI   C4B  592  17.689  13.684   8.939  0.1022  0.0627  0.0446
   38loPI    C1  593   9.115   1.085  10.410 -0.1819 -0.1727  0.0755
   38loPI    C2  594   9.415   0.836  10.323  0.1436  0.2596 -0.0718
   38loPI    C3  595   9.368   0.969  10.697  0.0286  0.0584 -0.0133
   38loPI   PO4  596   9.082   1.302  10.181  0.0004 -0.2417 -0.0986
   38loPI   GL1  597   9.320   1.459   9.835 -0.0111 -0.0057  0.1750
   38loPI   GL2  598   9.323   1.679   9.786 -0.0728  0.2556  0.1255
   38loPI   C1A  599   9.004   1.314   9.541  0.2040 -0.1819  0.0152
   38loPI   C2A  600   8.978   1.307   9.098 -0.1161 -0.1039 -0.2832
   38loPI   C3A  601   9.035   1.156   8.623  0.0794  0.0003 -0.1319
   38loPI   C4A  602   9.038   1.252   8.143  0.0511 -0.1397  0.0152
   38loPI   C5A  603   9.044   1.020   7.811  0.0194 -0.0385  0.3425
   38loPI   C6A  604   8.881   1.028   7.429  0.3159  0.0723 -0.0712
   38loPI   C1B  605   9.247   1.655   9.334 -0.5237  0.0025 -0.0980
   38loPI   C2B  606   9.224   1.632   8.837  0.3609  0.1056 -0.2478
   38loPI   C3B  607   9.222   1.611   8.406 -0.4239 -0.0935  0.3287
   38loPI   C4B  608   9.550   1.533   8.061 -0.0679  0.2514  0.1881
   39loPI    C1  609   5.107  14.880  10.188 -0.4627  0.0880 -0.0114
   39loPI    C2  610   5.038  14.793  10.572 -0.4584 -0.0422 -0.0396
   39loPI    C3  611   4.869  14.574  10.284 -0.4495  0.0456 -0.1123
   39loPI   PO4  612   5.347  14.963  10.141  0.0525 -0.0835  0.1838
   39loPI   GL1  613   5.421  15.024   9.709 -0.0596 -0.4631  0.2545
   39loPI   GL2  614   5.762  14.925   9.604  0.1110 -0.0025  0.1255
   39loPI   C1A  615   5.134  14.908   9.339  0.1090  0.0001 -0.0279
   39loPI   C2A  616   5.020  14.619   8.978 -0.1168  0.1594  0.1353
   39loPI   C3A  617   4.927  14.519   8.595  0.0839 -0.2085  0.1497
   39loPI   C4A  618   5.125  14.694   8.167 -0.0973 -0.0761 -0.0632
   39loPI   C5A  619   4.898  14.757   7.729  0.0052 -0.0281  0.0202
   39loPI   C6A  620   4.919  14.935   7.246  0.0788 -0.1828 -0.0828
   39loPI   C1B  621   5.623  15.152   9.265  0.1815 -0.1157 -0.0915
   39loPI   C2B  622   5.226  15.256   8.953 -0.1345  0.0106 -0.0772
   39loPI   C3B  623   4.976  15.112   8.775  0.1092 -0.0559  0.0419
   39loPI   C4B  624   4.801  14.959   8.371 -0.1419 -0.0770 -0.2442
   40loPI    C1  625  11.450   6.105  10.674  0.0629  0.1527 -0.0670
   40loPI    C2  626  11.691   5.854  10.870 -0.1221 -0.0897 -0.1447
   40loPI    C3  627  11.621   6.219  11.017  0.2037 -0.0555 -0.0661
   40loPI   PO4  628  11.513   6.129  10.421 -0.1233  0.1373 -0.3148
   40loPI   GL1  629  11.774   5.919  10.150 -0.0897 -0.1241 -0.1173
   40loPI   GL2  630  11.632   5.699   9.986 -0.0477 -0.1105  0.4643
   40loPI   C1A  631  11.899   6.140   9.789 -0.1776 -0.0574 -0.0471
   40loPI   C2A  632  12.192   5.939   9.533  0.1345  0.0886  0.1843
   40loPI   C3A  633  12.205   5.523   9.130  0.3590  0.2436 -0.0600
   40loPI   C4A  634  12.183   5.381   8.764  0.1960 -0.2059  0.1255
   40loPI   C5A  635  12.293   5.236   8.413 -0.0615 -0.1778  0.1273
   40loPI   C6A  636  12.365   5.021   7.963  0.1750  0.1608 -0.2598
   40loPI   C1B  637  11.710   5.713   9.570 -0.1265  0.1735  0.0119
   40loPI   C2B  638  11.711   5.645   9.144 -0.1430  0.1395 -0.0915
   40loPI   C3B  639  11.655   5.408   8.771 -0.1873 -0.1928 -0.0484
   40loPI   C4B  640  11.658   5.051   8.702 -0.1917  0.2988  0.1372
   41loPI    C1  641   4.980   7.293   9.673 -0.0791 -0.0704 -0.1946
   41loPI    C2  642   5.184   7.125   9.972 -0.2630 -0.0031 -0.0295
   41loPI    C3  643   5.291   7.485   9.836 -0.0974 -0.0909 -0.1355
   41loPI   PO4  644   4.666   7.360   9.815 -0.1447 -0.0003 -0.0431
   41loPI   GL1  645   4.279   7.525   9.461  0.1571  0.2754 -0.2541
   41loPI   GL2  646   4.486   7.785   9.472 -0.1199 -0.1453 -0.2305
   41loPI   C1A  647   4.219   7.620   9.047  0.2873  0.4512 -0.2773
   41loPI   C2A  648   4.277   7.740   8.662 -0.0049 -0.1787  0.0018
   41loPI   C3A  649   4.132   7.771   8.256  0.0637 -0.1049 -0.1193
   41loPI   C4A  650   4.194   8.101   7.971 -0.0121 -0.0127 -0.3264
   41loPI   C5A  651   4.092   8.573   7.816 -0.0241  0.2766  0.0963
   41loPI   C6A  652   4.052   9.023   7.675 -0.0008  0.0520 -0.2268
   41loPI   C1B  653   4.771   7.649   9.167  0.1071 -0.0772 -0.1043
   41loPI   C2B  654   4.763   7.544   8.736  0.0408  0.1844 -0.0812
   41loPI   C3B  655   4.668   7.683   8.324  0.4198 -0.3566  0.3835
   41loPI   C4B  656   4.652   7.834   7.886 -0.0093  0.0312  0.2684
   42loPI    C1  657  13.480   8.609  10.545 -0.0860  0.1194 -0.3582
   42loPI    C2  658  13.812   8.519  10.340 -0.1519 -0.0923 -0.3744
   42loPI    C3  659  13.562   8.228  10.454 -0.1586  0.0309 -0.0642
   42loPI   PO4  660  13.398   8.791  10.346  0.0302 -0.2123  0.1220
   42loPI   GL1  661  13.359   8.636   9.963 -0.0790 -0.0978 -0.0741
   42loPI   GL2  662  13.399   8.265  10.027 -0.2682  0.1208 -0.0669
   42loPI   C1A  663  13.355   8.669   9.396 -0.1190  0.1293  0.1317
   42loPI   C2A  664  13.271   8.714   9.000 -0.3346  0.2785  0.1619
   42loPI   C3A  665  13.380   8.814   8.605  0.5054 -0.1894 -0.1880
   42loPI   C4A  666  13.032   8.769   8.232  0.0287 -0.0405  0.0962
   42loPI   C5A  667  12.625   8.840   8.289  0.1649  0.0632 -0.2198
   42loPI   C6A  668  12.393   9.122   8.047  0.0106  0.1506  0.0163
   42loPI   C1B  669  13.254   8.197   9.653  0.0523 -0.0576  0.0557
   42loPI   C2B  670  13.357   8.069   9.293 -0.2051  0.0507  0.2229
   42loPI   C3B  671  13.215   8.147   8.918  0.2604  0.0708 -0.0013
   42loPI   C4B  672  13.184   8.384   8.505 -0.0194 -0.0528 -0.3034
   43loPI    C1  673   1.455  14.543  10.943 -0.2879 -0.0406 -0.0912
   43loPI    C2  674   1.587  14.180  10.839  0.0292  0.0658 -0.0704
   43loPI    C3  675   1.817  14.421  11.062 -0.3180  0.1490  0.2065
   43loPI   PO4  676   1.334  14.628  10.755  0.0888  0.2874 -0.0212
   43loPI   GL1  677   1.108  14.536  10.401  0.0621  0.0162 -0.0243
   43loPI   GL2  678   1.129  14.353  10.345  0.0028  0.0757  0.1374
   43loPI   C1A  679   1.097  14.823  10.057 -0.3886 -0.0160 -0.0001
   43loPI   C2A  680   1.037  14.682   9.663  0.1288 -0.0001 -0.0474
   43loPI   C3A  681   1.048  14.607   9.312 -0.2823  0.1742 -0.0260
   43loPI   C4A  682   1.050  14.653   8.897 -0.1360 -0.1424 -0.1023
   43loPI   C5A  683   1.003  14.510   8.414 -0.0167  0.2180 -0.1713
   43loPI   C6A  684   0.943  14.716   8.072  0.1828  0.0669  0.1140
   43loPI   C1B  685   0.963  14.246   9.910 -0.1107  0.3076  0.2493
   43loPI   C2B  686   0.867  14.169   9.416 -0.0311  0.1785  0.0021
   43loPI   C3B  687   0.746  13.819   9.139  0.0125  0.0901  0.2423
   43loPI   C4B  688   0.715  13.602   8.731 -0.1105  0.0418 -0.2562
   44loPI    C1  689  17.116   2.263  10.572  0.3129  0.1178 -0.1666
   44loPI    C2  690  17.062   2.440  10.926  0.0876  0.0637 -0.1724
   44loPI    C3  691  17.403   2.246  10.850  0.0395 -0.1384  0.1087
   44loPI   PO4  692  17.084   2.476  10.320  0.0924  0.0938 -0.0481
   44loPI   GL1  693  17.284   2.461   9.897 -0.2323  0.0079  0.0443
   44loPI   GL2  694  17.453   2.223   9.685 -0.1765 -0.0653 -0.2497
   44loPI   C1A  695  17.064   2.552   9.534 -0.1184  0.0035  0.0197
   44loPI   C2A  696  16.947   2.318   9.059  0.1578  0.0263  0.1213
   44loPI   C3A  697  16.732   2.253   8.745 -0.0243  0.2307 -0.1286
   44loPI   C4A  698  16.376   2.121   8.398  0.0086  0.0488  0.0858
   44loPI   C5A  699  16.168   2.117   8.075  0.2172 -0.3229  0.1793
   44loPI   C6A  700  16.135   2.231   7.734  0.1852  0.1523 -0.0433
   44loPI   C1B  701  17.121   1.839   9.650 -0.3190 -0.2173 -0.1592
   44loPI   C2B  702  16.739   1.800   9.449  0.0623  0.3246  0.1054
   44loPI   C3B  703  16.771   1.847   9.074 -0.1185 -0.0397 -0.2462
   44loPI   C4B  704  16.423   1.814   8.770 -0.1498  0.0535  0.1853
   45loPI    C1  705   4.945   6.332  10.262 -0.1738  0.1025  0.0851
   45loPI    C2  706   5.258   6.098  10.346 -0.1108  0.1228 -0.0895
   45loPI    C3  707   4.992   6.185  10.632  0.0195  0.0714  0.0491
   45loPI   PO4  708   5.066   6.555  10.117  0.0963 -0.0479  0.0503
   45loPI   GL1  709   5.256   6.556   9.751 -0.2081  0.1194  0.2650
   45loPI   GL2  710   5.393   6.282   9.779 -0.1748  0.0713  0.0598
   45loPI   C1A  711   5.034   6.648   9.404  0.2295  0.0637  0.1839
   45loPI   C2A  712   4.873   6.693   8.951  0.0814 -0.3795  0.0375
   45loPI   C3A  713   4.789   6.982   8.640  0.1535  0.1066  0.0670
   45loPI   C4A  714   4.734   7.091   8.242  0.0568 -0.2030 -0.0930
   45loPI   C5A  715   4.919   6.943   7.827  0.3733 -0.1325  0.2271
   45loPI   C6A  716   4.671   6.892   7.464 -0.0351 -0.3797  0.1804
   45loPI   C1B  717   5.455   6.381   9.320 -0.1977  0.1108 -0.3056
   45loPI   C2B  718   5.230   6.352   9.025 -0.1957  0.0637 -0.0082
   45loPI   C3B  719   5.277   6.262   8.627  0.3709  0.1955 -0.1935
   45loPI   C4B  720   5.302   5.992   8.221  0.1949 -0.0285  0.1858
   46loPI    C1  721   6.134   5.857  10.427 -0.0275  0.0672 -0.1368
   46loPI    C2  722   6.325   5.604  10.670  0.0047  0.1060 -0.1216
   46loPI    C3  723   6.461   5.978  10.624 -0.1677  0.1884  0.0251
   46loPI   PO4  724   6.029   5.790  10.253 -0.1133  0.1818  0.2908
   46loPI   GL1  725   5.814   5.482  10.059  0.2825 -0.0576 -0.1195
   46loPI   GL2  726   5.986   5.176   9.849 -0.0317 -0.1558 -0.2696
   46loPI   C1A  727   5.810   5.568   9.615  0.0217 -0.2139 -0.1119
   46loPI   C2A  728   5.744   5.837   9.306 -0.2569  0.2189  0.0606
   46loPI   C3A  729   5.479   5.946   9.026 -0.1762  0.0890 -0.2198
   46loPI   C4A  730   5.644   5.905   8.551 -0.4542 -0.2857 -0.0495
   46loPI   C5A  731   5.872   6.132   8.362 -0.1214 -0.3078 -0.0611
   46loPI   C6A  732   6.250   6.244   8.096  0.0477  0.0744  0.0038
   46loPI   C1B  733   6.177   5.237   9.411 -0.2570 -0.2705 -0.1029
   46loPI   C2B  734   6.224   5.195   8.965  0.3396  0.1798  0.1015
   46loPI   C3B  735   6.256   5.134   8.534 -0.2412 -0.2836  0.4049
   46loPI   C4B  736   6.114   4.969   8.106 -0.1054 -0.5086  0.1344
   47loPI    C1  737  13.169   7.017  10.686 -0.1417  0.0667  0.2092
   47loPI    C2  738  13.353   7.344  10.548  0.0260 -0.1010  0.0283
   47loPI    C3  739  13.532   7.116  10.823 -0.1030 -0.0268  0.1752
   47loPI   PO4  740  13.023   6.957  10.446  0.0867  0.3211  0.0964
   47loPI   GL1  741  12.726   6.679  10.197  0.0488 -0.2442 -0.0546
   47loPI   GL2  742  12.734   6.388  10.115 -0.1316  0.0566 -0.1601
   47loPI   C1A  743  12.730   6.917   9.881  0.1597 -0.0517 -0.0707
   47loPI   C2A  744  12.624   6.805   9.467 -0.2389 -0.2813 -0.3891
   47loPI   C3A  745  12.767   6.756   9.023  0.2411 -0.1023 -0.0739
   47loPI   C4A  746  12.894   6.657   8.595  0.0310 -0.0222  0.1607
   47loPI   C5A  747  12.676   6.508   8.244 -0.2160  0.1231  0.1984
   47loPI   C6A  748  12.337   6.633   7.907 -0.2147 -0.0175 -0.0071
   47loPI   C1B  749  13.008   6.367   9.801 -0.0351  0.0430 -0.0854
   47loPI   C2B  750  12.945   6.363   9.378 -0.5700 -0.0620 -0.0031
   47loPI   C3B  751  12.936   6.162   8.978 -0.3319  0.1490  0.1283
   47loPI   C4B  752  13.064   6.203   8.542 -0.1541 -0.0594  0.0106
   48loPI    C1  753  10.418  16.535  10.334  0.0235 -0.1462  0.0643
   48loPI    C2  754  10.358  16.549   9.939 -0.0076  0.0497  0.0750
   48loPI    C3  755  10.123  16.321  10.169 -0.0949  0.0634  0.0003
   48loPI   PO4  756  10.564  16.814  10.312  0.1319 -0.0281 -0.2810
   48loPI   GL1  757  10.780  17.206  10.032  0.1439 -0.1566  0.2968
   48loPI   GL2  758  10.552  17.117   9.834 -0.3501  0.0728 -0.0360
   48loPI   C1A  759  10.903  17.526   9.790  0.1149  0.1825  0.1372
   48loPI   C2A  760  10.958  17.560   9.499 -0.0452 -0.0109 -0.3885
   48loPI   C3A  761  11.025  17.307   9.185 -0.1402 -0.1364  0.0803
   48loPI   C4A  762  10.956  17.052   8.877  0.2144  0.2560 -0.1962
   48loPI   C5A  763  10.957  16.766   8.545  0.0599  0.3226 -0.1633
   48loPI   C6A  764  10.693  16.556   8.247  0.3207  0.1493 -0.0650
   48loPI   C1B  765  10.535  17.259   9.406  0.0350  0.0441 -0.0094
   48loPI   C2B  766  10.589  17.485   8.944  0.0318  0.0877 -0.1999
   48loPI   C3B  767  10.611  17.287   8.551  0.2769 -0.1508 -0.2657
   48loPI   C4B  768  10.820  17.047   8.161  0.0747  0.3413  0.0567
   49loPI    C1  769  15.677  17.887  10.486 -0.1135 -0.0936 -0.0657
   49loPI    C2  770  15.385  18.156  10.438  0.0245  0.0834  0.0693
   49loPI    C3  771  15.323  17.831  10.663 -0.0528  0.1451  0.1378
   49loPI   PO4  772  15.751  17.916  10.221  0.0397 -0.4143  0.0268
   49loPI   GL1  773  15.658  18.074   9.800  0.0629  0.2550 -0.1117
   49loPI   GL2  774  15.907  18.259   9.909 -0.0096 -0.0377 -0.4473
   49loPI   C1A  775  15.501  18.101   9.455  0.1048  0.0351  0.1458
   49loPI   C2A  776  15.331  17.849   9.092 -0.1778 -0.1123 -0.1362
   49loPI   C3A  777  15.039  17.479   9.117  0.0575 -0.0402  0.0888
   49loPI   C4A  778  14.980  17.274   8.738 -0.0382  0.1233 -0.3396
   49loPI   C5A  779  15.087  17.363   8.326  0.0294  0.2068  0.2354
   49loPI   C6A  780  15.233  17.646   8.026 -0.0079 -0.0969  0.0239
   49loPI   C1B  781  16.061  18.200   9.433 -0.0090  0.1012 -0.0919
   49loPI   C2B  782  15.903  18.147   8.983  0.2425 -0.0618 -0.1746
   49loPI   C3B  783  15.692  18.010   8.635 -0.0349  0.2255  0.1894
   49loPI   C4B  784  15.768  18.042   8.198  0.3373 -0.4835 -0.0998
   50loPI    C1  785   5.360   2.591  10.752 -0.0222 -0.0017  0.2263
   50loPI    C2  786   5.557   2.865  10.966 -0.0815  0.1793  0.0530
   50loPI    C3  787   5.688   2.487  10.955  0.0222  0.2076  0.2642
   50loPI   PO4  788   5.351   2.605  10.482 -0.2002  0.0250 -0.1303
   50loPI   GL1  789   5.413   2.838  10.188  0.0046 -0.0141 -0.5131
   50loPI   GL2  790   5.375   3.079   9.950 -0.0577  0.0748 -0.1034
   50loPI   C1A  791   5.675   2.784   9.793  0.2559  0.1897 -0.0264
   50loPI   C2A  792   5.729   2.806   9.357 -0.2281 -0.0504  0.1458
   50loPI   C3A  793   5.714   2.854   8.931 -0.0343 -0.0249 -0.0634
   50loPI   C4A  794   5.392   3.120   8.644 -0.1369 -0.1571  0.2830
   50loPI   C5A  795   5.442   3.081   8.281 -0.1107  0.2150  0.2081
   50loPI   C6A  796   5.112   3.210   8.053 -0.0407 -0.0971  0.1480
   50loPI   C1B  797   5.302   3.022   9.581 -0.0809 -0.0012 -0.0144
   50loPI   C2B  798   5.291   3.071   9.146 -0.0123 -0.1046 -0.0529
   50loPI   C3B  799   5.163   3.461   8.928  0.2950 -0.2927 -0.1779
   50loPI   C4B  800   4.816   3.513   8.554 -0.1403  0.1868 -0.2982
   51loPI    C1  801  13.950  16.443  11.106 -0.0438  0.0222 -0.0884
   51loPI    C2  802  14.209  16.412  11.409 -0.0301 -0.0149 -0.1037
   51loPI    C3  803  13.898  16.162  11.385  0.1158 -0.1839 -0.2621
   51loPI   PO4  804  14.122  16.580  10.938  0.1447  0.0531 -0.0511
   51loPI   GL1  805  14.388  16.421  10.547 -0.0656  0.0942  0.0792
   51loPI   GL2  806  14.675  16.280  10.453 -0.0280 -0.0909 -0.1995
   51loPI   C1A  807  14.283  16.370  10.134  0.1176  0.1421 -0.2648
   51loPI   C2A  808  14.273  16.428   9.635 -0.0855  0.2573 -0.0485
   51loPI   C3A  809  14.011  16.546   9.399 -0.1249  0.0347 -0.1882
   51loPI   C4A  810  13.823  16.640   9.121  0.0872 -0.0598 -0.0560
   51loPI   C5A  811  13.738  17.044   8.827  0.1479 -0.0024 -0.1583
   51loPI   C6A  812  13.513  17.106   8.465  0.0446  0.0917 -0.0007
   51loPI   C1B  813  14.818  16.487  10.072 -0.1557  0.1758 -0.1071
   51loPI   C2B  814  14.764  16.625   9.650  0.1294 -0.1600 -0.0735
   51loPI   C3B  815  14.479  16.806   9.354  0.2354  0.0627 -0.0534
   51loPI   C4B  816  14.178  16.983   9.193  0.0060  0.0338 -0.3185
   52loPI    C1  817  12.838  12.300  10.643  0.1479  0.0331 -0.0088
   52loPI    C2  818  12.713  11.963  10.820 -0.1579  0.1551  0.0141
   52loPI    C3  819  12.981  12.198  11.003 -0.0044 -0.0329  0.0341
   52loPI   PO4  820  12.917  12.210  10.360  0.0138 -0.0989 -0.0856
   52loPI   GL1  821  12.585  12.191  10.032 -0.1484  0.1406  0.0264
   52loPI   GL2  822  12.915  11.981   9.949  0.0299  0.1161  0.1184
   52loPI   C1A  823  12.719  12.260   9.613 -0.1189 -0.0864  0.0509
   52loPI   C2A  824  12.830  12.394   9.240 -0.1107  0.0473  0.0097
   52loPI   C3A  825  13.033  12.352   8.883  0.1453  0.1051 -0.0146
   52loPI   C4A  826  13.130  12.255   8.456 -0.2419 -0.0208 -0.2887
   52loPI   C5A  827  13.023  12.628   8.253  0.4099  0.1024  0.0615
   52loPI   C6A  828  12.953  12.883   7.912  0.0553  0.0322 -0.1128
   52loPI   C1B  829  13.081  11.747   9.652 -0.0740 -0.0456  0.0415
   52loPI   C2B  830  13.101  11.811   9.230  0.1151  0.0821 -0.0941
   52loPI   C3B  831  13.274  11.837   8.827 -0.1655 -0.0370 -0.3139
   52loPI   C4B  832  13.412  11.566   8.551 -0.1218 -0.2320  0.0099
   53loPI    C1  833   4.032   1.324   9.667 -0.1175 -0.1034 -0.0983
   53loPI    C2  834   3.711   1.233   9.889  0.1068 -0.0899  0.2382
   53loPI    C3  835   4.066   1.292  10.064  0.3369 -0.2875 -0.1461
   53loPI   PO4  836   3.967   1.552   9.572 -0.1111 -0.1896 -0.1082
   53loPI   GL1  837   3.834   1.656   9.215 -0.5037  0.3422 -0.1507
   53loPI   GL2  838   3.935   1.354   9.105  0.0551  0.1341 -0.0161
   53loPI   C1A  839   4.009   1.810   8.894  0.2818  0.3864 -0.1413
   53loPI   C2A  840   4.011   1.798   8.502  0.0752  0.0191  0.0110
   53loPI   C3A  841   4.198   1.655   8.173 -0.2091 -0.2812  0.1089
   53loPI   C4A  842   4.125   1.541   7.847  0.1552 -0.1604  0.4956
   53loPI   C5A  843   3.935   1.259   7.693  0.1702  0.0197 -0.2636
   53loPI   C6A  844   3.630   0.993   7.550 -0.0406  0.1898 -0.0602
   53loPI   C1B  845   3.725   1.380   8.779  0.0136 -0.3083  0.1758
   53loPI   C2B  846   3.722   1.475   8.306 -0.3937  0.0943 -0.1723
   53loPI   C3B  847   3.643   1.559   8.018 -0.0213 -0.1547  0.2637
   53loPI   C4B  848   3.501   1.506   7.631  0.2099 -0.0856 -0.0580
   54loPI    C1  849  13.312   3.798  10.200  0.2231 -0.2426 -0.1595
   54loPI    C2  850  13.019   3.719  10.462  0.1112  0.0455 -0.1947
   54loPI    C3  851  13.287   4.006  10.541  0.2467 -0.0596 -0.2681
   54loPI   PO4  852  13.407   3.622  10.153  0.0493  0.0657  0.2716
   54loPI   GL1  853  13.748   3.492   9.976  0.0034  0.2115  0.2130
   54loPI   GL2  854  13.604   3.128   9.907  0.0971 -0.0409  0.2112
   54loPI   C1A  855  13.549   3.547   9.514 -0.0026 -0.0605  0.1487
   54loPI   C2A  856  13.660   3.785   9.115 -0.0043 -0.3673  0.2662
   54loPI   C3A  857  13.627   4.098   8.835 -0.0791  0.2994 -0.3099
   54loPI   C4A  858  13.894   4.277   8.548 -0.1615 -0.0057  0.3458
   54loPI   C5A  859  13.999   4.600   8.410  0.1572 -0.0757 -0.2066
   54loPI   C6A  860  14.312   4.798   8.095 -0.0738  0.1740 -0.3389
   54loPI   C1B  861  13.776   3.058   9.596  0.1242 -0.1620  0.0520
   54loPI   C2B  862  13.829   3.213   9.246 -0.2090  0.1993  0.1450
   54loPI   C3B  863  14.004   3.289   8.900 -0.2728  0.1718  0.1793
   54loPI   C4B  864  14.289   3.224   8.580 -0.1217 -0.1207  0.2248
   55loPI    C1  865  13.842  18.037  10.528 -0.1882  0.0320 -0.1099
   55loPI    C2  866  13.550  18.230  10.722 -0.2198  0.0381 -0.1630
   55loPI    C3  867  13.710  17.898  10.879  0.0187  0.2528  0.0582
   55loPI   PO4  868  13.966  18.219  10.375 -0.1142 -0.3243  0.2105
   55loPI   GL1  869  14.218  18.313  10.059  0.0648  0.1119  0.1753
   55loPI   GL2  870  14.606  18.289  10.067 -0.1080 -0.2110 -0.1105
   55loPI   C1A  871  14.170  18.073   9.704 -0.2195  0.2245  0.0814
   55loPI   C2A  872  14.114  18.109   9.251  0.3836  0.2193  0.2834
   55loPI   C3A  873  13.910  18.213   8.898 -0.1067  0.0794  0.2288
   55loPI   C4A  874  13.688  18.118   8.570  0.0693 -0.0619  0.3277
   55loPI   C5A  875  13.694  17.848   8.146 -0.2346 -0.0925 -0.1407
   55loPI   C6A  876  13.926  18.030   7.782  0.0339 -0.2474  0.2252
   55loPI   C1B  877  14.583  18.462   9.632  0.1481 -0.0703 -0.0428
   55loPI   C2B  878  14.444  18.466   9.219 -0.0125  0.2438  0.0251
   55loPI   C3B  879  14.339  18.532   8.784 -0.3023 -0.1671  0.0347
   55loPI   C4B  880  14.329  18.677   8.280 -0.1411 -0.0230 -0.1419
   56loPI    C1  881  12.025   6.922  10.706  0.1701 -0.0083 -0.1097
   56loPI    C2  882  11.896   6.890  11.083  0.0904 -0.0133 -0.1372
   56loPI    C3  883  12.001   6.563  10.879  0.1711 -0.0068 -0.1063
   56loPI   PO4  884  11.887   7.016  10.579  0.0852 -0.0979 -0.1692
   56loPI   GL1  885  11.846   7.008  10.216  0.0674  0.0255 -0.0953
   56loPI   GL2  886  11.954   7.259  10.105 -0.2839 -0.0497 -0.1057
   56loPI   C1A  887  11.810   6.649   9.921 -0.0162 -0.1961 -0.1626
   56loPI   C2A  888  11.881   6.562   9.562  0.1155 -0.0026  0.1726
   56loPI   C3A  889  11.931   6.293   9.255  0.0123 -0.0176 -0.1069
   56loPI   C4A  890  12.073   6.035   8.978  0.2055  0.0205  0.1103
   56loPI   C5A  891  12.140   5.965   8.601  0.0879  0.1836 -0.1159
   56loPI   C6A  892  12.054   5.686   8.308  0.1042  0.0077 -0.1404
   56loPI   C1B  893  12.090   6.999   9.810 -0.0211  0.0626 -0.0094
   56loPI   C2B  894  12.175   6.951   9.423 -0.1481 -0.3031 -0.3495
   56loPI   C3B  895  12.257   6.848   8.957  0.2676  0.2234 -0.4267
   56loPI   C4B  896  12.479   6.941   8.619  0.0208 -0.0578  0.1180
   57loPI    C1  897   2.778   8.572  10.184  0.1198  0.0417  0.1105
   57loPI    C2  898   3.007   8.244  10.157  0.0972  0.0309  0.0487
   57loPI    C3  899   2.628   8.214  10.282  0.0873  0.0300  0.0182
   57loPI   PO4  900   2.985   8.736  10.157 -0.1448 -0.1120 -0.1098
   57loPI   GL1  901   3.214   8.718   9.747 -0.0655  0.0680  0.1429
   57loPI   GL2  902   3.292   8.477   9.820  0.0624 -0.0190 -0.1550
   57loPI   C1A  903   2.942   8.889   9.423 -0.0583 -0.0129 -0.0621
   57loPI   C2A  904   2.957   8.871   8.996  0.0508 -0.1809  0.0294
   57loPI   C3A  905   3.015   8.840   8.552 -0.1057 -0.3000 -0.0969
   57loPI   C4A  906   2.954   8.940   8.217 -0.2324  0.1247  0.1052
   57loPI   C5A  907   2.571   9.053   7.957  0.1560  0.0509  0.0797
   57loPI   C6A  908   2.380   8.999   7.570 -0.0688 -0.0024 -0.3610
   57loPI   C1B  909   3.572   8.595   9.388 -0.2958  0.1795 -0.0034
   57loPI   C2B  910   3.827   8.774   9.030 -0.1844  0.0036  0.1399
   57loPI   C3B  911   3.878   8.798   8.672  0.0216  0.0451 -0.0833
   57loPI   C4B  912   3.946   8.864   8.229  0.0975  0.0458  0.0565
   58loPI    C1  913   3.169   9.986  10.350 -0.0998  0.2367  0.0112
   58loPI    C2  914   2.855   9.783  10.207  0.0181  0.0728 -0.0176
   58loPI    C3  915   3.012   9.684  10.561  0.0674  0.1232 -0.0252
   58loPI   PO4  916   3.092  10.289  10.291  0.1947  0.0338 -0.0055
   58loPI   GL1  917   3.122  10.543   9.954 -0.1296 -0.1783  0.0619
   58loPI   GL2  918   3.309  10.390   9.778 -0.1542  0.3299 -0.0836
   58loPI   C1A  919   3.153  10.734   9.511  0.0789  0.0736 -0.0816
   58loPI   C2A  920   3.106  10.719   9.071  0.1038  0.1803 -0.0894
   58loPI   C3A  921   3.327  10.709   8.596  0.1136  0.1485 -0.1368
   58loPI   C4A  922   3.286  10.981   8.294 -0.2175  0.0678 -0.3098
   58loPI   C5A  923   2.899  11.098   8.168  0.0621 -0.1020  0.1578
   58loPI   C6A  924   2.699  11.610   8.012 -0.3053  0.0044  0.2411
   58loPI   C1B  925   3.330  10.167   9.380 -0.3349 -0.2219 -0.2015
   58loPI   C2B  926   3.232  10.223   8.974 -0.0982 -0.2713  0.1218
   58loPI   C3B  927   3.051  10.229   8.546 -0.0708 -0.2631  0.2541
   58loPI   C4B  928   3.029  10.483   8.174  0.0641 -0.1442 -0.1683
   59loPI    C1  929   9.193   8.937  10.288 -0.0196 -0.0891 -0.2492
   59loPI    C2  930   9.514   8.954  10.525  0.0075 -0.1343 -0.2824
   59loPI    C3  931   9.282   9.277  10.480 -0.0785 -0.1667 -0.0822
   59loPI   PO4  932   9.339   8.697  10.030 -0.0572 -0.1231  0.0788
   59loPI   GL1  933   9.574   8.713   9.709  0.0431 -0.1206 -0.0764
   59loPI   GL2  934   9.900   8.825   9.644  0.2060  0.3309 -0.1132
   59loPI   C1A  935   9.550   9.106   9.390  0.3026 -0.2391  0.1486
   59loPI   C2A  936   9.435   9.087   8.990 -0.1409 -0.2952  0.2820
   59loPI   C3A  937   9.107   9.048   8.636 -0.1911  0.2496 -0.0582
   59loPI   C4A  938   8.798   9.389   8.325  0.0863  0.0895  0.3515
   59loPI   C5A  939   8.414   9.411   8.103 -0.1364 -0.2321 -0.0334
   59loPI   C6A  940   8.349   9.601   7.643 -0.2029 -0.0260  0.4132
   59loPI   C1B  941   9.894   8.771   9.252  0.3188 -0.1906  0.1260
   59loPI   C2B  942   9.833   8.772   8.890 -0.0423  0.0342 -0.2108
   59loPI   C3B  943   9.586   8.865   8.566  0.1956  0.0727 -0.1785
   59loPI   C4B  944   9.450   9.135   8.320 -0.3329  0.2612 -0.1193
   60loPI    C1  945   7.306  12.076  10.237  0.1253  0.0933  0.0228
   60loPI    C2  946   7.173  11.783   9.999  0.1409  0.1313 -0.0330
   60loPI    C3  947   6.946  12.105  10.065  0.1232  0.1063  0.0292
   60loPI   PO4  948   7.636  12.063  10.123 -0.3695 -0.1169  0.1568
   60loPI   GL1  949   7.909  12.268   9.826 -0.0774  0.0197 -0.0161
   60loPI   GL2  950   7.735  12.494   9.705  0.2948 -0.0068  0.1197
   60loPI   C1A  951   8.252  12.124   9.499 -0.0567  0.2536 -0.0852
   60loPI   C2A  952   8.283  12.166   9.090  0.0069  0.0210  0.3467
   60loPI   C3A  953   8.146  12.116   8.637  0.2458  0.1636 -0.2136
   60loPI   C4A  954   7.958  11.964   8.255 -0.1634  0.4191  0.2890
   60loPI   C5A  955   7.854  11.835   7.868 -0.0846 -0.2289 -0.0940
   60loPI   C6A  956   7.571  11.440   7.617  0.2963 -0.0258 -0.1270
   60loPI   C1B  957   7.818  12.235   9.270  0.0660  0.3999 -0.1472
   60loPI   C2B  958   7.660  12.122   8.921  0.4754  0.0113 -0.2925
   60loPI   C3B  959   7.620  11.719   8.638  0.0907 -0.2922  0.1699
   60loPI   C4B  960   7.592  11.627   8.266  0.1437  0.0165  0.2020
   61loPI    C1  961  14.226   6.508  10.759 -0.2832 -0.1732 -0.1000
   61loPI    C2  962  14.524   6.519  10.493 -0.1930  0.1029  0.0087
   61loPI    C3  963  14.178   6.703  10.413 -0.1402  0.2479  0.1112
   61loPI   PO4  964  14.234   6.230  10.837 -0.0592 -0.2010  0.1016
   61loPI   GL1  965  14.370   5.960  10.548 -0.0490 -0.0208  0.0369
   61loPI   GL2  966  14.083   5.768  10.552  0.1060 -0.1618 -0.2481
   61loPI   C1A  967  14.477   6.165  10.136  0.2286 -0.3445  0.0865
   61loPI   C2A  968  14.566   6.200   9.756 -0.3672 -0.0999 -0.3326
   61loPI   C3A  969  14.538   6.153   9.322  0.0689  0.0808 -0.2416
   61loPI   C4A  970  14.564   6.216   9.003 -0.0510 -0.0607  0.0173
   61loPI   C5A  971  14.423   5.940   8.651  0.3685  0.1470 -0.1350
   61loPI   C6A  972  14.447   5.531   8.493 -0.0644  0.2273 -0.2980
   61loPI   C1B  973  14.139   5.674  10.170  0.0838  0.0833  0.1118
   61loPI   C2B  974  14.228   5.519   9.716 -0.3267  0.1527 -0.1940
   61loPI   C3B  975  14.123   5.493   9.226  0.2625  0.0248 -0.2217
   61loPI   C4B  976  13.964   5.550   8.850  0.1923 -0.1027  0.0231
   62loPI    C1  977   8.718   3.448  10.517  0.0962  0.0219 -0.0789
   62loPI    C2  978   8.846   3.571  10.876 -0.1272  0.0138  0.0052
   62loPI    C3  979   8.534   3.323  10.850 -0.0173 -0.1065 -0.1892
   62loPI   PO4  980   8.783   3.643  10.318  0.1812 -0.3068 -0.0133
   62loPI   GL1  981   8.949   3.594  10.035  0.0208 -0.1956 -0.0505
   62loPI   GL2  982   9.137   3.499   9.851  0.1852 -0.3844 -0.2818
   62loPI   C1A  983   8.608   3.657   9.569 -0.2117  0.1312 -0.1069
   62loPI   C2A  984   8.758   3.712   9.114  0.1415 -0.2514  0.3378
   62loPI   C3A  985   8.652   4.085   8.882 -0.3013 -0.1256  0.2992
   62loPI   C4A  986   8.478   4.380   8.814 -0.1057 -0.0377 -0.2148
   62loPI   C5A  987   8.132   4.575   8.795  0.2869 -0.1406  0.1176
   62loPI   C6A  988   7.948   4.891   8.488  0.0074 -0.1041  0.2502
   62loPI   C1B  989   9.065   3.503   9.412 -0.1700 -0.1168 -0.0461
   62loPI   C2B  990   9.202   3.517   9.067 -0.0183 -0.0680  0.0027
   62loPI   C3B  991   9.270   3.567   8.569  0.0113  0.0617  0.0347
   62loPI   C4B  992   9.274   3.906   8.279  0.1105 -0.2472  0.1285
   63loPI    C1  993  12.873  15.350  10.497 -0.0491  0.0100 -0.0389
   63loPI    C2  994  13.093  15.378  10.831 -0.1177 -0.2737  0.0328
   63loPI    C3  995  12.782  15.624  10.774 -0.0115 -0.1215  0.1049
   63loPI   PO4  996  12.952  15.064  10.410  0.0602 -0.1172  0.0043
   63loPI   GL1  997  13.184  14.899  10.043  0.1095 -0.0624 -0.1072
   63loPI   GL2  998  13.357  15.138  10.049 -0.0135  0.0331  0.0257
   63loPI   C1A  999  13.502  14.612   9.967 -0.1453  0.0314 -0.1453
   63loPI   C2A 1000  13.766  14.544   9.621  0.2851 -0.1734  0.0817
   63loPI   C3A 1001  13.997  14.316   9.411  0.1980  0.0267  0.0245
   63loPI   C4A 1002  14.374  14.156   9.234  0.1665  0.3030 -0.0882
   63loPI   C5A 1003  14.487  13.782   8.962 -0.0684 -0.3256 -0.3657
   63loPI   C6A 1004  14.224  13.609   8.635 -0.3662 -0.0860  0.3960
   63loPI   C1B 1005  13.512  15.015   9.633 -0.0683 -0.0021  0.0024
   63loPI   C2B 1006  13.864  14.932   9.313  0.0529  0.0572 -0.0942
   63loPI   C3B 1007  14.046  15.022   8.888 -0.1255 -0.0852 -0.0731
   63loPI   C4B 1008  14.347  15.285   8.801 -0.1118 -0.2308 -0.1981
   64loPI    C1 1009   3.128   2.282  10.382  0.2167 -0.0140 -0.0170
   64loPI    C2 1010   3.294   2.360  10.738  0.2234  0.0064 -0.0246
   64loPI    C3 1011   3.373   2.015  10.552  0.0660 -0.0895  0.0839
   64loPI   PO4 1012   3.144   2.502  10.209 -0.0695  0.1356  0.3396
   64loPI   GL1 1013   2.963   2.708   9.764 -0.1497  0.2692  0.4233
   64loPI   GL2 1014   2.929   3.006   9.698  0.1466 -0.1596  0.2397
   64loPI   C1A 1015   2.889   2.498   9.395  0.2499  0.2186 -0.1373
   64loPI   C2A 1016   2.727   2.362   9.052 -0.1542  0.1185  0.0901
   64loPI   C3A 1017   2.600   2.277   8.728 -0.2513  0.1839 -0.0397
   64loPI   C4A 1018   2.647   2.199   8.306  0.0020 -0.1289 -0.2529
   64loPI   C5A 1019   2.787   2.115   7.918  0.2585  0.3999  0.0685
   64loPI   C6A 1020   2.953   2.389   7.721  0.1959 -0.1620  0.3034
   64loPI   C1B 1021   3.021   3.250   9.304 -0.1151  0.1467  0.1809
   64loPI   C2B 1022   2.901   3.226   8.854  0.1050  0.2540 -0.2724
   64loPI   C3B 1023   3.027   3.146   8.587  0.1356 -0.0006 -0.3421
   64loPI   C4B 1024   3.210   3.220   8.159  0.0714  0.0680 -0.0319
   65loPI    C1 1025   8.874   6.169  10.892 -0.0839  0.0829  0.2529
   65loPI    C2 1026   8.682   5.948  11.165 -0.1226  0.0506  0.1997
   65loPI    C3 1027   9.080   5.924  11.133 -0.1511 -0.2155  0.0129
   65loPI   PO4 1028   8.767   6.146  10.629 -0.1372  0.0998  0.0472
   65loPI   GL1 1029   8.837   5.818  10.221  0.1084  0.0025 -0.0002
   65loPI   GL2 1030   8.554   5.589  10.122 -0.1705 -0.1581  0.1537
   65loPI   C1A 1031   8.828   6.132   9.861 -0.1337  0.4077  0.2177
   65loPI   C2A 1032   8.575   5.933   9.505 -0.1542 -0.4053  0.3715
   65loPI   C3A 1033   8.390   5.949   9.110 -0.3280 -0.0871  0.0371
   65loPI   C4A 1034   8.083   5.998   8.762  0.1036  0.0465  0.0181
   65loPI   C5A 1035   7.965   6.120   8.430 -0.0260 -0.0094  0.0296
   65loPI   C6A 1036   7.848   6.353   7.963 -0.2651  0.2055  0.3616
   65loPI   C1B 1037   8.303   5.480   9.760  0.0280  0.2055  0.1020
   65loPI   C2B 1038   8.275   5.201   9.379  0.2604  0.3055  0.0387
   65loPI   C3B 1039   8.564   5.156   9.015 -0.1863 -0.0136 -0.0278
   65loPI   C4B 1040   8.625   4.847   8.781 -0.2183 -0.0373 -0.3271
   66loPI    C1 1041   7.389   8.517  10.331  0.0804  0.0714 -0.1153
   66loPI    C2 1042   7.729   8.411  10.149  0.1482 -0.1141  0.1140
   66loPI    C3 1043   7.656   8.289  10.523 -0.1793 -0.0900  0.0609
   66loPI   PO4 1044   7.354   8.721  10.128  0.2517  0.0929  0.0552
   66loPI   GL1 1045   7.447   8.822   9.725 -0.0891  0.1156 -0.1247
   66loPI   GL2 1046   7.596   8.625   9.676  0.1886  0.3551 -0.0089
   66loPI   C1A 1047   7.193   8.948   9.397  0.1852 -0.1195  0.0508
   66loPI   C2A 1048   7.089   8.930   9.030  0.0732 -0.0641  0.0759
   66loPI   C3A 1049   6.942   8.867   8.654 -0.3688 -0.0946 -0.1259
   66loPI   C4A 1050   7.108   8.806   8.206  0.3515  0.1560  0.2656
   66loPI   C5A 1051   7.117   8.893   7.854  0.0067 -0.1027 -0.0830
   66loPI   C6A 1052   7.144   9.145   7.547 -0.0340 -0.2488 -0.1267
   66loPI   C1B 1053   7.713   8.433   9.274  0.1298 -0.1777  0.1347
   66loPI   C2B 1054   7.662   8.364   8.879 -0.1838 -0.1415  0.1336
   66loPI   C3B 1055   7.895   8.179   8.603 -0.2217 -0.1988  0.1859
   66loPI   C4B 1056   7.969   8.224   8.195  0.1593  0.0122  0.0717
   67loPI    C1 1057  16.124   6.192  10.700 -0.2327 -0.2713 -0.2202
   67loPI    C2 1058  16.161   5.888  10.957 -0.1673 -0.0186  0.0754
   67loPI    C3 1059  16.447   6.168  10.935 -0.1961 -0.0098 -0.2401
   67loPI   PO4 1060  15.970   6.088  10.493  0.0993  0.1149  0.2288
   67loPI   GL1 1061  16.006   6.123  10.117  0.0875 -0.1827  0.4023
   67loPI   GL2 1062  16.242   6.057   9.965  0.3450 -0.2361 -0.2002
   67loPI   C1A 1063  15.762   6.076   9.701  0.2718 -0.1281 -0.0272
   67loPI   C2A 1064  15.767   6.278   9.271 -0.2042  0.2939  0.0529
   67loPI   C3A 1065  15.927   6.158   8.893 -0.0724  0.0904  0.1065
   67loPI   C4A 1066  15.918   6.238   8.393  0.1521  0.1537  0.2865
   67loPI   C5A 1067  16.103   6.192   8.060  0.0012 -0.0470  0.4534
   67loPI   C6A 1068  16.486   6.206   7.903 -0.1099  0.5515  0.0745
   67loPI   C1B 1069  16.203   5.830   9.711 -0.0351 -0.0346 -0.2020
   67loPI   C2B 1070  16.467   5.995   9.374  0.2648  0.2139  0.3075
   67loPI   C3B 1071  16.441   6.016   8.898 -0.0453  0.0727 -0.3358
   67loPI   C4B 1072  16.405   6.086   8.474 -0.1459  0.1624 -0.1760
   68loPI    C1 1073  10.266  16.007  10.494  0.0847 -0.0322 -0.0481
   68loPI    C2 1074  10.429  15.842  10.819  0.0957  0.1773  0.0546
   68loPI    C3 1075  10.034  15.823  10.761  0.1300 -0.1569 -0.0941
   68loPI   PO4 1076  10.515  15.952  10.343  0.1966 -0.2368 -0.0084
   68loPI   GL1 1077  10.717  16.115   9.902  0.1876 -0.1710  0.0963
   68loPI   GL2 1078  10.863  15.987   9.666 -0.0787 -0.0682  0.0859
   68loPI   C1A 1079  10.463  16.262   9.537  0.3026 -0.1410  0.1616
   68loPI   C2A 1080  10.459  16.218   9.181 -0.3829  0.1692  0.0708
   68loPI   C3A 1081  10.236  16.100   8.918  0.0355  0.2195 -0.0615
   68loPI   C4A 1082  10.229  15.864   8.642 -0.2346 -0.0733  0.0673
   68loPI   C5A 1083  10.345  15.542   8.286  0.0235 -0.1226 -0.1071
   68loPI   C6A 1084  10.521  15.380   7.937 -0.1041  0.2102 -0.1513
   68loPI   C1B 1085  11.058  15.862   9.308 -0.0145 -0.0221 -0.2455
   68loPI   C2B 1086  11.212  15.796   8.994  0.1238  0.2866  0.1525
   68loPI   C3B 1087  11.287  15.866   8.567  0.0611 -0.0298  0.1549
   68loPI   C4B 1088  11.212  16.140   8.246 -0.0603 -0.2070 -0.1841
   69loPI    C1 1089  17.109   6.875  10.758 -0.1101 -0.0037  0.0087
   69loPI    C2 1090  17.328   6.852  11.093  0.0692  0.0371 -0.1046
   69loPI    C3 1091  16.957   7.002  11.106  0.0588 -0.0034  0.0833
   69loPI   PO4 1092  17.254   6.981  10.541 -0.0183  0.0149 -0.0448
   69loPI   GL1 1093  17.082   7.054  10.185 -0.1016 -0.0647  0.1221
   69loPI   GL2 1094  17.394   7.308  10.013 -0.0321  0.2612 -0.2668
   69loPI   C1A 1095  16.694   7.020   9.879  0.1954  0.0402 -0.0957
   69loPI   C2A 1096  16.737   6.827   9.609  0.2490  0.1125  0.1763
   69loPI   C3A 1097  16.751   6.803   9.136  0.0126 -0.1009 -0.1212
   69loPI   C4A 1098  16.709   6.877   8.623 -0.1603 -0.0453  0.1103
   69loPI   C5A 1099  16.738   7.101   8.211 -0.0032 -0.0780  0.0576
   69loPI   C6A 1100  16.653   7.018   7.803  0.0643 -0.0258  0.1057
   69loPI   C1B 1101  17.234   7.096   9.629 -0.0197  0.2929 -0.1092
   69loPI   C2B 1102  17.234   6.712   9.323  0.1543  0.0242  0.2488
   69loPI   C3B 1103  17.192   6.599   8.906  0.1787  0.0531 -0.2294
   69loPI   C4B 1104  17.192   6.685   8.414  0.1385  0.0027  0.0424
   70loPI    C1 1105  14.844  15.733  11.042 -0.0142  0.3639  0.1059
   70loPI    C2 1106  14.571  15.873  11.299 -0.1061  0.0457  0.1861
   70loPI    C3 1107  14.873  15.645  11.431 -0.1021 -0.0437  0.0256
   70loPI   PO4 1108  14.834  16.001  10.838 -0.0612  0.3075 -0.1926
   70loPI   GL1 1109  15.012  15.918  10.389 -0.0970 -0.0255  0.0199
   70loPI   GL2 1110  15.168  16.098  10.498  0.0038  0.1327  0.0926
   70loPI   C1A 1111  15.211  15.907   9.982 -0.0376  0.0195  0.4629
   70loPI   C2A 1112  15.494  16.088   9.810 -0.0516 -0.1190 -0.1270
   70loPI   C3A 1113  15.629  16.201   9.395  0.0876  0.1616 -0.0236
   70loPI   C4A 1114  15.687  16.014   8.991 -0.0689  0.0856  0.3049
   70loPI   C5A 1115  15.797  16.213   8.545  0.1252 -0.1871  0.2211
   70loPI   C6A 1116  15.832  16.322   8.153 -0.2793 -0.0042 -0.1620
   70loPI   C1B 1117  15.266  16.379  10.192  0.1620 -0.1393  0.2400
   70loPI   C2B 1118  15.245  16.479   9.773 -0.0685  0.2766 -0.1019
   70loPI   C3B 1119  15.148  16.442   9.325 -0.0835 -0.0289  0.0139
   70loPI   C4B 1120  15.300  16.386   8.932  0.4647 -0.1520 -0.0052
   71loPI    C1 1121  14.470  12.447  10.790 -0.0296  0.1277 -0.1131
   71loPI    C2 1122  14.359  12.802  10.937  0.0336 -0.0070  0.2729
   71loPI    C3 1123  14.138  12.477  11.011 -0.1256 -0.0231 -0.2355
   71loPI   PO4 1124  14.514  12.462  10.550  0.3875 -0.0480 -0.0324
   71loPI   GL1 1125  14.509  12.427  10.186  0.0481 -0.1358  0.0438
   71loPI   GL2 1126  14.314  12.437  10.020  0.0045  0.1431  0.1469
   71loPI   C1A 1127  14.862  12.261   9.888 -0.3929  0.1192 -0.1764
   71loPI   C2A 1128  15.109  12.139   9.430  0.2537  0.2605 -0.1642
   71loPI   C3A 1129  15.179  12.478   9.072  0.3154  0.1446  0.0805
   71loPI   C4A 1130  15.273  12.883   8.864  0.1076 -0.1320 -0.2069
   71loPI   C5A 1131  15.392  13.124   8.441  0.0110 -0.2461 -0.0168
   71loPI   C6A 1132  15.159  13.502   8.503 -0.2033  0.0322  0.1439
   71loPI   C1B 1133  14.613  12.871   9.997  0.0437  0.2710  0.0512
   71loPI   C2B 1134  14.989  13.058   9.792  0.1518 -0.1338  0.1609
   71loPI   C3B 1135  15.068  13.057   9.321 -0.2287 -0.2761 -0.0880
   71loPI   C4B 1136  14.747  12.855   9.041  0.2552  0.1728  0.0422
   72loPI    C1 1137   2.405   3.766   9.995  0.2494  0.0289 -0.0449
   72loPI    C2 1138   2.656   3.713  10.302  0.0360  0.1142  0.1469
   72loPI    C3 1139   2.800   3.788   9.937  0.2904  0.0825  0.2388
   72loPI   PO4 1140   2.195   3.855  10.092  0.0103 -0.0527 -0.0419
   72loPI   GL1 1141   1.927   3.900   9.759 -0.2402 -0.0546  0.1807
   72loPI   GL2 1142   2.121   3.699   9.554 -0.0895  0.0868  0.0164
   72loPI   C1A 1143   1.816   4.112   9.345 -0.1945 -0.1357  0.2829
   72loPI   C2A 1144   1.655   3.922   8.948 -0.2874  0.1201 -0.1211
   72loPI   C3A 1145   1.628   3.731   8.496 -0.2011 -0.2174 -0.2926
   72loPI   C4A 1146   1.753   3.593   8.111  0.1374 -0.3767  0.3560
   72loPI   C5A 1147   1.970   3.254   7.914 -0.1935 -0.2295  0.0673
   72loPI   C6A 1148   2.245   2.907   7.861 -0.0581  0.1510 -0.3266
   72loPI   C1B 1149   2.083   3.772   9.118  0.1125  0.0284 -0.1453
   72loPI   C2B 1150   2.368   3.992   8.911  0.1360  0.5413  0.1465
   72loPI   C3B 1151   2.535   4.011   8.371 -0.1501 -0.1402 -0.0256
   72loPI   C4B 1152   2.639   4.194   7.965  0.2716 -0.0296 -0.1125
   73loPI    C1 1153   2.272   0.485  10.407  0.2561 -0.0355  0.2060
   73loPI    C2 1154   2.116   0.144  10.548 -0.0946 -0.0443 -0.1838
   73loPI    C3 1155   2.172   0.456  10.794 -0.1351 -0.2516  0.0934
   73loPI   PO4 1156   2.165   0.524  10.152 -0.0736 -0.1018  0.1854
   73loPI   GL1 1157   2.161   0.737   9.750  0.0349 -0.0444  0.1263
   73loPI   GL2 1158   1.896   0.974   9.653  0.0272  0.2039  0.1174
   73loPI   C1A 1159   2.003   0.614   9.302 -0.1031 -0.2724 -0.1229
   73loPI   C2A 1160   2.125   0.608   8.844  0.0224 -0.2208 -0.2608
   73loPI   C3A 1161   2.200   0.284   8.604  0.3964 -0.1579  0.0460
   73loPI   C4A 1162   2.062  -0.059   8.266 -0.0606  0.1464 -0.1302
   73loPI   C5A 1163   1.793  -0.449   8.245 -0.1294  0.3261 -0.2100
   73loPI   C6A 1164   1.516  -0.780   8.427 -0.0063  0.3134 -0.0649
   73loPI   C1B 1165   2.089   1.103   9.307 -0.0594  0.0946 -0.0212
   73loPI   C2B 1166   2.058   1.079   8.946 -0.1771  0.0661  0.2774
   73loPI   C3B 1167   1.868   0.998   8.629 -0.0100  0.6146 -0.0053
   73loPI   C4B 1168   1.695   1.057   8.225 -0.2153  0.0975 -0.2333
   74loPI    C1 1169   5.635   3.363  10.699 -0.0322 -0.0618  0.2024
   74loPI    C2 1170   5.513   3.649  10.447  0.1599 -0.0786  0.0887
   74loPI    C3 1171   5.483   3.705  10.842 -0.1803 -0.0686  0.0647
   74loPI   PO4 1172   5.680   3.187  10.503 -0.0526 -0.2913 -0.0558
   74loPI   GL1 1173   5.873   3.053  10.161  0.2382  0.0193 -0.1500
   74loPI   GL2 1174   5.822   3.402  10.060  0.1178  0.1631  0.2672
   74loPI   C1A 1175   6.149   3.091   9.816 -0.0193 -0.2115  0.3724
   74loPI   C2A 1176   6.237   3.043   9.384  0.1872  0.4178  0.1866
   74loPI   C3A 1177   6.184   3.016   8.967  0.0841  0.0550  0.0493
   74loPI   C4A 1178   6.307   3.209   8.529  0.0014 -0.0624  0.1007
   74loPI   C5A 1179   6.277   3.568   8.143  0.0079  0.0115 -0.0766
   74loPI   C6A 1180   5.913   3.795   7.978  0.0801 -0.0310 -0.0441
   74loPI   C1B 1181   5.738   3.300   9.667 -0.0014  0.0739 -0.0001
   74loPI   C2B 1182   5.758   3.266   9.216  0.1422  0.4545 -0.1726
   74loPI   C3B 1183   5.854   3.318   8.737 -0.0648 -0.0125 -0.1027
   74loPI   C4B 1184   5.886   3.578   8.395 -0.1195 -0.0857 -0.4619
   75loPI    C1 1185   3.713   8.810  10.046 -0.3616 -0.2097  0.0414
   75loPI    C2 1186   3.838   8.686  10.406  0.0091 -0.1612 -0.0663
   75loPI    C3 1187   3.502   8.536  10.248 -0.0725 -0.2980  0.2303
   75loPI   PO4 1188   3.854   9.057  10.032 -0.2505  0.1522 -0.2782
   75loPI   GL1 1189   3.678   9.322   9.763  0.2345 -0.0275  0.1744
   75loPI   GL2 1190   3.522   9.088   9.608  0.1803 -0.2587  0.1570
   75loPI   C1A 1191   3.895   9.317   9.343  0.0710 -0.1137 -0.1364
   75loPI   C2A 1192   3.909   9.247   8.944  0.0370  0.1609  0.1166
   75loPI   C3A 1193   4.106   9.373   8.585 -0.1198 -0.2548 -0.1389
   75loPI   C4A 1194   4.166   9.399   8.141  0.0718 -0.1846 -0.0478
   75loPI   C5A 1195   4.511   9.329   7.791 -0.1290 -0.1861 -0.1613
   75loPI   C6A 1196   4.991   9.264   7.735  0.3472  0.1071  0.0475
   75loPI   C1B 1197   3.399   9.051   9.229  0.2945 -0.1314 -0.4017
   75loPI   C2B 1198   3.430   9.101   8.706  0.0348 -0.0275 -0.0971
   75loPI   C3B 1199   3.650   9.255   8.341  0.2711 -0.2038  0.2240
   75loPI   C4B 1200   3.664   9.383   7.983 -0.2106 -0.2573 -0.0070
   76loPI    C1 1201   8.049   3.215  10.365 -0.0016  0.0925  0.0615
   76loPI    C2 1202   8.181   3.539  10.560 -0.2193  0.3388 -0.1908
   76loPI    C3 1203   8.320   3.455  10.194 -0.1220  0.1125 -0.1039
   76loPI   PO4 1204   7.801   3.193  10.335  0.1874 -0.3140 -0.0293
   76loPI   GL1 1205   7.601   3.340   9.995  0.0080 -0.2282  0.0258
   76loPI   GL2 1206   7.876   3.371   9.882  0.1030  0.0019  0.0531
   76loPI   C1A 1207   7.550   3.370   9.506 -0.2662 -0.1017 -0.0795
   76loPI   C2A 1208   7.732   3.390   9.105 -0.2532 -0.0130 -0.0051
   76loPI   C3A 1209   7.779   3.674   8.783  0.1497 -0.0972  0.3286
   76loPI   C4A 1210   7.611   3.911   8.448  0.0191 -0.4578  0.1601
   76loPI   C5A 1211   7.203   4.037   8.154 -0.0105 -0.0718  0.0239
   76loPI   C6A 1212   6.798   3.837   8.174  0.0857  0.1158  0.0800
   76loPI   C1B 1213   8.137   3.499   9.533 -0.0364 -0.0332 -0.2376
   76loPI   C2B 1214   8.296   3.536   9.077 -0.2301  0.2286 -0.0643
   76loPI   C3B 1215   8.253   3.654   8.730 -0.1467 -0.0428 -0.3256
   76loPI   C4B 1216   7.984   3.682   8.277  0.0569  0.0997  0.1953
   77loPI    C1 1217   4.439   9.785  10.370 -0.2057 -0.2134 -0.0927
   77loPI    C2 1218   4.330   9.522  10.650 -0.0573 -0.0462  0.1256
   77loPI    C3 1219   4.107   9.847  10.584 -0.0913 -0.0847  0.0500
   77loPI   PO4 1220   4.481   9.648  10.171  0.3178  0.0188  0.0291
   77loPI   GL1 1221   4.589   9.745   9.782 -0.0908  0.4435  0.1070
   77loPI   GL2 1222   4.717   9.924   9.628 -0.0857 -0.0275 -0.1646
   77loPI   C1A 1223   4.462   9.471   9.431  0.0458  0.0388 -0.0103
   77loPI   C2A 1224   4.396   9.468   9.039 -0.0423 -0.1933 -0.2011
   77loPI   C3A 1225   4.685   9.450   8.604  0.0338 -0.1355 -0.2808
   77loPI   C4A 1226   4.815   9.489   8.267  0.1902 -0.0977  0.0939
   77loPI   C5A 1227   4.796   9.871   7.900  0.0692 -0.1115  0.1353
   77loPI   C6A 1228   4.651  10.319   7.949 -0.0100  0.1964  0.4019
   77loPI   C1B 1229   4.574   9.921   9.137 -0.1098  0.0196  0.0980
   77loPI   C2B 1230   4.488   9.898   8.744  0.0245 -0.1073  0.1146
   77loPI   C3B 1231   4.370   9.888   8.282 -0.0743 -0.0382  0.1123
   77loPI   C4B 1232   4.326   9.843   7.856 -0.1063  0.0903  0.0557
   78loPI    C1 1233   8.044   9.999  10.080  0.0791 -0.0232  0.0757
   78loPI    C2 1234   8.019   9.722  10.368 -0.0151 -0.0109  0.0796
   78loPI    C3 1235   8.262  10.036  10.413  0.2428 -0.1945 -0.0109
   78loPI   PO4 1236   8.095   9.863   9.857 -0.1306 -0.3064  0.1043
   78loPI   GL1 1237   8.021   9.551   9.517 -0.0551  0.4217 -0.2082
   78loPI   GL2 1238   8.305   9.667   9.471  0.1085  0.0176 -0.0516
   78loPI   C1A 1239   7.836   9.583   9.144 -0.2426 -0.0047 -0.0615
   78loPI   C2A 1240   7.726   9.693   8.716  0.0567  0.0076 -0.0493
   78loPI   C3A 1241   7.670   9.872   8.395 -0.0169 -0.2328 -0.2956
   78loPI   C4A 1242   7.663  10.041   7.970 -0.0359 -0.2496 -0.0516
   78loPI   C5A 1243   7.603   9.824   7.673 -0.0391  0.0750 -0.0218
   78loPI   C6A 1244   7.945   9.718   7.414 -0.0869 -0.2230 -0.5630
   78loPI   C1B 1245   8.402   9.582   9.046 -0.2611  0.2157  0.2740
   78loPI   C2B 1246   8.365   9.660   8.622  0.1311  0.0258 -0.1832
   78loPI   C3B 1247   8.533   9.860   8.332  0.2389  0.0290  0.0879
   78loPI   C4B 1248   8.673   9.864   8.047  0.4252  0.0361  0.1951
   79loPI    C1 1249   3.064  14.707  10.579 -0.0845  0.0562 -0.1233
   79loPI    C2 1250   3.320  14.834  10.299 -0.0367  0.0870 -0.0659
   79loPI    C3 1251   3.457  14.658  10.631 -0.1034 -0.1355 -0.1543
   79loPI   PO4 1252   2.855  14.556  10.468  0.0610 -0.0040  0.1675
   79loPI   GL1 1253   2.679  14.530  10.097 -0.1165 -0.4693 -0.0641
   79loPI   GL2 1254   2.736  14.322   9.905  0.1107  0.0305 -0.1615
   79loPI   C1A 1255   3.042  14.762   9.845  0.1177 -0.3535  0.0476
   79loPI   C2A 1256   3.089  15.011   9.524 -0.0328  0.1306 -0.0097
   79loPI   C3A 1257   3.025  15.292   9.059  0.0321  0.2021  0.4498
   79loPI   C4A 1258   2.884  15.511   8.599 -0.0273  0.4070  0.0310
   79loPI   C5A 1259   2.676  15.514   8.158  0.0365 -0.0670 -0.1590
   79loPI   C6A 1260   2.511  15.494   7.793  0.0674 -0.0739  0.0980
   79loPI   C1B 1261   2.756  14.389   9.410  0.0298 -0.0464  0.2260
   79loPI   C2B 1262   2.649  14.349   9.010  0.1113  0.2809 -0.2072
   79loPI   C3B 1263   2.621  14.355   8.518 -0.0304 -0.2302  0.1036
   79loPI   C4B 1264   2.784  14.185   8.074  0.1110  0.3786 -0.0715
   80loPI    C1 1265   7.764   0.465  10.674  0.1296 -0.1572  0.0301
   80loPI    C2 1266   8.089   0.273  10.806  0.0561 -0.2133  0.1308
   80loPI    C3 1267   7.748   0.073  10.749  0.1231 -0.2188 -0.2817
   80loPI   PO4 1268   7.870   0.616  10.397 -0.0833 -0.2855  0.0095
   80loPI   GL1 1269   8.205   0.830  10.148  0.1603  0.1624  0.0828
   80loPI   GL2 1270   8.415   0.618   9.920 -0.1074 -0.2774  0.1165
   80loPI   C1A 1271   7.986   0.899   9.835 -0.1386  0.3787 -0.2571
   80loPI   C2A 1272   7.890   0.914   9.478  0.0686 -0.1190 -0.4156
   80loPI   C3A 1273   8.014   0.847   9.155  0.1044 -0.3189 -0.0306
   80loPI   C4A 1274   8.143   0.910   8.704  0.2311 -0.0874 -0.0265
   80loPI   C5A 1275   8.053   1.104   8.384 -0.0346  0.2549  0.0475
   80loPI   C6A 1276   7.474   1.084   8.437 -0.2259  0.0343  0.0806
   80loPI   C1B 1277   8.376   0.623   9.501  0.2682  0.1943 -0.0516
   80loPI   C2B 1278   8.410   0.530   9.057  0.1713 -0.0970 -0.0218
   80loPI   C3B 1279   8.238   0.403   8.712 -0.0557  0.1991  0.3404
   80loPI   C4B 1280   8.164   0.489   8.300  0.0014  0.0078 -0.2369
   81loPI    C1 1281   1.014  15.100  10.762 -0.2276  0.2483  0.1924
   81loPI    C2 1282   1.381  15.109  10.922 -0.0758 -0.3395 -0.0951
   81loPI    C3 1283   1.071  14.981  11.139 -0.0734 -0.0688  0.0726
   81loPI   PO4 1284   1.039  15.394  10.575  0.1648 -0.1989 -0.1466
   81loPI   GL1 1285   1.238  15.658  10.354  0.0066 -0.3299  0.0900
   81loPI   GL2 1286   1.216  15.353  10.108  0.0242 -0.0141 -0.3087
   81loPI   C1A 1287   1.366  15.736   9.892  0.0213  0.0916  0.0358
   81loPI   C2A 1288   1.613  15.735   9.512  0.2919  0.0340 -0.0893
   81loPI   C3A 1289   1.694  15.889   9.087  0.0495  0.4644 -0.0726
   81loPI   C4A 1290   1.903  15.971   8.588  0.1429 -0.1774  0.2291
   81loPI   C5A 1291   1.527  15.919   8.381 -0.0126  0.1238 -0.0990
   81loPI   C6A 1292   1.239  15.937   8.016  0.2542  0.0032  0.0778
   81loPI   C1B 1293   1.259  15.155   9.689  0.1329 -0.1885 -0.0564
   81loPI   C2B 1294   1.186  15.097   9.296 -0.1581 -0.1014  0.1405
   81loPI   C3B 1295   1.324  15.149   8.900 -0.0435 -0.0692  0.0389
   81loPI   C4B 1296   1.463  14.921   8.621  0.0994  0.3169  0.0445
   82loPI    C1 1297  16.580   8.873  10.400 -0.0119 -0.0009 -0.1006
   82loPI    C2 1298  16.426   8.895  10.768 -0.0986  0.0095 -0.1372
   82loPI    C3 1299  16.399   8.554  10.560 -0.0624  0.0079 -0.1394
   82loPI   PO4 1300  16.483   9.143  10.312 -0.4872  0.0666  0.0922
   82loPI   GL1 1301  16.178   9.157   9.975 -0.0003 -0.0451 -0.0002
   82loPI   GL2 1302  15.976   9.397   9.907  0.2317 -0.0260  0.1368
   82loPI   C1A 1303  15.858   9.171   9.530  0.0965  0.0226  0.1380
   82loPI   C2A 1304  15.875   9.173   9.044 -0.0011  0.0284  0.3206
   82loPI   C3A 1305  15.882   9.150   8.556 -0.1641 -0.3041  0.0994
   82loPI   C4A 1306  15.563   9.079   8.320  0.1050  0.1049  0.5317
   82loPI   C5A 1307  15.069   9.112   8.358  0.0237  0.0190  0.0178
   82loPI   C6A 1308  14.886   8.752   8.537  0.3523 -0.0966  0.2221
   82loPI   C1B 1309  16.312   9.467   9.612  0.0181 -0.0098 -0.2058
   82loPI   C2B 1310  16.325   9.695   9.342 -0.1458  0.0001  0.1434
   82loPI   C3B 1311  16.342   9.810   9.011  0.3630  0.0713 -0.2908
   82loPI   C4B 1312  16.516   9.753   8.551  0.2660  0.1045  0.0704
   83loPI    C1 1313  17.992   8.476  10.547 -0.0724 -0.0642 -0.0053
   83loPI    C2 1314  18.155   8.130  10.665 -0.2003 -0.1247 -0.0044
   83loPI    C3 1315  18.138   8.440  10.917  0.2989  0.0212 -0.1389
   83loPI   PO4 1316  18.081   8.552  10.275  0.1228  0.0495  0.2638
   83loPI   GL1 1317  17.828   8.402   9.910 -0.4022 -0.3426 -0.0111
   83loPI   GL2 1318  18.091   8.343   9.764 -0.0967  0.1480 -0.0627
   83loPI   C1A 1319  17.691   8.558   9.447  0.0150  0.2989 -0.0587
   83loPI   C2A 1320  17.811   8.416   9.070  0.1414 -0.0588 -0.0047
   83loPI   C3A 1321  17.761   8.246   8.651 -0.1449  0.1703 -0.3063
   83loPI   C4A 1322  17.525   7.923   8.349 -0.1143  0.0325 -0.1672
   83loPI   C5A 1323  17.471   7.493   8.295  0.0873 -0.0658  0.2199
   83loPI   C6A 1324  17.304   7.119   8.090 -0.0212 -0.4293  0.0263
   83loPI   C1B 1325  18.154   8.138   9.411 -0.0757 -0.0567  0.1691
   83loPI   C2B 1326  18.065   7.960   8.949  0.2366  0.0463 -0.2416
   83loPI   C3B 1327  17.856   7.721   8.751  0.1271 -0.4276  0.2159
   83loPI   C4B 1328  17.557   7.374   8.792 -0.1442 -0.0277  0.0336
   84loPI    C1 1329   9.033   8.444  10.389  0.1493 -0.0091  0.0227
   84loPI    C2 1330   8.715   8.586  10.586  0.0247 -0.1483 -0.0762
   84loPI    C3 1331   9.082   8.714  10.680 -0.0587  0.0019  0.0489
   84loPI   PO4 1332   8.936   8.337  10.213 -0.1002  0.1767  0.2587
   84loPI   GL1 1333   8.930   8.329   9.792 -0.1260 -0.4158  0.1344
   84loPI   GL2 1334   8.713   8.117   9.665 -0.0923  0.1924 -0.0137
   84loPI   C1A 1335   9.269   8.254   9.441 -0.2848  0.0474  0.1482
   84loPI   C2A 1336   9.332   8.059   9.130  0.0402 -0.3138  0.1802
   84loPI   C3A 1337   9.482   7.856   8.820 -0.2321  0.0525  0.0709
   84loPI   C4A 1338   9.592   7.749   8.418  0.1205  0.1013  0.2967
   84loPI   C5A 1339   9.606   7.276   8.360 -0.4396 -0.1319  0.2383
   84loPI   C6A 1340   9.773   6.886   8.405  0.3354 -0.1328  0.0969
   84loPI   C1B 1341   8.835   8.159   9.127  0.2202 -0.0696 -0.2041
   84loPI   C2B 1342   8.951   8.101   8.793  0.2458 -0.1361 -0.0830
   84loPI   C3B 1343   8.880   8.283   8.414  0.1321 -0.2302 -0.1094
   84loPI   C4B 1344   8.924   8.111   8.116  0.3925 -0.0873  0.0268
   85loPI    C1 1345  13.470   1.128  10.871  0.2095 -0.0248  0.1429
   85loPI    C2 1346  13.627   1.131  11.239 -0.1203 -0.1400  0.2884
   85loPI    C3 1347  13.285   0.935  11.169 -0.1037 -0.0496 -0.0630
   85loPI   PO4 1348  13.439   1.312  10.766 -0.3333  0.0721 -0.0033
   85loPI   GL1 1349  13.424   1.528  10.357  0.2476 -0.1063 -0.0872
   85loPI   GL2 1350  13.372   1.197  10.269 -0.0337 -0.0916 -0.1044
   85loPI   C1A 1351  13.248   1.805  10.075 -0.0729  0.0320  0.2070
   85loPI   C2A 1352  13.293   1.861   9.608 -0.1096  0.2927  0.0629
   85loPI   C3A 1353  13.188   1.760   9.231 -0.2764 -0.0086  0.0410
   85loPI   C4A 1354  13.317   1.955   8.903  0.0114  0.0453  0.2084
   85loPI   C5A 1355  13.017   2.139   8.613 -0.0044  0.2252 -0.0438
   85loPI   C6A 1356  12.826   2.144   8.239 -0.1920  0.0398  0.1728
   85loPI   C1B 1357  13.536   0.885  10.030  0.0043 -0.1323  0.1084
   85loPI   C2B 1358  13.708   0.888   9.578 -0.3546 -0.1687 -0.0684
   85loPI   C3B 1359  13.614   0.814   9.173  0.1031  0.2585 -0.0982
   85loPI   C4B 1360  13.607   0.960   8.773 -0.0123 -0.0684 -0.2577
   86loPI    C1 1361   1.370  17.358  10.671 -0.2389 -0.1447  0.1112
   86loPI    C2 1362   1.342  17.757  10.681  0.1013 -0.1105 -0.1182
   86loPI    C3 1363   1.065  17.542  10.488  0.0304  0.0293 -0.1736
   86loPI   PO4 1364   1.691  17.316  10.573 -0.1317  0.3313  0.0274
   86loPI   GL1 1365   1.837  17.230  10.086  0.1189 -0.0538  0.0705
   86loPI   GL2 1366   2.130  17.046  10.005 -0.0906 -0.1013  0.0264
   86loPI   C1A 1367   1.464  17.215   9.752  0.1080  0.0110 -0.1360
   86loPI   C2A 1368   1.154  17.026   9.415  0.2028  0.1601  0.1112
   86loPI   C3A 1369   0.955  16.986   8.983  0.1676 -0.0698 -0.0252
   86loPI   C4A 1370   0.889  17.069   8.549 -0.1146 -0.1476  0.0674
   86loPI   C5A 1371   1.126  17.165   8.185 -0.0830 -0.0651 -0.0689
   86loPI   C6A 1372   1.545  17.251   7.908  0.0151 -0.1577 -0.0595
   86loPI   C1B 1373   2.081  16.998   9.591  0.1492  0.1404  0.0040
   86loPI   C2B 1374   1.963  16.897   9.137  0.0668 -0.2264 -0.0573
   86loPI   C3B 1375   1.833  17.017   8.708  0.0174  0.0003  0.1172
   86loPI   C4B 1376   1.937  17.225   8.281  0.1272 -0.1186 -0.0979
   87loPI    C1 1377   6.573  16.746   9.928  0.0543 -0.1992 -0.0478
   87loPI    C2 1378   6.585  16.592  10.296  0.2130  0.1579  0.1014
   87loPI    C3 1379   6.235  16.630  10.108  0.1040  0.1812  0.3059
   87loPI   PO4 1380   6.753  16.720   9.822 -0.0374  0.0734 -0.3829
   87loPI   GL1 1381   6.863  16.437   9.497 -0.2731 -0.3805  0.0407
   87loPI   GL2 1382   7.094  16.611   9.507 -0.1821  0.1656 -0.1775
   87loPI   C1A 1383   6.916  16.247   9.150 -0.0683  0.0489 -0.1421
   87loPI   C2A 1384   6.984  16.361   8.688 -0.2169 -0.0971 -0.0229
   87loPI   C3A 1385   6.978  16.344   8.227  0.0392  0.1062 -0.0923
   87loPI   C4A 1386   6.833  16.318   7.814 -0.2411  0.0752  0.0303
   87loPI   C5A 1387   6.447  16.060   7.658 -0.1750  0.0281  0.0360
   87loPI   C6A 1388   6.117  16.103   7.317  0.2071  0.0560 -0.1591
   87loPI   C1B 1389   7.175  16.701   9.058 -0.0984 -0.1282 -0.0927
   87loPI   C2B 1390   7.199  16.812   8.636 -0.1377 -0.1320 -0.1484
   87loPI   C3B 1391   6.975  16.896   8.255 -0.0963 -0.0391 -0.0819
   87loPI   C4B 1392   6.922  16.824   7.891 -0.0253  0.3762  0.2353
   88loPI    C1 1393  16.241  16.195  10.851  0.0363 -0.2877  0.3615
   88loPI    C2 1394  16.393  16.527  11.016 -0.0616  0.0217 -0.1485
   88loPI    C3 1395  16.611  16.192  11.002  0.1786  0.1676  0.0430
   88loPI   PO4 1396  16.142  16.399  10.579 -0.0324 -0.1040  0.0452
   88loPI   GL1 1397  16.229  16.515  10.232  0.0709  0.0095 -0.0918
   88loPI   GL2 1398  16.142  16.892  10.140  0.2144  0.0520  0.1954
   88loPI   C1A 1399  16.306  16.402   9.733 -0.0512  0.0634  0.1156
   88loPI   C2A 1400  16.136  16.225   9.434 -0.4239  0.0711 -0.0699
   88loPI   C3A 1401  16.211  16.264   8.916 -0.0272  0.2631 -0.3571
   88loPI   C4A 1402  16.329  16.395   8.570  0.1219  0.2374 -0.3488
   88loPI   C5A 1403  16.551  16.604   8.320 -0.3086 -0.0419 -0.1507
   88loPI   C6A 1404  16.704  16.967   8.259 -0.0692 -0.1634  0.0564
   88loPI   C1B 1405  16.105  16.842   9.779 -0.1613 -0.1673  0.2721
   88loPI   C2B 1406  16.367  16.876   9.450 -0.1668  0.0316 -0.0279
   88loPI   C3B 1407  16.590  16.574   9.209  0.1120 -0.0855  0.0171
   88loPI   C4B 1408  16.737  16.508   8.889  0.0498 -0.0039 -0.0204
   89loPI    C1 1409  11.108   9.284  10.717  0.1464  0.1100  0.0084
   89loPI    C2 1410  10.730   9.376  10.623  0.0452 -0.2868  0.0079
   89loPI    C3 1411  10.990   9.666  10.715 -0.2755 -0.0144  0.0749
   89loPI   PO4 1412  11.200   9.107  10.520 -0.2344  0.0582  0.0662
   89loPI   GL1 1413  11.509   9.002  10.206  0.1121  0.1423 -0.0844
   89loPI   GL2 1414  11.541   8.758  10.249  0.0996  0.1328  0.0716
   89loPI   C1A 1415  11.371   8.994   9.741  0.1163 -0.0608 -0.3704
   89loPI   C2A 1416  11.354   8.859   9.334 -0.0545 -0.2554 -0.1402
   89loPI   C3A 1417  11.386   8.761   8.963 -0.0073  0.0066  0.0611
   89loPI   C4A 1418  11.307   8.635   8.567 -0.0363  0.4097  0.0295
   89loPI   C5A 1419  11.117   8.886   8.327  0.2886 -0.0566 -0.2067
   89loPI   C6A 1420  10.853   9.133   8.326  0.0312  0.1583  0.4047
   89loPI   C1B 1421  11.415   8.531   9.826  0.1873  0.2076 -0.1542
   89loPI   C2B 1422  11.389   8.378   9.406 -0.7427 -0.2130 -0.1552
   89loPI   C3B 1423  11.511   8.195   8.981  0.0343  0.0714  0.0896
   89loPI   C4B 1424  11.473   8.148   8.539  0.1429  0.0759  0.0188
   90loPI    C1 1425   5.566   1.714  10.306 -0.0949  0.1344  0.0894
   90loPI    C2 1426   5.454   1.716   9.922 -0.2161 -0.1645  0.1203
   90loPI    C3 1427   5.187   1.795  10.210 -0.1584 -0.0821  0.1518
   90loPI   PO4 1428   5.764   1.459  10.312  0.0954 -0.1646  0.3136
   90loPI   GL1 1429   5.888   1.216   9.917 -0.0138 -0.0845  0.0261
   90loPI   GL2 1430   5.644   1.234   9.612  0.3136  0.0132 -0.1522
   90loPI   C1A 1431   6.138   1.117   9.537 -0.0163  0.0298 -0.0396
   90loPI   C2A 1432   6.301   1.073   9.140 -0.1002 -0.2088 -0.1755
   90loPI   C3A 1433   6.134   1.049   8.854  0.0719 -0.3876  0.0229
   90loPI   C4A 1434   6.172   1.099   8.427  0.0888 -0.2339  0.0207
   90loPI   C5A 1435   6.082   1.255   8.004 -0.0471 -0.0592 -0.4216
   90loPI   C6A 1436   5.857   1.549   7.706 -0.2193  0.1131  0.0304
   90loPI   C1B 1437   5.425   1.253   9.193 -0.1532  0.3093 -0.1520
   90loPI   C2B 1438   5.330   1.251   8.724 -0.5337  0.0066 -0.2280
   90loPI   C3B 1439   5.212   1.309   8.324  0.0311 -0.1641  0.1305
   90loPI   C4B 1440   5.105   1.089   7.889 -0.0671 -0.1761 -0.1104
   91loPI    C1 1441   5.238   5.433  10.389  0.1104 -0.0810 -0.1084
   91loPI    C2 1442   5.516   5.708  10.476 -0.0927  0.1408 -0.1519
   91loPI    C3 1443   5.172   5.698  10.681 -0.0360 -0.1636 -0.0652
   91loPI   PO4 1444   5.445   5.222  10.282  0.0783 -0.2893 -0.1687
   91loPI   GL1 1445   5.602   4.968   9.995  0.0983 -0.1453 -0.0310
   91loPI   GL2 1446   5.475   4.727   9.823  0.0336  0.1707 -0.4388
   91loPI   C1A 1447   5.604   5.057   9.494 -0.0429 -0.0408  0.0805
   91loPI   C2A 1448   5.785   5.212   9.086  0.0017  0.0246  0.1335
   91loPI   C3A 1449   5.628   5.312   8.670 -0.4090  0.0121 -0.0491
   91loPI   C4A 1450   5.888   5.406   8.255 -0.1199  0.1689  0.0593
   91loPI   C5A 1451   5.831   5.792   8.016 -0.3460 -0.2804  0.0991
   91loPI   C6A 1452   5.749   6.188   7.833 -0.0739  0.1826  0.0322
   91loPI   C1B 1453   5.340   4.671   9.379 -0.0785  0.0610  0.2010
   91loPI   C2B 1454   5.524   4.767   9.045  0.3113 -0.1862 -0.0654
   91loPI   C3B 1455   5.322   4.884   8.564 -0.2275  0.2808 -0.1410
   91loPI   C4B 1456   5.377   4.954   8.215  0.3074 -0.2578  0.0461
   92loPI    C1 1457  12.043  11.751  10.751 -0.0867 -0.0841  0.2488
   92loPI    C2 1458  12.333  11.721  11.025  0.1006  0.0770  0.0718
   92loPI    C3 1459  12.212  12.081  10.901  0.0868  0.0040 -0.1302
   92loPI   PO4 1460  12.109  11.583  10.542 -0.0335  0.0858 -0.0731
   92loPI   GL1 1461  12.381  11.423  10.247  0.2974  0.0557  0.0858
   92loPI   GL2 1462  12.308  11.216   9.994  0.0826  0.0017 -0.2504
   92loPI   C1A 1463  12.525  11.670   9.877  0.0467  0.1107 -0.2169
   92loPI   C2A 1464  12.520  11.859   9.425  0.1116 -0.3230 -0.0389
   92loPI   C3A 1465  12.686  11.898   8.989  0.1039  0.1661 -0.0333
   92loPI   C4A 1466  12.401  11.535   8.838 -0.1782 -0.0495 -0.2176
   92loPI   C5A 1467  12.291  11.374   8.414  0.2839 -0.0822  0.1127
   92loPI   C6A 1468  11.963  11.590   8.108  0.1164 -0.0199  0.4552
   92loPI   C1B 1469  12.375  11.271   9.613 -0.0634 -0.0324  0.0957
   92loPI   C2B 1470  12.197  11.180   9.156 -0.1246 -0.1148 -0.0743
   92loPI   C3B 1471  12.323  11.069   8.783  0.1685  0.3147 -0.2456
   92loPI   C4B 1472  12.652  11.070   8.550  0.1106 -0.1029  0.0069
   93loPI    C1 1473   5.822  10.658  10.004 -0.1786  0.3811  0.1134
   93loPI    C2 1474   5.637  10.324   9.885 -0.0661  0.3367  0.0621
   93loPI    C3 1475   5.631  10.429  10.271  0.2639  0.0444  0.1516
   93loPI   PO4 1476   5.834  10.877   9.889 -0.2341 -0.0769 -0.0178
   93loPI   GL1 1477   6.014  10.995   9.554 -0.0212 -0.3423  0.0366
   93loPI   GL2 1478   6.340  10.983   9.548 -0.0694 -0.1044 -0.1020
   93loPI   C1A 1479   5.885  11.233   9.269  0.3288  0.1128  0.0910
   93loPI   C2A 1480   5.882  11.305   8.883  0.3462  0.0088 -0.2062
   93loPI   C3A 1481   5.967  11.334   8.431 -0.3361 -0.1000 -0.1041
   93loPI   C4A 1482   5.692  11.331   8.091  0.0047 -0.2696 -0.2265
   93loPI   C5A 1483   5.483  11.441   7.669  0.1298 -0.0015  0.1856
   93loPI   C6A 1484   5.256  11.175   7.453  0.2096  0.0280  0.1448
   93loPI   C1B 1485   6.406  11.266   9.191  0.2332 -0.1726  0.0291
   93loPI   C2B 1486   6.373  11.234   8.812 -0.2242  0.1726  0.0696
   93loPI   C3B 1487   6.384  11.188   8.359 -0.2126  0.4013  0.0037
   93loPI   C4B 1488   6.647  11.149   8.044 -0.1346 -0.0817 -0.2978
   94loPI    C1 1489  15.273   0.306  10.798  0.1138  0.0021  0.0583
   94loPI    C2 1490  15.476   0.345  11.140  0.0499 -0.0654  0.1041
   94loPI    C3 1491  15.599   0.084  10.863 -0.0633 -0.2206  0.1987
   94loPI   PO4 1492  15.296   0.503  10.646  0.1069 -0.1335  0.0908
   94loPI   GL1 1493  15.397   0.461  10.125 -0.0590 -0.1459 -0.2219
   94loPI   GL2 1494  15.252   0.756  10.179 -0.1963  0.3677 -0.1030
   94loPI   C1A 1495  15.465   0.310   9.702  0.4153  0.0251 -0.1980
   94loPI   C2A 1496  15.549   0.414   9.352  0.2217  0.0454 -0.1489
   94loPI   C3A 1497  15.478   0.200   8.974  0.2582 -0.1893  0.0983
   94loPI   C4A 1498  15.239  -0.000   8.689 -0.0149 -0.2602 -0.1017
   94loPI   C5A 1499  14.963  -0.303   8.507  0.0013  0.1936  0.0485
   94loPI   C6A 1500  14.627  -0.632   8.499 -0.0484 -0.0769 -0.3638
   94loPI   C1B 1501  15.434   0.802   9.756  0.0662  0.0210 -0.2206
   94loPI   C2B 1502  15.466   0.902   9.221 -0.1066 -0.0679  0.0365
   94loPI   C3B 1503  15.576   0.688   8.831  0.0554  0.3450  0.0083
   94loPI   C4B 1504  15.785   0.315   8.610  0.1126  0.0492  0.0978
   95loPI    C1 1505   0.127  15.142  10.773  0.1590 -0.0234 -0.1118
   95loPI    C2 1506   0.397  14.971  11.014  0.1979 -0.0953 -0.2056
   95loPI    C3 1507   0.306  15.358  11.058  0.3120 -0.0722 -0.1696
   95loPI   PO4 1508   0.168  14.939  10.513 -0.0911  0.0443 -0.0750
   95loPI   GL1 1509   0.100  14.742  10.171  0.1024 -0.2467 -0.0925
   95loPI   GL2 1510  -0.194  14.904  10.046  0.0668 -0.0272  0.0180
   95loPI   C1A 1511   0.151  15.034   9.769 -0.3264 -0.2267  0.0572
   95loPI   C2A 1512   0.204  14.936   9.355  0.0677 -0.0280  0.0803
   95loPI   C3A 1513   0.015  14.503   9.130  0.0594 -0.0393 -0.3023
   95loPI   C4A 1514  -0.282  14.145   8.953 -0.3770 -0.1774  0.1047
   95loPI   C5A 1515  -0.654  14.155   8.861  0.2125  0.0442  0.0171
   95loPI   C6A 1516  -1.114  14.268   9.064  0.1270 -0.5313 -0.0698
   95loPI   C1B 1517  -0.364  14.858   9.720  0.0469  0.1316 -0.1611
   95loPI   C2B 1518  -0.453  14.944   9.333 -0.0108  0.1476 -0.0552
   95loPI   C3B 1519  -0.605  15.143   8.962 -0.1497 -0.2383 -0.1682
   95loPI   C4B 1520  -0.794  15.182   8.576 -0.0988  0.2865  0.0100
   96loPI    C1 1521  11.390  18.001  10.502  0.1755 -0.0449 -0.1436
   96loPI    C2 1522  11.583  18.057  10.848  0.2929 -0.1640 -0.1889
   96loPI    C3 1523  11.204  18.180  10.808  0.3222 -0.0303 -0.0625
   96loPI   PO4 1524  11.579  18.177  10.248 -0.1330 -0.0101 -0.0918
   96loPI   GL1 1525  11.875  18.165   9.873 -0.0600  0.1952 -0.3304
   96loPI   GL2 1526  11.896  17.900  10.000  0.1783 -0.3001 -0.2273
   96loPI   C1A 1527  12.111  18.097   9.538 -0.3748 -0.2242  0.0082
   96loPI   C2A 1528  12.208  18.070   9.078  0.1497 -0.0326  0.2441
   96loPI   C3A 1529  12.123  17.948   8.773 -0.0290  0.2823 -0.1166
   96loPI   C4A 1530  11.986  17.705   8.395 -0.1410 -0.1773 -0.1002
   96loPI   C5A 1531  11.940  17.454   8.068  0.0365  0.3960  0.1497
   96loPI   C6A 1532  12.091  17.406   7.674  0.1056 -0.2468 -0.1723
   96loPI   C1B 1533  11.775  17.745   9.589  0.0582  0.1479 -0.2143
   96loPI   C2B 1534  11.705  17.944   9.172 -0.0086  0.0840 -0.1489
   96loPI   C3B 1535  11.631  18.115   8.750  0.0178 -0.0976 -0.1157
   96loPI   C4B 1536  11.628  18.088   8.293 -0.0206 -0.0147  0.1276
   97loPI    C1 1537   9.722   2.090  10.517  0.1332  0.0906 -0.1034
   97loPI    C2 1538  10.036   2.258  10.700 -0.0252 -0.0406  0.2990
   97loPI    C3 1539   9.749   2.488  10.541  0.1126  0.0749  0.2156
   97loPI   PO4 1540   9.893   1.806  10.473 -0.0332  0.0087 -0.0928
   97loPI   GL1 1541   9.975   1.679  10.093  0.1267 -0.0558  0.2912
   97loPI   GL2 1542  10.254   1.546  10.078  0.2874 -0.1034  0.0214
   97loPI   C1A 1543   9.718   1.987   9.848  0.3168 -0.1476 -0.3008
   97loPI   C2A 1544   9.416   2.070   9.480 -0.2024 -0.2227 -0.4636
   97loPI   C3A 1545   9.504   2.112   9.033  0.0471 -0.0875  0.1922
   97loPI   C4A 1546   9.574   2.158   8.598 -0.1259 -0.1105  0.0653
   97loPI   C5A 1547   9.546   2.242   8.232  0.0554  0.1462  0.0860
   97loPI   C6A 1548   9.440   2.011   7.911  0.0090  0.1017 -0.1522
   97loPI   C1B 1549  10.394   1.455   9.624  0.0956  0.2936  0.0392
   97loPI   C2B 1550  10.254   1.563   9.259  0.3180 -0.1093 -0.0832
   97loPI   C3B 1551  10.222   1.643   8.818  0.1792  0.2226  0.2086
   97loPI   C4B 1552  10.516   1.432   8.460  0.0070  0.1378  0.0509
   98loPI    C1 1553   8.457   7.799  10.552  0.3570 -0.0701 -0.1386
   98loPI    C2 1554   8.778   8.027  10.623  0.1037  0.2594 -0.0255
   98loPI    C3 1555   8.623   7.803  10.916  0.4789 -0.2344 -0.1913
   98loPI   PO4 1556   8.473   7.629  10.362  0.2186 -0.0517 -0.3398
   98loPI   GL1 1557   8.213   7.272  10.135  0.0876  0.2587 -0.0343
   98loPI   GL2 1558   8.010   7.396   9.782 -0.5837  0.1484 -0.1309
   98loPI   C1A 1559   8.451   7.172   9.765  0.1717  0.0858  0.0262
   98loPI   C2A 1560   8.373   7.162   9.365 -0.1929 -0.0733  0.1873
   98loPI   C3A 1561   8.263   7.217   9.000  0.1622  0.0688  0.0809
   98loPI   C4A 1562   8.075   7.133   8.588 -0.1883 -0.1595 -0.2657
   98loPI   C5A 1563   8.152   7.107   8.143  0.0686  0.0373 -0.0165
   98loPI   C6A 1564   8.083   7.294   7.756  0.3173  0.0759  0.0518
   98loPI   C1B 1565   7.925   7.340   9.351  0.0890 -0.1217 -0.0756
   98loPI   C2B 1566   7.695   7.189   8.981 -0.0232 -0.2261  0.0952
   98loPI   C3B 1567   7.497   6.851   8.653 -0.0347  0.1323  0.2400
   98loPI   C4B 1568   7.461   6.509   8.313 -0.0425  0.1508  0.2005
   99loPI    C1 1569   6.181  17.706  10.033  0.0919 -0.0973 -0.0205
   99loPI    C2 1570   6.164  18.105  10.065 -0.1676 -0.1060 -0.0242
   99loPI    C3 1571   6.135  17.876  10.392  0.0486 -0.1221 -0.0143
   99loPI   PO4 1572   6.376  17.702   9.849 -0.0052 -0.3618 -0.0082
   99loPI   GL1 1573   6.453  18.003   9.643 -0.0333 -0.0721 -0.0844
   99loPI   GL2 1574   6.129  17.932   9.473  0.0398  0.0364 -0.0455
   99loPI   C1A 1575   6.424  18.077   9.089  0.1160  0.0420  0.0713
   99loPI   C2A 1576   6.381  18.141   8.682  0.0420 -0.2735  0.1722
   99loPI   C3A 1577   6.332  18.280   8.318 -0.1476 -0.1470 -0.0460
   99loPI   C4A 1578   6.463  18.496   7.986  0.2704  0.1830 -0.2432
   99loPI   C5A 1579   6.469  18.814   7.673  0.2048 -0.3839 -0.0127
   99loPI   C6A 1580   6.553  19.328   7.787  0.0538  0.1996  0.3460
   99loPI   C1B 1581   6.156  17.654   9.126  0.1643 -0.2842  0.2690
   99loPI   C2B 1582   6.111  17.678   8.665  0.2185 -0.1656 -0.2276
   99loPI   C3B 1583   6.152  17.791   8.277 -0.2105  0.0260 -0.2599
   99loPI   C4B 1584   5.991  18.130   7.988 -0.1614  0.3545 -0.2853
  100loPI    C1 1585  16.505  14.283  11.310 -0.1281  0.1026 -0.0825
  100loPI    C2 1586  16.214  14.480  11.500  0.1386  0.3154  0.1148
  100loPI    C3 1587  16.590  14.612  11.520  0.2233  0.1528 -0.2953
  100loPI   PO4 1588  16.526  14.318  11.035 -0.1132  0.1229 -0.1467
  100loPI   GL1 1589  16.321  14.245  10.672 -0.1658  0.2000 -0.0203
  100loPI   GL2 1590  16.038  14.374  10.597 -0.1647 -0.0489 -0.0534
  100loPI   C1A 1591  16.581  14.209  10.241 -0.1280 -0.2519 -0.0844
  100loPI   C2A 1592  16.647  14.110   9.827 -0.1830  0.1630  0.2755
  100loPI   C3A 1593  16.460  14.092   9.400  0.1296 -0.1418  0.2334
  100loPI   C4A 1594  16.629  14.014   9.067  0.1521  0.1568 -0.0915
  100loPI   C5A 1595  16.681  13.598   8.933 -0.1361  0.2475 -0.2708
  100loPI   C6A 1596  16.694  13.344   8.634 -0.0905 -0.3212  0.0265
  100loPI   C1B 1597  16.219  14.570  10.203 -0.1845 -0.1377  0.1476
  100loPI   C2B 1598  16.233  14.466   9.777 -0.1229 -0.2987  0.1740
  100loPI   C3B 1599  16.206  14.572   9.287 -0.0145 -0.0549 -0.1141
  100loPI   C4B 1600  16.095  14.695   8.844  0.1708 -0.1006 -0.0280
  101loPI    C1 1601   7.176   7.812  10.212 -0.0229 -0.0486 -0.1199
  101loPI    C2 1602   7.252   7.705  10.589  0.3514  0.1259 -0.1417
  101loPI    C3 1603   7.134   8.078  10.507 -0.0188  0.0065 -0.1688
  101loPI   PO4 1604   7.023   7.465  10.103  0.1050 -0.0559  0.1087
  101loPI   GL1 1605   6.723   7.507   9.754 -0.0576  0.0075 -0.3184
  101loPI   GL2 1606   6.946   7.818   9.709 -0.0234 -0.3184 -0.1467
  101loPI   C1A 1607   6.855   7.343   9.375 -0.1362 -0.2729  0.4853
  101loPI   C2A 1608   6.760   7.353   8.989  0.0702  0.1415 -0.3499
  101loPI   C3A 1609   6.597   7.435   8.600  0.2215  0.0222 -0.0538
  101loPI   C4A 1610   6.507   7.578   8.160  0.0154 -0.0946 -0.3215
  101loPI   C5A 1611   6.209   7.492   7.901  0.1062  0.1833  0.0114
  101loPI   C6A 1612   5.813   7.270   7.817 -0.1347 -0.1009 -0.0145
  101loPI   C1B 1613   6.942   7.861   9.237  0.0837 -0.2539  0.0137
  101loPI   C2B 1614   6.823   7.866   8.824 -0.0933 -0.4565 -0.2147
  101loPI   C3B 1615   7.055   7.650   8.470 -0.1592  0.1418  0.1194
  101loPI   C4B 1616   7.121   7.490   8.078  0.1279 -0.2192  0.0459
  102loPI    C1 1617   8.970  12.738  10.187  0.2798  0.2143  0.1146
  102loPI    C2 1618   9.152  12.570  10.501  0.2069 -0.0623  0.0115
  102loPI    C3 1619   9.322  12.880  10.313  0.3042  0.0334  0.2540
  102loPI   PO4 1620   8.833  12.581  10.015 -0.0952 -0.0350  0.0249
  102loPI   GL1 1621   8.890  12.685   9.638 -0.0188  0.1228  0.3050
  102loPI   GL2 1622   9.000  12.350   9.559  0.3314  0.0520 -0.3657
  102loPI   C1A 1623   8.706  12.501   9.202  0.1231  0.1000 -0.1688
  102loPI   C2A 1624   8.240  12.603   9.286  0.0287 -0.3447  0.0395
  102loPI   C3A 1625   8.042  12.535   8.930  0.0447 -0.3512 -0.2195
  102loPI   C4A 1626   8.154  12.650   8.482  0.0166 -0.3679 -0.1654
  102loPI   C5A 1627   8.435  12.836   8.239  0.0406  0.4208 -0.2619
  102loPI   C6A 1628   8.548  13.135   8.384  0.0356  0.0625  0.0465
  102loPI   C1B 1629   8.838  12.021   9.248  0.3260  0.0973 -0.0848
  102loPI   C2B 1630   8.898  12.132   8.854 -0.0805 -0.0424 -0.0410
  102loPI   C3B 1631   9.017  12.295   8.404  0.0746  0.2649  0.3087
  102loPI   C4B 1632   9.127  12.188   8.030 -0.0772 -0.1021 -0.0511
  103loPI    C1 1633   4.263   7.094  10.384 -0.2338  0.2486 -0.1360
  103loPI    C2 1634   4.479   7.420  10.301  0.1580  0.0265 -0.0180
  103loPI    C3 1635   4.561   7.204  10.627 -0.2314 -0.0797  0.0151
  103loPI   PO4 1636   4.230   7.014  10.133 -0.1730 -0.1921  0.0541
  103loPI   GL1 1637   4.378   6.944   9.674  0.0822  0.1507  0.0787
  103loPI   GL2 1638   4.074   7.000   9.580 -0.0785  0.1403  0.0550
  103loPI   C1A 1639   4.592   6.847   9.307 -0.0020  0.0379 -0.0340
  103loPI   C2A 1640   4.500   7.225   9.025 -0.4674  0.1373 -0.0838
  103loPI   C3A 1641   4.385   7.282   8.542 -0.3806 -0.0215 -0.1572
  103loPI   C4A 1642   4.278   7.272   8.122 -0.1687 -0.1337  0.0288
  103loPI   C5A 1643   4.288   6.912   7.845 -0.0016 -0.0080  0.2874
  103loPI   C6A 1644   4.045   6.587   7.710 -0.0442 -0.0164 -0.1056
  103loPI   C1B 1645   3.972   7.210   9.200  0.1907  0.2944  0.0117
  103loPI   C2B 1646   3.910   7.234   8.772  0.2593  0.2008  0.3094
  103loPI   C3B 1647   3.858   7.037   8.464 -0.1105  0.2403 -0.0545
  103loPI   C4B 1648   3.852   6.881   8.146  0.1363 -0.2027  0.1378
  104loPI    C1 1649  11.066   0.938  10.576 -0.1091  0.0922  0.1626
  104loPI    C2 1650  10.764   0.920  10.838  0.0878  0.1692  0.3986
  104loPI    C3 1651  10.985   1.252  10.811 -0.0145  0.2116  0.0366
  104loPI   PO4 1652  11.061   0.906  10.358 -0.2531 -0.1231 -0.1212
  104loPI   GL1 1653  11.079   0.723  10.076  0.2219  0.3209  0.1474
  104loPI   GL2 1654  11.408   0.770   9.973  0.0735  0.1633 -0.2714
  104loPI   C1A 1655  11.094   0.797   9.599  0.0692  0.0395  0.6398
  104loPI   C2A 1656  11.077   0.777   9.174  0.0894 -0.1344  0.0307
  104loPI   C3A 1657  11.046   0.583   8.727  0.0639  0.0126  0.3570
  104loPI   C4A 1658  10.820   0.522   8.418 -0.1916  0.0744 -0.1492
  104loPI   C5A 1659  10.709   0.390   8.052 -0.4032  0.0083 -0.2313
  104loPI   C6A 1660  10.775   0.037   7.826 -0.0128  0.0020 -0.1602
  104loPI   C1B 1661  11.572   0.797   9.496 -0.4435 -0.1069  0.0522
  104loPI   C2B 1662  11.526   0.702   9.098 -0.1352 -0.2499 -0.2647
  104loPI   C3B 1663  11.528   0.469   8.734  0.0223  0.1739  0.1674
  104loPI   C4B 1664  11.428   0.380   8.341 -0.0716  0.0889  0.0589
  105loPI    C1 1665   4.655   2.801  10.613  0.0749  0.1189 -0.2144
  105loPI    C2 1666   4.881   2.551  10.828  0.0079  0.2562  0.0183
  105loPI    C3 1667   4.482   2.534  10.855 -0.0029  0.2233 -0.1540
  105loPI   PO4 1668   4.839   2.776  10.357 -0.2152 -0.4037 -0.0644
  105loPI   GL1 1669   5.110   2.392  10.136  0.3538 -0.0867 -0.0078
  105loPI   GL2 1670   5.367   2.287  10.087 -0.0640  0.1465 -0.0542
  105loPI   C1A 1671   5.168   2.549   9.737 -0.1577 -0.1144 -0.1221
  105loPI   C2A 1672   5.283   2.602   9.259  0.0355 -0.2467 -0.2012
  105loPI   C3A 1673   5.237   2.632   8.793 -0.0601 -0.2524 -0.1254
  105loPI   C4A 1674   5.307   2.547   8.297  0.1900 -0.2823 -0.1047
  105loPI   C5A 1675   5.335   2.527   7.852 -0.1857  0.2265  0.3534
  105loPI   C6A 1676   4.978   2.535   7.519 -0.0784  0.0316 -0.0221
  105loPI   C1B 1677   5.189   2.066   9.753 -0.0238 -0.1234  0.1612
  105loPI   C2B 1678   5.151   2.122   9.296 -0.3959  0.1389  0.1536
  105loPI   C3B 1679   4.901   2.258   8.908  0.0114 -0.0912  0.1009
  105loPI   C4B 1680   4.743   2.453   8.601 -0.2564  0.3065 -0.1969
  106loPI    C1 1681  11.247  12.694  10.286  0.0977  0.0095  0.1111
  106loPI    C2 1682  10.972  12.417  10.199  0.0004  0.0399  0.3168
  106loPI    C3 1683  11.016  12.544  10.576  0.0149  0.3352  0.2177
  106loPI   PO4 1684  11.077  12.955  10.107  0.0823  0.2709 -0.0732
  106loPI   GL1 1685  10.892  13.067   9.672 -0.0914  0.1036 -0.2309
  106loPI   GL2 1686  11.024  13.315   9.460  0.3561  0.4200  0.2450
  106loPI   C1A 1687  11.131  12.836   9.253  0.0871  0.1643 -0.4863
  106loPI   C2A 1688  11.188  12.747   8.831  0.2729 -0.1127 -0.0524
  106loPI   C3A 1689  11.286  12.839   8.449  0.0330  0.0504 -0.0472
  106loPI   C4A 1690  11.187  12.695   8.139 -0.3089 -0.1323 -0.1865
  106loPI   C5A 1691  11.179  12.663   7.847 -0.0546 -0.0590 -0.2120
  106loPI   C6A 1692  11.465  12.464   7.532  0.3047  0.0042 -0.0578
  106loPI   C1B 1693  11.127  13.332   9.040 -0.3707  0.0671  0.1401
  106loPI   C2B 1694  11.165  13.290   8.576 -0.1658 -0.2867  0.1284
  106loPI   C3B 1695  11.495  13.299   8.191  0.1100 -0.3521  0.0609
  106loPI   C4B 1696  11.702  13.478   7.864 -0.1448 -0.2090 -0.0146
  107loPI    C1 1697  14.302  11.260  10.419  0.0502 -0.0229  0.0195
  107loPI    C2 1698  14.159  11.574  10.216 -0.1626 -0.0899  0.0630
  107loPI    C3 1699  14.354  11.631  10.561  0.2280  0.0266 -0.1714
  107loPI   PO4 1700  14.463  11.154  10.257  0.2064 -0.3340  0.0844
  107loPI   GL1 1701  14.371  11.158   9.891  0.1472 -0.4021 -0.0385
  107loPI   GL2 1702  14.606  11.438   9.890  0.1498 -0.0065  0.0325
  107loPI   C1A 1703  14.404  11.045   9.532  0.2236 -0.2363  0.0382
  107loPI   C2A 1704  14.626  11.002   9.127 -0.0684 -0.0459 -0.0044
  107loPI   C3A 1705  14.651  11.005   8.661  0.1192  0.1947  0.1604
  107loPI   C4A 1706  15.005  10.800   8.336  0.0223 -0.3789 -0.4616
  107loPI   C5A 1707  15.228  10.453   8.322 -0.0100  0.1056 -0.0476
  107loPI   C6A 1708  15.461   9.999   8.272  0.1277  0.0053  0.1565
  107loPI   C1B 1709  14.504  11.546   9.478  0.2195  0.1961  0.1332
  107loPI   C2B 1710  14.404  11.423   9.049  0.1421 -0.2806 -0.0233
  107loPI   C3B 1711  14.728  11.455   8.751 -0.2667 -0.2359  0.2443
  107loPI   C4B 1712  15.193  11.588   8.766 -0.2908 -0.0541 -0.0810
  108loPI    C1 1713   5.222  13.981  10.364 -0.1692  0.0646  0.0010
  108loPI    C2 1714   5.098  14.250  10.633 -0.1799  0.0037  0.0569
  108loPI    C3 1715   5.038  13.860  10.697  0.1574 -0.0368  0.1489
  108loPI   PO4 1716   5.091  14.121  10.146 -0.0591 -0.0383  0.1213
  108loPI   GL1 1717   5.101  14.160   9.722 -0.1261 -0.3608  0.0036
  108loPI   GL2 1718   5.372  14.013   9.548  0.1839  0.3739 -0.0877
  108loPI   C1A 1719   4.956  14.157   9.354  0.1604 -0.0155  0.0759
  108loPI   C2A 1720   4.850  14.104   8.897 -0.1407 -0.2091 -0.0821
  108loPI   C3A 1721   4.893  14.041   8.464  0.1717 -0.0851  0.3492
  108loPI   C4A 1722   4.852  14.183   7.998  0.2243 -0.1886 -0.0188
  108loPI   C5A 1723   4.632  14.419   7.582 -0.0573  0.4539 -0.0161
  108loPI   C6A 1724   4.652  14.429   7.028 -0.2308  0.1223 -0.1528
  108loPI   C1B 1725   5.333  14.451   9.401 -0.2165  0.0275 -0.1535
  108loPI   C2B 1726   5.553  14.698   9.111  0.1382  0.0224 -0.1506
  108loPI   C3B 1727   5.610  14.967   8.806 -0.0960  0.0491 -0.0571
  108loPI   C4B 1728   5.425  15.186   8.504 -0.2265 -0.3861 -0.2327
  109loPI    C1 1729  17.121   3.259  10.403  0.0123 -0.0455  0.2405
  109loPI    C2 1730  17.494   3.130  10.339 -0.0634 -0.0578 -0.2062
  109loPI    C3 1731  17.186   2.944  10.165 -0.2104  0.4522 -0.5113
  109loPI   PO4 1732  17.124   3.490  10.385  0.1282  0.0332 -0.1257
  109loPI   GL1 1733  17.048   3.622   9.965  0.0308 -0.1918  0.3449
  109loPI   GL2 1734  17.422   3.421   9.965 -0.2187  0.0130 -0.2207
  109loPI   C1A 1735  17.110   3.498   9.568 -0.0964 -0.0407 -0.0078
  109loPI   C2A 1736  17.297   3.536   9.113 -0.0523 -0.1403  0.3155
  109loPI   C3A 1737  17.612   3.358   8.867  0.3165 -0.0980 -0.0883
  109loPI   C4A 1738  17.853   3.284   8.493  0.0191  0.1555 -0.2262
  109loPI   C5A 1739  17.811   2.948   8.193 -0.0619 -0.0371 -0.0508
  109loPI   C6A 1740  17.831   2.665   7.911 -0.2674  0.0451 -0.1267
  109loPI   C1B 1741  17.524   3.756   9.812  0.0655  0.0746  0.0743
  109loPI   C2B 1742  17.588   3.856   9.369 -0.2819 -0.0052  0.2105
  109loPI   C3B 1743  17.619   3.867   9.002 -0.2173  0.0478  0.2524
  109loPI   C4B 1744  17.523   3.805   8.538  0.1030  0.0807 -0.1759
  110loPI    C1 1745   1.485   0.501  10.692  0.1489  0.1139 -0.0248
  110loPI    C2 1746   1.321   0.865  10.723  0.2854  0.1795 -0.0657
  110loPI    C3 1747   1.315   0.616  11.036 -0.0428  0.1157 -0.1189
  110loPI   PO4 1748   1.395   0.480  10.453  0.0658  0.1026  0.3259
  110loPI   GL1 1749   1.361   0.524  10.033 -0.2423 -0.0430  0.0049
  110loPI   GL2 1750   1.659   0.649  10.043 -0.2981  0.1769 -0.2184
  110loPI   C1A 1751   1.278   0.312   9.698 -0.1941 -0.2619  0.0937
  110loPI   C2A 1752   1.397   0.333   9.373  0.1979  0.1318  0.0005
  110loPI   C3A 1753   1.501   0.119   9.032 -0.1023  0.3943  0.0981
  110loPI   C4A 1754   1.538   0.202   8.664 -0.0731 -0.1411  0.2115
  110loPI   C5A 1755   1.614   0.169   8.229 -0.0833  0.0304 -0.1510
  110loPI   C6A 1756   1.369   0.200   7.851  0.2474 -0.0060 -0.3121
  110loPI   C1B 1757   1.767   0.450   9.697  0.0154 -0.0394 -0.1461
  110loPI   C2B 1758   2.066   0.135   9.602  0.5014 -0.0362  0.1642
  110loPI   C3B 1759   2.178  -0.214   9.388 -0.1052 -0.2596 -0.0216
  110loPI   C4B 1760   2.183  -0.652   9.209 -0.0362  0.2779 -0.1145
  111loPI    C1 1761   4.461  16.604  10.260 -0.0211  0.0753  0.0527
  111loPI    C2 1762   4.573  16.984  10.315 -0.2690  0.1474  0.0738
  111loPI    C3 1763   4.198  16.873  10.396 -0.2207 -0.0846 -0.0123
  111loPI   PO4 1764   4.560  16.525  10.031 -0.3057 -0.3109  0.0372
  111loPI   GL1 1765   4.628  16.586   9.657 -0.0198 -0.1469  0.1354
  111loPI   GL2 1766   4.854  16.639   9.503 -0.0901 -0.2608 -0.0443
  111loPI   C1A 1767   4.447  16.851   9.359  0.2023  0.2165  0.2699
  111loPI   C2A 1768   4.462  16.993   8.899 -0.0799  0.0342 -0.0430
  111loPI   C3A 1769   4.665  17.135   8.589 -0.1116 -0.2726  0.1137
  111loPI   C4A 1770   5.012  17.385   8.389  0.1644  0.0276  0.1930
  111loPI   C5A 1771   5.338  17.531   8.152  0.1713 -0.2593 -0.0292
  111loPI   C6A 1772   5.620  17.747   7.887  0.0733  0.2124  0.1050
  111loPI   C1B 1773   4.740  16.593   9.054  0.2515 -0.3090 -0.1716
  111loPI   C2B 1774   4.807  16.649   8.606 -0.2083 -0.1612 -0.0295
  111loPI   C3B 1775   4.969  16.627   8.114  0.2583  0.1723  0.1007
  111loPI   C4B 1776   4.944  16.436   7.701  0.3459  0.0320  0.0907
  112loPI    C1 1777   0.552   7.742   9.964 -0.1229  0.0317 -0.0929
  112loPI    C2 1778   0.832   7.736  10.249 -0.0107 -0.0258 -0.2031
  112loPI    C3 1779   0.839   8.021   9.968 -0.1213  0.0312 -0.1488
  112loPI   PO4 1780   0.303   7.675   9.996  0.5083  0.1704  0.2151
  112loPI   GL1 1781   0.007   7.699   9.679 -0.0142  0.0259  0.1125
  112loPI   GL2 1782   0.372   7.486   9.572  0.1040  0.2131 -0.2605
  112loPI   C1A 1783  -0.125   7.558   9.261 -0.1188  0.0720 -0.1048
  112loPI   C2A 1784  -0.064   7.330   8.888  0.2831  0.0639 -0.2230
  112loPI   C3A 1785   0.237   7.001   8.749 -0.0215  0.1350 -0.0438
  112loPI   C4A 1786   0.389   6.774   8.406 -0.0094  0.1617 -0.1166
  112loPI   C5A 1787   0.365   6.342   8.221 -0.2081 -0.1727 -0.0764
  112loPI   C6A 1788   0.488   5.995   8.005 -0.3629 -0.1279 -0.0434
  112loPI   C1B 1789   0.360   7.267   9.176  0.0024 -0.0848  0.0579
  112loPI   C2B 1790   0.693   7.010   8.920  0.1543  0.2904  0.0318
  112loPI   C3B 1791   1.029   6.793   8.611 -0.0318 -0.1671  0.0062
  112loPI   C4B 1792   1.218   6.788   8.177  0.2765  0.2252 -0.0136
  113loPI    C1 1793  12.649   3.609  10.830  0.0166 -0.1752  0.3229
  113loPI    C2 1794  12.939   3.833  10.990  0.0095 -0.0899  0.2175
  113loPI    C3 1795  12.995   3.440  10.939  0.0466 -0.1013  0.3424
  113loPI   PO4 1796  12.539   3.754  10.627 -0.0066  0.0982 -0.1705
  113loPI   GL1 1797  12.648   4.007  10.229 -0.0702  0.1433  0.1739
  113loPI   GL2 1798  12.517   4.280  10.246  0.0204  0.0819  0.1076
  113loPI   C1A 1799  12.888   3.827   9.885  0.1979 -0.3771 -0.0432
  113loPI   C2A 1800  13.087   3.647   9.567  0.0917  0.0581  0.0256
  113loPI   C3A 1801  13.206   3.708   9.143  0.1503 -0.3150  0.0143
  113loPI   C4A 1802  13.109   3.947   8.770 -0.2870  0.0097 -0.1058
  113loPI   C5A 1803  13.304   4.096   8.404  0.0914  0.0773 -0.2609
  113loPI   C6A 1804  13.652   4.030   8.060 -0.3319  0.0778  0.0620
  113loPI   C1B 1805  12.426   4.288   9.790  0.1835 -0.1665  0.0511
  113loPI   C2B 1806  12.275   4.100   9.418  0.0135 -0.1613 -0.1845
  113loPI   C3B 1807  12.291   3.974   9.074 -0.1621 -0.1032  0.1177
  113loPI   C4B 1808  12.557   3.807   8.780 -0.1761 -0.0178  0.0800
  114loPI    C1 1809  18.049   2.346  10.317  0.1148 -0.1138 -0.0099
  114loPI    C2 1810  17.913   2.010  10.487 -0.2544  0.0158 -0.0416
  114loPI    C3 1811  17.923   2.351  10.696  0.2176 -0.0311  0.0237
  114loPI   PO4 1812  18.299   2.204  10.233 -0.4542  0.0058  0.2092
  114loPI   GL1 1813  18.336   2.288   9.806  0.1010 -0.1221 -0.0572
  114loPI   GL2 1814  18.500   2.499   9.608 -0.0508 -0.0506  0.1622
  114loPI   C1A 1815  18.189   2.005   9.546 -0.2565  0.0486 -0.0135
  114loPI   C2A 1816  18.126   2.012   9.034 -0.0108 -0.1215 -0.0529
  114loPI   C3A 1817  18.233   1.652   8.779 -0.1114  0.0919  0.0155
  114loPI   C4A 1818  18.240   1.263   8.458 -0.1302  0.2692 -0.1827
  114loPI   C5A 1819  18.285   0.860   8.612  0.3396  0.4307  0.0643
  114loPI   C6A 1820  18.328   0.477   8.680 -0.0875  0.2704  0.1150
  114loPI   C1B 1821  18.321   2.470   9.219 -0.0164  0.0335 -0.0059
  114loPI   C2B 1822  18.254   2.455   8.785 -0.1679 -0.1983  0.1945
  114loPI   C3B 1823  17.979   2.542   8.449  0.3304  0.2198  0.2151
  114loPI   C4B 1824  17.561   2.439   8.273  0.0130 -0.1004  0.1513
  115loPI    C1 1825   6.691   5.186  10.761 -0.1342  0.0040 -0.1355
  115loPI    C2 1826   6.565   5.384  11.085  0.0366 -0.1656  0.0369
  115loPI    C3 1827   6.854   5.539  10.856 -0.0221 -0.0869  0.0159
  115loPI   PO4 1828   6.464   5.081  10.679 -0.2537  0.0103 -0.1021
  115loPI   GL1 1829   6.304   5.149  10.331  0.0886  0.1421  0.0478
  115loPI   GL2 1830   6.312   5.404  10.151 -0.2182 -0.2536  0.0280
  115loPI   C1A 1831   6.392   4.910   9.912 -0.2449  0.1109  0.0439
  115loPI   C2A 1832   6.548   4.889   9.562  0.1206  0.2949  0.1212
  115loPI   C3A 1833   6.565   4.944   9.173  0.4097  0.1430  0.1089
  115loPI   C4A 1834   6.692   5.111   8.797 -0.2469  0.1912 -0.0757
  115loPI   C5A 1835   7.122   4.975   8.384 -0.1711 -0.0402  0.2234
  115loPI   C6A 1836   7.261   5.283   8.001  0.0267  0.0522 -0.0067
  115loPI   C1B 1837   6.483   5.378   9.783  0.1473 -0.0904  0.0414
  115loPI   C2B 1838   6.715   5.368   9.450 -0.3618 -0.1779 -0.3732
  115loPI   C3B 1839   6.905   5.459   9.108 -0.2185  0.0332  0.0475
  115loPI   C4B 1840   6.611   5.598   8.701  0.0891  0.2180 -0.2531
  116loPI    C1 1841  14.906   3.622  10.863  0.0424  0.0616  0.0879
  116loPI    C2 1842  14.989   3.238  10.937  0.0331  0.0263 -0.0815
  116loPI    C3 1843  14.728   3.434  11.168  0.0640 -0.0588  0.0269
  116loPI   PO4 1844  14.902   3.595  10.518  0.0941  0.2481 -0.1169
  116loPI   GL1 1845  14.794   3.907  10.123 -0.3357  0.1264 -0.1008
  116loPI   GL2 1846  14.592   3.964  10.258 -0.1957  0.0826  0.1984
  116loPI   C1A 1847  14.582   3.828   9.739  0.2319  0.0626 -0.0768
  116loPI   C2A 1848  14.810   3.731   9.419 -0.1557  0.4717  0.1428
  116loPI   C3A 1849  14.816   3.795   9.037  0.0432  0.0509 -0.1429
  116loPI   C4A 1850  14.533   3.633   8.814  0.0251 -0.1472 -0.1802
  116loPI   C5A 1851  14.382   3.674   8.326 -0.1472 -0.0438  0.1394
  116loPI   C6A 1852  14.397   3.838   7.829 -0.1414  0.0362 -0.2304
  116loPI   C1B 1853  14.459   4.262  10.003 -0.3167  0.0125 -0.1001
  116loPI   C2B 1854  14.516   4.221   9.393 -0.4507 -0.1575 -0.1615
  116loPI   C3B 1855  14.531   4.208   8.978 -0.1029  0.1754  0.0213
  116loPI   C4B 1856  14.415   4.162   8.616  0.2924  0.2844 -0.2659
  117loPI    C1 1857   8.545   3.002  10.477  0.0093  0.1879  0.1333
  117loPI    C2 1858   8.823   2.717  10.516  0.1123  0.2627 -0.0429
  117loPI    C3 1859   8.609   2.832  10.834  0.1223  0.0436  0.0455
  117loPI   PO4 1860   8.549   3.028  10.179  0.1932  0.0092 -0.1326
  117loPI   GL1 1861   8.709   3.146   9.844 -0.2182  0.0684 -0.1258
  117loPI   GL2 1862   8.438   3.179   9.751  0.0153  0.0160 -0.1646
  117loPI   C1A 1863   9.011   3.001   9.574 -0.1576 -0.0752 -0.1151
  117loPI   C2A 1864   9.105   3.030   9.164 -0.0345  0.1164 -0.1029
  117loPI   C3A 1865   9.156   3.105   8.790  0.0237 -0.0208 -0.2824
  117loPI   C4A 1866   9.141   3.138   8.355 -0.0266 -0.0526  0.2037
  117loPI   C5A 1867   8.688   3.074   8.113 -0.2794  0.1374 -0.2572
  117loPI   C6A 1868   8.208   3.205   8.076  0.2662  0.2891  0.1910
  117loPI   C1B 1869   8.609   3.222   9.337  0.0191  0.1465 -0.0776
  117loPI   C2B 1870   8.664   3.240   8.892  0.0823  0.0516  0.1291
  117loPI   C3B 1871   8.712   3.488   8.608 -0.4483  0.2206  0.0680
  117loPI   C4B 1872   8.918   3.555   8.191 -0.1217  0.2254  0.0692
  118loPI    C1 1873   9.575   1.416  10.583 -0.1153 -0.0047  0.0451
  118loPI    C2 1874   9.233   1.454  10.786 -0.0555 -0.0494  0.1549
  118loPI    C3 1875   9.537   1.703  10.859 -0.0885  0.0349  0.0078
  118loPI   PO4 1876   9.602   1.408  10.329  0.2193 -0.2723  0.0309
  118loPI   GL1 1877   9.822   1.156  10.010  0.3013 -0.1337  0.2907
  118loPI   GL2 1878  10.087   0.966  10.040  0.1185  0.1605  0.0386
  118loPI   C1A 1879   9.822   1.434   9.734  0.0458 -0.0003 -0.0215
  118loPI   C2A 1880   9.775   1.657   9.425  0.0106  0.3236  0.1918
  118loPI   C3A 1881   9.736   1.666   8.997  0.2285 -0.0891 -0.0266
  118loPI   C4A 1882   9.806   1.735   8.573 -0.1147 -0.0091 -0.2644
  118loPI   C5A 1883   9.997   1.935   8.180 -0.0168 -0.0707  0.1253
  118loPI   C6A 1884  10.045   2.025   7.758  0.3105 -0.0751  0.1364
  118loPI   C1B 1885  10.016   1.017   9.604  0.1540  0.3213  0.0058
  118loPI   C2B 1886   9.946   1.227   9.179  0.0983  0.1860 -0.0220
  118loPI   C3B 1887  10.146   1.183   8.833  0.2014 -0.0384 -0.0020
  118loPI   C4B 1888  10.044   1.292   8.455 -0.3353 -0.2227 -0.0621
  119loPI    C1 1889  10.819  15.493  10.338 -0.1845 -0.0388 -0.1199
  119loPI    C2 1890  10.860  15.777  10.617 -0.0115  0.1564 -0.3392
  119loPI    C3 1891  10.745  15.408  10.722 -0.1828  0.2897 -0.0435
  119loPI   PO4 1892  10.789  15.595  10.122  0.2713  0.1678 -0.4101
  119loPI   GL1 1893  10.447  15.707   9.855  0.1596  0.2288  0.1066
  119loPI   GL2 1894  10.215  15.911   9.836 -0.2334  0.0127 -0.0093
  119loPI   C1A 1895  10.503  15.756   9.377  0.0387  0.0044 -0.2034
  119loPI   C2A 1896  10.654  15.818   8.950  0.0890  0.1696 -0.0305
  119loPI   C3A 1897  10.823  15.613   8.581 -0.1277  0.0222  0.0081
  119loPI   C4A 1898  11.021  15.615   8.200 -0.0308 -0.0560  0.0582
  119loPI   C5A 1899  11.506  15.723   8.074 -0.1413  0.1266  0.0468
  119loPI   C6A 1900  11.897  16.015   8.008 -0.2684 -0.2015 -0.1898
  119loPI   C1B 1901  10.054  15.951   9.465 -0.0535  0.0695 -0.0743
  119loPI   C2B 1902  10.094  15.648   9.094  0.1011  0.3569  0.0149
  119loPI   C3B 1903  10.070  15.418   8.731 -0.1411  0.0202 -0.0785
  119loPI   C4B 1904   9.842  15.152   8.371  0.2451  0.3868  0.0895
  120loPI    C1 1905   2.969  12.410   9.995 -0.1446 -0.1169 -0.0798
  120loPI    C2 1906   2.597  12.555  10.022 -0.0993 -0.0180  0.0226
  120loPI    C3 1907   2.796  12.452  10.354  0.0402  0.1236 -0.0159
  120loPI   PO4 1908   3.003  12.360   9.841  0.1238  0.1017  0.0946
  120loPI   GL1 1909   3.113  12.724   9.543  0.2540 -0.4866 -0.1908
  120loPI   GL2 1910   3.261  12.933   9.417  0.3580 -0.0252  0.0693
  120loPI   C1A 1911   2.835  12.607   9.207  0.0528 -0.0272 -0.1652
  120loPI   C2A 1912   2.850  12.677   8.754 -0.3788  0.0708  0.0381
  120loPI   C3A 1913   2.818  12.796   8.318 -0.2200 -0.1351 -0.1568
  120loPI   C4A 1914   2.867  12.599   7.957  0.1190  0.2989 -0.0302
  120loPI   C5A 1915   3.000  12.408   7.708 -0.1779  0.2036 -0.0691
  120loPI   C6A 1916   2.827  12.117   7.493  0.1694  0.1369  0.2887
  120loPI   C1B 1917   3.165  12.943   9.053  0.1422 -0.2151 -0.1881
  120loPI   C2B 1918   3.208  13.089   8.583  0.2203  0.1159 -0.1316
  120loPI   C3B 1919   3.400  13.300   8.238  0.0357  0.4176  0.1755
  120loPI   C4B 1920   3.221  13.492   7.918  0.1878 -0.0864  0.0256
  121loPI    C1 1921   0.867  14.500  10.902 -0.1677  0.0623  0.1662
  121loPI    C2 1922   0.750  14.213  10.649 -0.1417 -0.0905  0.3248
  121loPI    C3 1923   1.108  14.190  10.825 -0.1209  0.0635  0.3045
  121loPI   PO4 1924   0.777  14.701  10.804 -0.1401  0.1154 -0.0789
  121loPI   GL1 1925   0.630  14.820  10.407  0.0852 -0.2168 -0.1019
  121loPI   GL2 1926   0.456  14.493  10.397 -0.0805 -0.0656 -0.1936
  121loPI   C1A 1927   0.594  14.755   9.985 -0.0073 -0.1989  0.5385
  121loPI   C2A 1928   0.571  14.588   9.564 -0.1881 -0.1297  0.1230
  121loPI   C3A 1929   0.586  14.568   9.067 -0.5952 -0.3575  0.0854
  121loPI   C4A 1930   0.571  14.720   8.708  0.2523  0.0842  0.1131
  121loPI   C5A 1931   0.342  15.022   8.509 -0.1950  0.0168 -0.1854
  121loPI   C6A 1932   0.487  15.430   8.413  0.1181  0.0332 -0.0597
  121loPI   C1B 1933   0.462  14.297   9.970  0.3917  0.4599  0.0168
  121loPI   C2B 1934   0.369  14.146   9.550 -0.2957 -0.3013 -0.1222
  121loPI   C3B 1935   0.278  13.964   9.126  0.3856 -0.0345  0.5478
  121loPI   C4B 1936   0.266  13.763   8.793 -0.1471 -0.1813  0.0378
  122loPI    C1 1937   4.840  15.548  10.124  0.3159 -0.1569 -0.1475
  122loPI    C2 1938   4.606  15.231  10.055  0.1167 -0.0584  0.0622
  122loPI    C3 1939   4.798  15.266  10.404 -0.0150  0.1449  0.1161
  122loPI   PO4 1940   4.901  15.617   9.916 -0.1286 -0.0717 -0.1296
  122loPI   GL1 1941   5.133  15.660   9.527  0.0453 -0.0487  0.3838
  122loPI   GL2 1942   5.453  15.816   9.482  0.2478  0.2521 -0.3033
  122loPI   C1A 1943   4.932  15.593   9.152 -0.3312 -0.0719 -0.1446
  122loPI   C2A 1944   4.895  15.604   8.776 -0.2741  0.0756  0.3225
  122loPI   C3A 1945   4.806  15.739   8.324 -0.1796 -0.0611  0.1722
  122loPI   C4A 1946   4.732  15.601   7.884  0.0636  0.3443  0.0828
  122loPI   C5A 1947   4.585  15.224   7.785 -0.2764 -0.0144 -0.2117
  122loPI   C6A 1948   4.373  14.789   7.873 -0.1460  0.0570  0.2865
  122loPI   C1B 1949   5.477  15.621   9.126 -0.1497  0.2178 -0.0603
  122loPI   C2B 1950   5.440  15.708   8.732  0.0118 -0.1870  0.0784
  122loPI   C3B 1951   5.271  15.621   8.319  0.0131 -0.0307 -0.1714
  122loPI   C4B 1952   5.078  15.245   8.121 -0.1056  0.1635  0.0299
  123loPI    C1 1953   4.421   4.600  10.192  0.0681 -0.1523 -0.0394
  123loPI    C2 1954   4.098   4.463   9.999 -0.0480  0.1007 -0.0279
  123loPI    C3 1955   4.062   4.610  10.370  0.1699 -0.3614  0.1839
  123loPI   PO4 1956   4.603   4.624  10.040 -0.1922  0.0166  0.2793
  123loPI   GL1 1957   4.685   4.950   9.786  0.1308 -0.0973  0.0554
  123loPI   GL2 1958   4.920   5.061   9.634 -0.1703 -0.1571 -0.0195
  123loPI   C1A 1959   4.547   4.983   9.342  0.0330 -0.0927 -0.0785
  123loPI   C2A 1960   4.583   5.009   8.917  0.0404  0.1378  0.1529
  123loPI   C3A 1961   4.757   4.853   8.550 -0.1283  0.1103 -0.0008
  123loPI   C4A 1962   4.888   5.050   8.231  0.2664  0.1702 -0.2384
  123loPI   C5A 1963   4.932   5.485   7.889 -0.2281  0.1093 -0.1402
  123loPI   C6A 1964   4.932   6.027   7.857 -0.0627 -0.1044  0.2078
  123loPI   C1B 1965   4.816   5.453   9.361  0.0977  0.2249  0.0751
  123loPI   C2B 1966   4.832   5.442   8.992 -0.4872  0.1874  0.1664
  123loPI   C3B 1967   5.001   5.244   8.656 -0.0784 -0.1357 -0.0110
  123loPI   C4B 1968   5.286   5.407   8.312 -0.1376  0.0745 -0.0665
  124loPI    C1 1969   7.779   8.973  10.121 -0.1531  0.0300 -0.1097
  124loPI    C2 1970   8.007   9.101  10.424 -0.2524 -0.2046  0.0676
  124loPI    C3 1971   7.747   8.802  10.482 -0.1021 -0.4156 -0.3097
  124loPI   PO4 1972   7.981   8.929   9.917 -0.0156 -0.1010 -0.0610
  124loPI   GL1 1973   8.195   9.058   9.605 -0.2325  0.0011 -0.1595
  124loPI   GL2 1974   8.490   8.910   9.679 -0.1860  0.1048 -0.1078
  124loPI   C1A 1975   8.127   9.190   9.194  0.0737  0.2409 -0.2023
  124loPI   C2A 1976   7.955   9.233   8.733  0.3298 -0.1314 -0.2070
  124loPI   C3A 1977   7.984   9.418   8.324 -0.1243  0.1763  0.0060
  124loPI   C4A 1978   8.068   9.800   8.174  0.5248  0.0434  0.0024
  124loPI   C5A 1979   8.228  10.051   7.871 -0.2893  0.2083  0.3783
  124loPI   C6A 1980   8.521  10.335   8.003 -0.2989 -0.0997 -0.0337
  124loPI   C1B 1981   8.640   8.563   9.433  0.2391  0.1379 -0.1145
  124loPI   C2B 1982   8.695   8.559   8.843  0.0933 -0.0871  0.2607
  124loPI   C3B 1983   8.732   8.757   8.534 -0.0337  0.4721  0.1405
  124loPI   C4B 1984   8.819   8.946   8.166  0.1484 -0.1428  0.2598
  125loPI    C1 1985   9.590   8.420  10.503  0.0556 -0.0532  0.0927
  125loPI    C2 1986   9.320   8.268  10.756 -0.0872 -0.0023 -0.0279
  125loPI    C3 1987   9.557   8.567  10.874 -0.0805 -0.0496  0.0797
  125loPI   PO4 1988   9.721   8.231  10.380  0.0959  0.1506  0.0178
  125loPI   GL1 1989   9.732   8.235   9.864  0.0516  0.1305  0.0174
  125loPI   GL2 1990   9.356   8.163   9.919 -0.0119 -0.2214  0.2904
  125loPI   C1A 1991   9.766   8.324   9.460  0.0398 -0.0579  0.0979
  125loPI   C2A 1992   9.770   8.256   9.004  0.1909 -0.0005  0.0191
  125loPI   C3A 1993   9.874   8.065   8.613  0.0225 -0.2001  0.2472
  125loPI   C4A 1994  10.070   7.856   8.246 -0.0586 -0.1982  0.1153
  125loPI   C5A 1995  10.288   8.065   7.928 -0.0584  0.0920  0.2649
  125loPI   C6A 1996  10.505   8.312   7.663  0.1299  0.2407  0.0058
  125loPI   C1B 1997   9.566   7.871   9.557 -0.1452 -0.1273 -0.0981
  125loPI   C2B 1998   9.457   7.581   9.238  0.0542 -0.1003  0.0946
  125loPI   C3B 1999   9.335   7.170   8.864 -0.2011  0.1260 -0.1926
  125loPI   C4B 2000   9.043   7.132   8.488  0.2447 -0.0208 -0.2832
  126loPI    C1 2001  16.249   3.860  10.439 -0.0324  0.1260 -0.1726
  126loPI    C2 2002  16.498   3.957  10.736 -0.0971  0.0751 -0.1013
  126loPI    C3 2003  16.225   4.220  10.611 -0.0218  0.1231 -0.1650
  126loPI   PO4 2004  16.295   3.610  10.342  0.1081 -0.1995 -0.0067
  126loPI   GL1 2005  16.408   3.615   9.816  0.1458  0.0774  0.1140
  126loPI   GL2 2006  16.636   3.698   9.681 -0.0332 -0.0579 -0.0288
  126loPI   C1A 2007  16.530   3.210   9.556 -0.1095  0.1396 -0.2207
  126loPI   C2A 2008  16.874   3.020   9.296 -0.2070  0.0126 -0.3530
  126loPI   C3A 2009  17.036   3.013   8.903  0.2506 -0.1656 -0.1538
  126loPI   C4A 2010  17.169   3.413   8.649 -0.1281  0.0851  0.2320
  126loPI   C5A 2011  17.170   3.500   8.224  0.0607 -0.1496  0.1132
  126loPI   C6A 2012  17.152   3.267   7.940  0.0063 -0.1256 -0.2570
  126loPI   C1B 2013  16.711   3.543   9.255 -0.1572 -0.0592  0.0120
  126loPI   C2B 2014  16.717   3.426   8.894  0.0743  0.0393  0.4232
  126loPI   C3B 2015  16.303   3.386   8.643 -0.0914  0.0484 -0.0462
  126loPI   C4B 2016  15.945   3.470   8.617 -0.1471  0.2655  0.2473
  127loPI    C1 2017   9.699  14.416  10.019 -0.1262 -0.2351  0.0966
  127loPI    C2 2018  10.079  14.330   9.930 -0.1034  0.0799 -0.1279
  127loPI    C3 2019   9.957  14.327  10.311  0.1163 -0.0485 -0.0566
  127loPI   PO4 2020   9.683  14.612   9.789 -0.0691 -0.1063  0.0097
  127loPI   GL1 2021   9.695  14.802   9.493  0.0599  0.1543  0.0514
  127loPI   GL2 2022   9.897  15.025   9.530 -0.0652 -0.0197 -0.0604
  127loPI   C1A 2023   9.807  14.741   9.061  0.0328 -0.2970 -0.0003
  127loPI   C2A 2024   9.806  14.577   8.641 -0.0233 -0.2903 -0.2110
  127loPI   C3A 2025   9.937  14.595   8.224  0.0370 -0.0142 -0.1855
  127loPI   C4A 2026   9.924  14.650   7.781 -0.4189  0.2877 -0.1717
  127loPI   C5A 2027   9.831  14.637   7.306  0.2985  0.1402 -0.3545
  127loPI   C6A 2028   9.879  14.866   7.005 -0.2267 -0.1645 -0.1090
  127loPI   C1B 2029  10.164  15.132   9.118  0.0653  0.2258 -0.1096
  127loPI   C2B 2030  10.162  14.921   8.661  0.1472 -0.1631  0.0089
  127loPI   C3B 2031  10.332  14.925   8.250  0.1995 -0.0285  0.2031
  127loPI   C4B 2032  10.265  14.980   7.804 -0.0931 -0.1903 -0.1209
  128loPI    C1 2033   9.178  17.331  10.428  0.0607 -0.0526 -0.0231
  128loPI    C2 2034   9.270  17.692  10.575 -0.0547  0.1042 -0.3294
  128loPI    C3 2035   9.512  17.381  10.644 -0.0519  0.1956  0.0979
  128loPI   PO4 2036   9.140  17.382  10.201  0.1029 -0.3404  0.3573
  128loPI   GL1 2037   9.304  17.751   9.977  0.0337  0.0977  0.1033
  128loPI   GL2 2038   9.458  17.879  10.146  0.1052  0.0097  0.2070
  128loPI   C1A 2039   9.188  17.787   9.529  0.0644  0.1233  0.0566
  128loPI   C2A 2040   8.953  18.180   9.265  0.0368 -0.0604 -0.2041
  128loPI   C3A 2041   8.923  18.466   9.013  0.0534 -0.0073 -0.1125
  128loPI   C4A 2042   9.100  18.554   8.706  0.0359  0.2119 -0.1073
  128loPI   C5A 2043   9.234  18.881   8.288  0.0299  0.1147 -0.1185
  128loPI   C6A 2044   9.527  19.237   8.070  0.3143  0.0143  0.1986
  128loPI   C1B 2045   9.384  18.241   9.835  0.0030 -0.0208  0.2565
  128loPI   C2B 2046   9.294  18.489   9.468  0.0311 -0.2962 -0.0450
  128loPI   C3B 2047   9.334  18.759   9.140  0.0130  0.0034  0.2242
  128loPI   C4B 2048   9.352  18.982   8.738 -0.2495  0.0253 -0.0734
  129loPI    C1 2049  13.791   1.644  10.930  0.0413 -0.1672  0.2371
  129loPI    C2 2050  13.468   1.754  11.139  0.0762 -0.0981  0.2550
  129loPI    C3 2051  13.776   1.578  11.324  0.0263 -0.2140  0.2287
  129loPI   PO4 2052  13.684   1.776  10.693 -0.2398 -0.2363  0.0830
  129loPI   GL1 2053  13.874   1.911  10.300  0.2426 -0.0011  0.4187
  129loPI   GL2 2054  13.603   2.175  10.240 -0.2322  0.0624 -0.2476
  129loPI   C1A 2055  13.716   1.609   9.981  0.0250 -0.0087  0.2013
  129loPI   C2A 2056  13.727   1.377   9.689 -0.0121 -0.1308 -0.1614
  129loPI   C3A 2057  13.747   1.500   9.239 -0.0404  0.2797  0.0039
  129loPI   C4A 2058  13.720   1.704   8.912 -0.2533  0.0704  0.0651
  129loPI   C5A 2059  13.742   2.031   8.555  0.0976  0.1234 -0.2316
  129loPI   C6A 2060  13.686   2.298   8.159  0.0695 -0.3197  0.1455
  129loPI   C1B 2061  13.655   2.105   9.834  0.1096 -0.0599  0.0833
  129loPI   C2B 2062  13.742   2.026   9.376  0.0869  0.1556 -0.2009
  129loPI   C3B 2063  13.706   2.272   8.987 -0.0942  0.2021  0.1125
  129loPI   C4B 2064  13.503   2.460   8.555  0.0991 -0.0980 -0.2059
  130loPI    C1 2065   1.522   4.608  10.206 -0.0951  0.0917 -0.0930
  130loPI    C2 2066   1.310   4.534  10.537  0.0565  0.1150  0.0101
  130loPI    C3 2067   1.671   4.368  10.489 -0.0180  0.0105 -0.2018
  130loPI   PO4 2068   1.318   4.653  10.021  0.2472 -0.1671  0.0975
  130loPI   GL1 2069   1.222   4.778   9.755 -0.1747 -0.1985 -0.1456
  130loPI   GL2 2070   1.164   5.097   9.685  0.1130  0.2777  0.4715
  130loPI   C1A 2071   1.367   4.548   9.391  0.0889  0.1683 -0.2921
  130loPI   C2A 2072   1.585   4.425   8.926 -0.0710  0.0839 -0.1254
  130loPI   C3A 2073   1.453   4.575   8.527 -0.1115  0.0577 -0.0571
  130loPI   C4A 2074   1.297   4.481   8.147  0.0327  0.1500  0.0723
  130loPI   C5A 2075   0.854   4.430   7.920  0.0158 -0.0857  0.1220
  130loPI   C6A 2076   0.380   4.504   7.842  0.1675  0.2866  0.0577
  130loPI   C1B 2077   1.320   5.322   9.348 -0.0284  0.0547  0.2368
  130loPI   C2B 2078   1.294   5.655   9.112  0.0131  0.0549  0.2414
  130loPI   C3B 2079   1.273   5.852   8.699  0.0069 -0.2502  0.1625
  130loPI   C4B 2080   0.849   5.869   8.426  0.1374  0.0476  0.1128
  131loPI    C1 2081   4.165  17.448   9.798  0.3569  0.0693 -0.0911
  131loPI    C2 2082   4.033  17.644  10.121  0.2326 -0.1411 -0.0118
  131loPI    C3 2083   4.324  17.372  10.158  0.0956 -0.2939 -0.0466
  131loPI   PO4 2084   4.270  17.683   9.613 -0.0886  0.2531 -0.1760
  131loPI   GL1 2085   4.396  17.743   9.285  0.1061 -0.2282 -0.1763
  131loPI   GL2 2086   4.613  18.063   9.211 -0.0635  0.0118 -0.0889
  131loPI   C1A 2087   4.250  17.496   8.899  0.0684 -0.0592  0.5403
  131loPI   C2A 2088   4.189  17.334   8.528  0.1374 -0.2360 -0.0266
  131loPI   C3A 2089   4.009  17.240   8.126 -0.0551 -0.0950 -0.0264
  131loPI   C4A 2090   3.617  17.162   8.035  0.1287  0.0354  0.0259
  131loPI   C5A 2091   3.449  17.427   7.627 -0.0736 -0.0311  0.1091
  131loPI   C6A 2092   3.417  17.399   7.215 -0.1175  0.0903  0.0653
  131loPI   C1B 2093   4.504  17.936   8.771 -0.1092  0.3277 -0.0341
  131loPI   C2B 2094   4.558  17.633   8.448 -0.0922  0.0696  0.0402
  131loPI   C3B 2095   4.537  17.353   8.121  0.0151 -0.1334 -0.2839
  131loPI   C4B 2096   4.889  17.138   8.002 -0.1269 -0.0049  0.0874
  132loPI    C1 2097   3.358   6.392  10.081  0.2210 -0.0184 -0.1683
  132loPI    C2 2098   3.571   6.451  10.414 -0.1368  0.1833  0.0306
  132loPI    C3 2099   3.483   6.079  10.296 -0.1038  0.1133  0.2243
  132loPI   PO4 2100   3.437   6.532   9.901  0.1322  0.0806 -0.0813
  132loPI   GL1 2101   3.626   6.400   9.543 -0.1510  0.0715 -0.0887
  132loPI   GL2 2102   3.807   6.162   9.487 -0.0882 -0.1245  0.3127
  132loPI   C1A 2103   3.702   6.749   9.366  0.4076 -0.1151  0.0178
  132loPI   C2A 2104   3.715   6.791   8.975  0.3841 -0.0061  0.1015
  132loPI   C3A 2105   3.737   6.624   8.683 -0.1216 -0.0615  0.1008
  132loPI   C4A 2106   3.874   6.445   8.302 -0.0031  0.0978  0.3225
  132loPI   C5A 2107   4.204   6.292   8.072  0.2400 -0.1852  0.1261
  132loPI   C6A 2108   4.386   6.075   7.796 -0.2560 -0.0680  0.0093
  132loPI   C1B 2109   3.700   6.226   8.992  0.0680 -0.1804  0.1086
  132loPI   C2B 2110   3.582   6.157   8.528  0.1609 -0.0227 -0.0721
  132loPI   C3B 2111   3.297   6.056   8.230  0.0599  0.1874  0.2686
  132loPI   C4B 2112   3.415   5.797   7.796 -0.0054 -0.0719  0.1217
  133loPI    C1 2113   5.195  17.504   9.754  0.1814  0.4015  0.1801
  133loPI    C2 2114   5.052  17.620   9.399 -0.0832 -0.0472  0.1333
  133loPI    C3 2115   4.849  17.704   9.733  0.0704  0.2100  0.1645
  133loPI   PO4 2116   5.460  17.382   9.610  0.1928 -0.2378  0.0097
  133loPI   GL1 2117   5.627  17.092   9.367  0.0935  0.1056  0.1112
  133loPI   GL2 2118   5.417  16.817   9.479 -0.0024 -0.0660  0.1425
  133loPI   C1A 2119   5.538  17.019   8.928 -0.1824 -0.3852  0.3957
  133loPI   C2A 2120   5.776  16.964   8.622  0.2646  0.1104  0.2855
  133loPI   C3A 2121   6.017  16.946   8.184 -0.2220  0.1011 -0.0278
  133loPI   C4A 2122   6.110  16.767   7.808  0.2881 -0.1545  0.2881
  133loPI   C5A 2123   6.300  16.522   7.492  0.3536 -0.0334 -0.0695
  133loPI   C6A 2124   6.411  16.375   7.069 -0.2810 -0.1650  0.0936
  133loPI   C1B 2125   5.243  16.607   9.223  0.0900  0.4064 -0.1207
  133loPI   C2B 2126   5.208  16.532   8.841 -0.0660  0.1126 -0.1141
  133loPI   C3B 2127   5.395  16.551   8.436  0.2426  0.3400  0.0789
  133loPI   C4B 2128   5.624  16.633   8.092  0.0825 -0.3422  0.0823
  134loPI    C1 2129  10.157  12.769  10.208 -0.0650  0.0467 -0.0157
  134loPI    C2 2130   9.808  12.617  10.329 -0.0404 -0.0952 -0.1204
  134loPI    C3 2131   9.833  13.002  10.224 -0.1221 -0.0374  0.0678
  134loPI   PO4 2132  10.208  12.663   9.985  0.1597  0.1386 -0.0659
  134loPI   GL1 2133  10.393  12.829   9.547  0.0987 -0.3027 -0.0059
  134loPI   GL2 2134  10.145  12.732   9.363 -0.0206 -0.0045  0.2481
  134loPI   C1A 2135  10.662  12.986   9.246 -0.0667  0.0469 -0.1230
  134loPI   C2A 2136  10.754  13.016   8.788 -0.0384  0.0384 -0.0476
  134loPI   C3A 2137  10.800  13.016   8.351  0.0238  0.1040  0.0480
  134loPI   C4A 2138  11.035  13.272   8.023 -0.0817 -0.4184 -0.0460
  134loPI   C5A 2139  11.020  13.451   7.693 -0.2624  0.2647 -0.0563
  134loPI   C6A 2140  11.274  13.692   7.443 -0.2798  0.0551 -0.3404
  134loPI   C1B 2141  10.295  12.733   8.933  0.3150 -0.0055 -0.0303
  134loPI   C2B 2142  10.326  12.793   8.519 -0.0353 -0.2746 -0.1120
  134loPI   C3B 2143  10.401  12.596   8.064  0.0911  0.1681 -0.1512
  134loPI   C4B 2144  10.104  12.424   7.721  0.0916  0.1718  0.1421
  135loPI    C1 2145   9.131  15.171  10.077 -0.0697  0.0499 -0.4044
  135loPI    C2 2146   9.444  15.140   9.831  0.1186 -0.0297 -0.1599
  135loPI    C3 2147   9.465  14.988  10.200 -0.1219  0.1794 -0.0569
  135loPI   PO4 2148   8.916  15.148   9.889  0.0925  0.1109 -0.3234
  135loPI   GL1 2149   9.100  15.216   9.488  0.2476  0.0360  0.1500
  135loPI   GL2 2150   8.977  15.432   9.288  0.0287 -0.1047 -0.1787
  135loPI   C1A 2151   9.401  15.095   9.172 -0.0420 -0.0025 -0.3931
  135loPI   C2A 2152   9.448  14.932   8.722 -0.2742  0.0030  0.0161
  135loPI   C3A 2153   9.451  14.784   8.329  0.0029  0.2534  0.0974
  135loPI   C4A 2154   9.346  14.496   8.003 -0.0239  0.0377  0.3165
  135loPI   C5A 2155   9.706  14.268   7.694  0.0438 -0.1023  0.0331
  135loPI   C6A 2156   9.896  13.787   7.687 -0.1138  0.0655  0.0503
  135loPI   C1B 2157   9.069  15.387   8.814 -0.0926 -0.1610  0.2664
  135loPI   C2B 2158   9.140  15.457   8.363  0.1651 -0.1901 -0.1584
  135loPI   C3B 2159   9.067  15.659   7.949  0.2103  0.1259 -0.1006
  135loPI   C4B 2160   9.097  16.055   7.808 -0.0382  0.1692  0.3766
  136loPI    C1 2161  11.132   8.043  10.536  0.2660  0.1921 -0.1641
  136loPI    C2 2162  11.475   7.907  10.690  0.1288 -0.0197 -0.0407
  136loPI    C3 2163  11.163   7.979  10.930 -0.1043 -0.4032 -0.2191
  136loPI   PO4 2164  11.079   7.819  10.389  0.0462 -0.1271 -0.1830
  136loPI   GL1 2165  10.835   7.492  10.132  0.0236  0.1418 -0.1534
  136loPI   GL2 2166  10.954   7.724   9.914 -0.1226  0.1029  0.0284
  136loPI   C1A 2167  10.692   7.144   9.869  0.2517  0.0401 -0.3696
  136loPI   C2A 2168  10.854   7.057   9.452 -0.0576 -0.0953  0.1344
  136loPI   C3A 2169  10.971   6.905   9.199 -0.1912 -0.0842 -0.4216
  136loPI   C4A 2170  11.281   6.850   9.057 -0.0674  0.1217 -0.0686
  136loPI   C5A 2171  11.470   6.598   8.785  0.2797 -0.0497  0.0405
  136loPI   C6A 2172  11.786   6.444   8.751  0.0503 -0.0036  0.1674
  136loPI   C1B 2173  11.047   7.521   9.483  0.0210 -0.1459 -0.0523
  136loPI   C2B 2174  11.099   7.353   9.056  0.2150  0.0209 -0.1443
  136loPI   C3B 2175  11.019   7.345   8.515  0.0575  0.1299 -0.0937
  136loPI   C4B 2176  11.073   7.470   8.124  0.0299 -0.4567  0.0544
  137loPI    C1 2177  16.762   5.176  11.058  0.0539  0.1264 -0.1277
  137loPI    C2 2178  16.448   4.946  10.963 -0.0740  0.1933  0.1238
  137loPI    C3 2179  16.526   5.030  11.346  0.4076 -0.0396  0.0842
  137loPI   PO4 2180  16.841   5.208  10.745  0.0601 -0.0573  0.0770
  137loPI   GL1 2181  16.627   5.266  10.256  0.0952 -0.0557  0.2728
  137loPI   GL2 2182  16.510   5.466  10.119 -0.1483 -0.2512  0.0595
  137loPI   C1A 2183  16.863   5.154   9.852  0.2887 -0.0803  0.0885
  137loPI   C2A 2184  16.827   5.180   9.380  0.2743  0.1038  0.0587
  137loPI   C3A 2185  16.873   5.120   9.035  0.1159  0.0597 -0.1975
  137loPI   C4A 2186  16.725   4.814   8.762  0.0840 -0.0529  0.0132
  137loPI   C5A 2187  16.543   4.651   8.418  0.0881  0.0397 -0.0832
  137loPI   C6A 2188  16.513   4.689   7.910 -0.0801  0.2765  0.2098
  137loPI   C1B 2189  16.563   5.500   9.731  0.2764 -0.0973  0.1510
  137loPI   C2B 2190  16.419   5.477   9.373 -0.0432  0.0979 -0.0473
  137loPI   C3B 2191  16.502   5.459   8.967  0.2723 -0.0438 -0.0782
  137loPI   C4B 2192  16.486   5.203   8.578  0.0711 -0.1543 -0.3616
  138loPI    C1 2193   8.042  16.477  10.122  0.0374 -0.0116  0.2541
  138loPI    C2 2194   8.245  16.814  10.196  0.1824 -0.0321 -0.0348
  138loPI    C3 2195   8.165  16.559  10.494  0.1313  0.2227  0.1732
  138loPI   PO4 2196   8.072  16.339   9.889  0.0684  0.0012 -0.0439
  138loPI   GL1 2197   7.814  16.218   9.525  0.3332 -0.2535  0.0361
  138loPI   GL2 2198   7.407  16.151   9.528  0.4124  0.2440 -0.2096
  138loPI   C1A 2199   7.980  16.288   9.113  0.2643  0.1491 -0.0542
  138loPI   C2A 2200   8.047  16.357   8.756 -0.0148  0.0177  0.0347
  138loPI   C3A 2201   8.029  16.412   8.320  0.0328  0.0370  0.2810
  138loPI   C4A 2202   7.963  16.608   7.935  0.2211 -0.2392 -0.0779
  138loPI   C5A 2203   7.809  17.044   7.803 -0.0433  0.4713  0.3714
  138loPI   C6A 2204   7.618  17.093   7.514 -0.0019 -0.1232  0.0048
  138loPI   C1B 2205   7.393  16.280   9.132  0.1889 -0.2616  0.0205
  138loPI   C2B 2206   7.506  16.387   8.794  0.0585  0.0859  0.3222
  138loPI   C3B 2207   7.507  16.397   8.406  0.1139  0.0496  0.0316
  138loPI   C4B 2208   7.466  16.601   8.055  0.0064  0.2109  0.1228
  139loPI    C1 2209   7.136  13.152  10.399  0.1878 -0.0240 -0.0443
  139loPI    C2 2210   6.968  13.450  10.192 -0.0874 -0.1205  0.0349
  139loPI    C3 2211   7.175  13.530  10.525 -0.1906 -0.0210  0.0760
  139loPI   PO4 2212   7.322  13.017  10.187  0.2184 -0.1375 -0.5618
  139loPI   GL1 2213   7.438  12.915   9.760 -0.3822  0.1499 -0.0817
  139loPI   GL2 2214   7.344  13.156   9.460 -0.1838 -0.3034 -0.1598
  139loPI   C1A 2215   7.691  12.808   9.280 -0.0898  0.6150  0.1358
  139loPI   C2A 2216   7.565  12.608   8.886  0.0343 -0.3059  0.0287
  139loPI   C3A 2217   7.744  12.415   8.469  0.2203  0.1212  0.1451
  139loPI   C4A 2218   7.912  12.460   8.075 -0.1168 -0.0805  0.0498
  139loPI   C5A 2219   7.851  12.367   7.724  0.0753  0.0065  0.3162
  139loPI   C6A 2220   8.071  12.163   7.394  0.3444 -0.1424 -0.0491
  139loPI   C1B 2221   7.255  12.924   9.098 -0.2350  0.0244 -0.0931
  139loPI   C2B 2222   7.035  12.788   8.706  0.1015 -0.4704  0.1797
  139loPI   C3B 2223   6.963  12.640   8.231 -0.0119 -0.2575  0.0960
  139loPI   C4B 2224   6.838  12.742   7.880  0.1999  0.3190 -0.0861
  140loPI    C1 2225   0.849   2.527  10.198  0.0483  0.1567 -0.2023
  140loPI    C2 2226   0.799   2.387  10.569  0.0019  0.0566 -0.2460
  140loPI    C3 2227   0.890   2.772  10.511 -0.0286  0.0812 -0.1328
  140loPI   PO4 2228   0.584   2.445  10.102  0.5402  0.1688 -0.1203
  140loPI   GL1 2229   0.683   2.190   9.733 -0.2934  0.2014 -0.2142
  140loPI   GL2 2230   0.511   1.949   9.683  0.1353 -0.1222  0.2532
  140loPI   C1A 2231   0.679   2.181   9.237  0.1714 -0.1501 -0.0802
  140loPI   C2A 2232   0.507   2.301   8.977  0.0231 -0.0338  0.3158
  140loPI   C3A 2233   0.268   2.051   8.597 -0.0840  0.0266 -0.2739
  140loPI   C4A 2234  -0.219   2.081   8.538  0.0595  0.2257 -0.2793
  140loPI   C5A 2235  -0.606   1.977   8.444 -0.0977 -0.0610  0.0839
  140loPI   C6A 2236  -1.049   2.213   8.315  0.0433  0.1291  0.0759
  140loPI   C1B 2237   0.390   1.808   9.282  0.2042 -0.0093  0.0008
  140loPI   C2B 2238   0.514   1.773   8.911 -0.1330 -0.1266 -0.0589
  140loPI   C3B 2239   0.560   1.567   8.500 -0.0560 -0.0610  0.1548
  140loPI   C4B 2240   0.574   1.852   8.173  0.4082 -0.0671 -0.0221
  141loPI    C1 2241  11.755  16.655  10.178 -0.0511 -0.0859  0.1859
  141loPI    C2 2242  11.685  16.552  10.558 -0.0588 -0.3708  0.1097
  141loPI    C3 2243  12.012  16.416  10.371  0.0132 -0.1251  0.0532
  141loPI   PO4 2244  11.698  16.941  10.156 -0.1802 -0.1654  0.1406
  141loPI   GL1 2245  11.699  17.211   9.924 -0.3572  0.4469 -0.0189
  141loPI   GL2 2246  11.969  17.387   9.971 -0.2622 -0.3751 -0.0218
  141loPI   C1A 2247  11.169  17.003   9.731  0.1011  0.0215 -0.2019
  141loPI   C2A 2248  10.913  16.954   9.439 -0.0108  0.4019  0.1059
  141loPI   C3A 2249  10.628  16.687   9.103 -0.1955 -0.2982 -0.5431
  141loPI   C4A 2250  10.546  16.507   8.780  0.1325  0.1004 -0.0030
  141loPI   C5A 2251  10.263  16.408   8.557  0.3329  0.1577  0.2511
  141loPI   C6A 2252  10.078  16.334   8.231 -0.4195  0.2732  0.2762
  141loPI   C1B 2253  11.915  17.245   9.508  0.0370  0.1307 -0.1107
  141loPI   C2B 2254  11.999  17.120   9.165  0.2758 -0.0510 -0.0199
  141loPI   C3B 2255  11.961  17.162   8.698 -0.1764  0.1246  0.0884
  141loPI   C4B 2256  11.748  17.050   8.287 -0.0810 -0.0683  0.2264
  142loPI    C1 2257   2.010   7.130  10.449 -0.0387  0.0055 -0.0428
  142loPI    C2 2258   1.726   6.920  10.636 -0.2436  0.0187 -0.3345
  142loPI    C3 2259   2.110   6.866  10.733 -0.3405 -0.0206  0.0420
  142loPI   PO4 2260   1.972   7.137  10.071 -0.0585 -0.1335  0.0524
  142loPI   GL1 2261   2.000   7.240   9.619 -0.3081  0.0245 -0.1291
  142loPI   GL2 2262   1.862   6.918   9.650 -0.1230  0.2169 -0.2740
  142loPI   C1A 2263   2.184   7.350   9.270  0.1722  0.0096  0.1674
  142loPI   C2A 2264   2.180   7.581   8.989  0.1918  0.0961 -0.1504
  142loPI   C3A 2265   2.161   7.947   8.799 -0.1029 -0.0486  0.1547
  142loPI   C4A 2266   2.407   8.234   8.708 -0.2886 -0.1692 -0.1229
  142loPI   C5A 2267   2.767   8.445   8.337 -0.0019  0.3848 -0.1944
  142loPI   C6A 2268   3.142   8.402   8.203 -0.2295 -0.1819  0.1708
  142loPI   C1B 2269   1.480   6.876   9.460  0.0249  0.2081 -0.2884
  142loPI   C2B 2270   1.060   6.740   9.398 -0.0153  0.2715  0.0737
  142loPI   C3B 2271   0.937   6.586   9.112 -0.0656 -0.0339 -0.1126
  142loPI   C4B 2272   0.932   6.059   9.100  0.3744  0.3301 -0.1544
  143loPI    C1 2273   5.516   8.559   9.943 -0.0508  0.0273 -0.0216
  143loPI    C2 2274   5.532   8.703  10.315 -0.0791  0.1005 -0.0484
  143loPI    C3 2275   5.220   8.790  10.081 -0.0824  0.0189 -0.0747
  143loPI   PO4 2276   5.611   8.361   9.929  0.0936  0.0007 -0.1108
  143loPI   GL1 2277   5.948   8.479   9.645  0.2570  0.0516 -0.1188
  143loPI   GL2 2278   5.724   8.466   9.448 -0.2390  0.1901  0.2785
  143loPI   C1A 2279   6.130   8.637   9.304  0.0478 -0.1681  0.2844
  143loPI   C2A 2280   5.996   8.798   8.911 -0.1025 -0.0611 -0.0228
  143loPI   C3A 2281   6.145   8.965   8.494  0.0414  0.0128  0.0134
  143loPI   C4A 2282   6.182   8.977   8.102  0.0944  0.1060  0.3483
  143loPI   C5A 2283   5.978   9.060   7.708  0.2494 -0.1109  0.0240
  143loPI   C6A 2284   5.587   8.842   7.598  0.1311 -0.1703  0.3958
  143loPI   C1B 2285   5.681   8.437   8.985 -0.0618 -0.0103  0.0991
  143loPI   C2B 2286   5.338   8.382   8.792 -0.2337  0.2698  0.5105
  143loPI   C3B 2287   5.068   8.309   8.632 -0.0978 -0.0958  0.0731
  143loPI   C4B 2288   4.851   8.435   8.329 -0.0287 -0.3630  0.1551
  144loPI    C1 2289   8.750  11.845  10.473 -0.0292  0.2156 -0.0348
  144loPI    C2 2290   9.141  11.767  10.439 -0.0369  0.0700  0.1964
  144loPI    C3 2291   9.017  12.073  10.665 -0.0616  0.0484  0.2120
  144loPI   PO4 2292   8.648  11.767  10.190 -0.2540  0.0395 -0.1601
  144loPI   GL1 2293   8.641  11.747   9.855  0.1976  0.2451  0.0060
  144loPI   GL2 2294   8.985  11.853   9.746  0.1666 -0.1820 -0.1932
  144loPI   C1A 2295   8.474  11.634   9.348 -0.0936  0.0733 -0.0899
  144loPI   C2A 2296   8.555  11.779   8.881  0.1206  0.3227  0.2464
  144loPI   C3A 2297   8.517  11.875   8.476  0.0015  0.0007  0.1543
  144loPI   C4A 2298   8.703  11.817   7.970  0.0245  0.0170 -0.3982
  144loPI   C5A 2299   9.094  11.807   7.719 -0.1950  0.2717  0.1612
  144loPI   C6A 2300   9.528  11.826   7.913  0.0268 -0.0322  0.2798
  144loPI   C1B 2301   8.957  11.519   9.487 -0.0877 -0.1974  0.0922
  144loPI   C2B 2302   9.051  11.383   9.187  0.0084 -0.0284 -0.1337
  144loPI   C3B 2303   9.019  11.476   8.760  0.0661  0.0220 -0.2237
  144loPI   C4B 2304   9.137  11.841   8.487 -0.1191  0.1523  0.1941
  145loPI    C1 2305   5.170  16.505  10.126  0.1268 -0.0799  0.2213
  145loPI    C2 2306   4.933  16.217  10.272 -0.3049  0.0079 -0.2785
  145loPI    C3 2307   4.914  16.587  10.422 -0.0577 -0.1173  0.0739
  145loPI   PO4 2308   5.161  16.435   9.828  0.3572 -0.0033  0.0343
  145loPI   GL1 2309   4.845  16.089   9.706  0.0768 -0.3158 -0.1255
  145loPI   GL2 2310   5.150  16.174   9.396  0.2726 -0.1432  0.1084
  145loPI   C1A 2311   4.737  16.019   9.309 -0.1131  0.0207 -0.3826
  145loPI   C2A 2312   4.652  16.109   8.825  0.0839  0.0575 -0.1461
  145loPI   C3A 2313   4.584  16.246   8.387  0.1650 -0.0610 -0.2376
  145loPI   C4A 2314   4.461  16.463   7.960  0.0765  0.1014 -0.0245
  145loPI   C5A 2315   4.421  16.612   7.559  0.2711  0.2800  0.1663
  145loPI   C6A 2316   4.352  16.794   7.145 -0.0108 -0.1872 -0.0072
  145loPI   C1B 2317   5.118  16.033   8.938  0.1594 -0.0603  0.1212
  145loPI   C2B 2318   5.050  16.175   8.525 -0.0395 -0.0151  0.0424
  145loPI   C3B 2319   5.108  16.184   8.113 -0.0739  0.0443  0.0516
  145loPI   C4B 2320   5.093  15.926   7.699 -0.0728  0.0565 -0.1101
  146loPI    C1 2321   6.137   2.329  10.560 -0.0612 -0.0044 -0.0944
  146loPI    C2 2322   6.266   2.162  10.899 -0.1924 -0.1366 -0.1087
  146loPI    C3 2323   6.154   2.546  10.895 -0.0549 -0.0952 -0.0357
  146loPI   PO4 2324   6.284   2.228  10.358 -0.0201  0.2878 -0.0244
  146loPI   GL1 2325   6.275   1.950  10.039 -0.1097  0.0045 -0.1528
  146loPI   GL2 2326   5.979   1.771   9.943  0.0197 -0.0574  0.0296
  146loPI   C1A 2327   6.158   2.057   9.619  0.0621 -0.0290  0.0096
  146loPI   C2A 2328   6.095   2.024   9.162  0.1824  0.1021 -0.0645
  146loPI   C3A 2329   5.971   1.859   8.817 -0.0603 -0.0388 -0.2204
  146loPI   C4A 2330   5.853   2.121   8.439  0.0773  0.0236 -0.0006
  146loPI   C5A 2331   5.756   2.400   8.095  0.0819  0.0830 -0.1404
  146loPI   C6A 2332   6.063   2.703   7.888 -0.0657 -0.0711 -0.2195
  146loPI   C1B 2333   5.919   1.646   9.508 -0.0756  0.0521 -0.1069
  146loPI   C2B 2334   5.856   1.414   8.998 -0.0781 -0.1853  0.3860
  146loPI   C3B 2335   5.799   1.365   8.569 -0.1281  0.0772 -0.1117
  146loPI   C4B 2336   5.790   1.671   8.169  0.1994  0.0173  0.0142
  147loPI    C1 2337  12.154   0.526  10.596 -0.0492 -0.0993 -0.0589
  147loPI    C2 2338  11.771   0.425  10.649 -0.0619 -0.0606 -0.0758
  147loPI    C3 2339  11.995   0.528  10.963 -0.1043  0.0548 -0.0830
  147loPI   PO4 2340  12.159   0.624  10.379 -0.0832  0.2273  0.1454
  147loPI   GL1 2341  12.564   0.767  10.221  0.2360 -0.0403 -0.3250
  147loPI   GL2 2342  12.427   0.833   9.972 -0.1846 -0.3122  0.1308
  147loPI   C1A 2343  13.018   0.866  10.054  0.0579 -0.3365  0.2568
  147loPI   C2A 2344  13.208   1.155   9.735 -0.4463 -0.2966  0.3094
  147loPI   C3A 2345  13.271   1.245   9.232  0.3159 -0.0355 -0.2083
  147loPI   C4A 2346  13.296   1.405   8.829  0.1345  0.0596 -0.0204
  147loPI   C5A 2347  13.220   1.208   8.462  0.1223 -0.2867  0.0218
  147loPI   C6A 2348  12.943   0.913   8.177  0.0222  0.0352 -0.1752
  147loPI   C1B 2349  12.234   0.773   9.561 -0.2632 -0.2937  0.1323
  147loPI   C2B 2350  12.038   0.764   9.110  0.1636  0.1455  0.3888
  147loPI   C3B 2351  12.096   0.759   8.728 -0.0445  0.1217 -0.1105
  147loPI   C4B 2352  11.832   0.766   8.443 -0.2643  0.1538  0.1535
  148loPI    C1 2353  15.212  14.126  10.873 -0.1413 -0.2386  0.1829
  148loPI    C2 2354  15.558  14.325  10.845 -0.1467 -0.2621 -0.0801
  148loPI    C3 2355  15.314  14.389  11.157 -0.0674  0.0115 -0.0712
  148loPI   PO4 2356  15.129  14.102  10.657  0.0087  0.0354 -0.1047
  148loPI   GL1 2357  15.262  14.231  10.210 -0.1877 -0.0337 -0.1381
  148loPI   GL2 2358  14.901  14.354  10.317 -0.2237  0.1260 -0.2424
  148loPI   C1A 2359  15.276  14.470   9.751 -0.3631 -0.2282 -0.3265
  148loPI   C2A 2360  15.310  14.343   9.353  0.1556 -0.0108  0.0280
  148loPI   C3A 2361  15.155  14.310   8.969  0.2026  0.2949 -0.2705
  148loPI   C4A 2362  14.769  14.216   8.774  0.3006 -0.1917  0.0831
  148loPI   C5A 2363  14.712  13.784   8.500 -0.1572 -0.0666  0.1999
  148loPI   C6A 2364  14.686  13.338   8.378  0.0986 -0.1434  0.1736
  148loPI   C1B 2365  14.763  14.534   9.987 -0.0938 -0.3784 -0.0914
  148loPI   C2B 2366  14.720  14.435   9.514  0.0309 -0.1173  0.0195
  148loPI   C3B 2367  14.654  14.545   9.087  0.1679  0.1369  0.1622
  148loPI   C4B 2368  14.472  14.684   8.753 -0.1168  0.1382  0.0836
  149loPI    C1 2369  17.659   1.018  10.668 -0.0436  0.0515  0.0889
  149loPI    C2 2370  17.479   1.374  10.640  0.1371  0.1532  0.2002
  149loPI    C3 2371  17.294   1.071  10.823 -0.0496  0.1660  0.0373
  149loPI   PO4 2372  17.816   1.045  10.420  0.0232  0.1858 -0.0153
  149loPI   GL1 2373  17.603   0.927  10.145  0.1832 -0.1435  0.0493
  149loPI   GL2 2374  17.688   0.686   9.974 -0.3393  0.0327 -0.2620
  149loPI   C1A 2375  17.341   0.980   9.770 -0.0222 -0.1766 -0.1448
  149loPI   C2A 2376  17.212   0.943   9.355  0.0818 -0.2188  0.1262
  149loPI   C3A 2377  17.103   0.938   8.902 -0.1464 -0.0926 -0.1546
  149loPI   C4A 2378  17.116   1.025   8.368  0.2961 -0.0960 -0.0466
  149loPI   C5A 2379  17.515   1.011   8.125  0.2088  0.0338 -0.2606
  149loPI   C6A 2380  17.838   0.794   7.909  0.2794 -0.0284 -0.2611
  149loPI   C1B 2381  17.826   0.524   9.602  0.2164 -0.3438 -0.0392
  149loPI   C2B 2382  17.727   0.284   9.294 -0.0348 -0.0575 -0.0420
  149loPI   C3B 2383  17.708   0.229   8.823 -0.1599 -0.1534  0.1368
  149loPI   C4B 2384  17.882   0.041   8.426  0.1938  0.1499 -0.0220
  150loPI    C1 2385   0.265   3.588  10.548  0.0987 -0.2435  0.0766
  150loPI    C2 2386   0.245   3.889  10.811 -0.0607 -0.1199 -0.0750
  150loPI    C3 2387   0.151   3.518  10.925  0.0443 -0.0972  0.0882
  150loPI   PO4 2388   0.124   3.697  10.353 -0.1399  0.1618  0.0228
  150loPI   GL1 2389   0.228   3.506   9.907  0.0962 -0.4867 -0.5230
  150loPI   GL2 2390   0.274   3.807   9.754 -0.2823  0.0936 -0.0511
  150loPI   C1A 2391  -0.115   3.520   9.601  0.2170 -0.0737 -0.0955
  150loPI   C2A 2392  -0.230   3.548   9.172 -0.3228  0.0493  0.1005
  150loPI   C3A 2393  -0.164   3.714   8.723 -0.0254  0.0554 -0.1546
  150loPI   C4A 2394  -0.208   3.719   8.287 -0.4032  0.3155  0.2220
  150loPI   C5A 2395   0.082   3.735   7.916  0.0154 -0.1194  0.0478
  150loPI   C6A 2396   0.205   3.451   7.517 -0.2876  0.1688  0.1799
  150loPI   C1B 2397   0.259   3.789   9.323 -0.1785  0.1137  0.0915
  150loPI   C2B 2398   0.206   4.030   8.954  0.2490  0.1520 -0.0696
  150loPI   C3B 2399   0.088   4.040   8.507  0.1892 -0.0268  0.0187
  150loPI   C4B 2400   0.121   4.184   8.059  0.1637  0.3186  0.1354
  151loPI    C1 2401  13.703  11.704  10.648  0.1279  0.3492  0.3570
  151loPI    C2 2402  13.663  11.335  10.500 -0.1279  0.5263 -0.0335
  151loPI    C3 2403  13.946  11.412  10.773  0.2208  0.1422 -0.2743
  151loPI   PO4 2404  13.725  11.864  10.403  0.0123  0.1792  0.2130
  151loPI   GL1 2405  13.962  11.999  10.013 -0.0083 -0.0979 -0.0918
  151loPI   GL2 2406  13.886  12.318   9.790  0.1682 -0.0202  0.3916
  151loPI   C1A 2407  14.079  11.649   9.740 -0.0076  0.0030 -0.0772
  151loPI   C2A 2408  14.139  11.795   9.273  0.3941  0.0096 -0.0038
  151loPI   C3A 2409  14.392  11.867   8.882 -0.0383  0.1015 -0.2113
  151loPI   C4A 2410  14.473  11.902   8.492 -0.2293  0.1317 -0.1799
  151loPI   C5A 2411  14.341  11.767   8.090 -0.0043  0.3322 -0.1385
  151loPI   C6A 2412  14.600  11.578   7.827 -0.2451  0.2523 -0.0431
  151loPI   C1B 2413  13.828  12.140   9.502 -0.0457 -0.1188 -0.1334
  151loPI   C2B 2414  13.951  12.296   9.186  0.0186  0.1503 -0.1876
  151loPI   C3B 2415  14.093  12.197   8.739 -0.1074 -0.1280  0.2388
  151loPI   C4B 2416  14.125  12.244   8.237 -0.0539 -0.2436 -0.2079
  152loPI    C1 2417  11.091  11.652  10.378  0.1082 -0.1007 -0.0219
  152loPI    C2 2418  10.704  11.609  10.285  0.1725  0.0963 -0.3979
  152loPI    C3 2419  10.840  11.960  10.421  0.1371 -0.1043  0.1809
  152loPI   PO4 2420  11.249  11.477  10.269  0.1050 -0.0081  0.2321
  152loPI   GL1 2421  11.413  11.281   9.929  0.1113 -0.0137  0.0479
  152loPI   GL2 2422  11.225  11.125   9.841  0.1952  0.0036  0.0863
  152loPI   C1A 2423  11.449  11.540   9.544  0.3180 -0.0889  0.1642
  152loPI   C2A 2424  11.123  11.645   9.172  0.1902 -0.4516 -0.1962
  152loPI   C3A 2425  10.926  11.905   8.897 -0.1171  0.1198 -0.2984
  152loPI   C4A 2426  10.516  11.905   8.634 -0.2187 -0.0248 -0.1488
  152loPI   C5A 2427  10.551  11.898   8.236  0.0840  0.2079  0.2724
  152loPI   C6A 2428  10.516  12.065   7.862  0.0481  0.0334 -0.0864
  152loPI   C1B 2429  11.235  11.088   9.410  0.0137 -0.0483 -0.0380
  152loPI   C2B 2430  11.493  11.342   9.023 -0.1138 -0.4555  0.0473
  152loPI   C3B 2431  11.291  11.593   8.689  0.2733 -0.1650  0.0954
  152loPI   C4B 2432  10.879  11.572   8.524  0.1701  0.0414  0.0075
  153loPI    C1 2433  13.665   3.270  10.406  0.1880  0.0495  0.1770
  153loPI    C2 2434  13.361   3.063  10.563  0.2416  0.0580  0.2932
  153loPI    C3 2435  13.421   3.443  10.671  0.1796  0.1164  0.1259
  153loPI   PO4 2436  13.836   3.034  10.373  0.0471 -0.0729 -0.0350
  153loPI   GL1 2437  14.068   2.918   9.967 -0.1478  0.1599  0.0949
  153loPI   GL2 2438  14.351   2.717   9.955  0.0549 -0.1867 -0.0226
  153loPI   C1A 2439  14.184   2.850   9.467  0.1310 -0.0950 -0.1106
  153loPI   C2A 2440  14.165   2.597   9.099 -0.0595  0.3888 -0.0825
  153loPI   C3A 2441  14.172   2.770   8.682 -0.0147 -0.0996  0.1214
  153loPI   C4A 2442  14.572   2.791   8.445 -0.0407  0.2825  0.1053
  153loPI   C5A 2443  14.955   2.539   8.235  0.2591 -0.1647 -0.0483
  153loPI   C6A 2444  15.254   2.819   8.043 -0.1845 -0.2234  0.0957
  153loPI   C1B 2445  14.145   2.384   9.760  0.4752  0.0660 -0.0483
  153loPI   C2B 2446  14.344   2.127   9.437 -0.2436  0.2267  0.0381
  153loPI   C3B 2447  14.579   2.238   9.051  0.0437  0.0209 -0.0497
  153loPI   C4B 2448  14.785   2.562   8.836  0.1084 -0.1398  0.0216
  154loPI    C1 2449   7.516   6.878  10.531  0.0946  0.0485 -0.0704
  154loPI    C2 2450   7.733   6.774  10.851  0.0519  0.0570 -0.0387
  154loPI    C3 2451   7.336   6.808  10.881  0.0352 -0.0578 -0.1217
  154loPI   PO4 2452   7.531   6.739  10.314 -0.2667  0.1531  0.2645
  154loPI   GL1 2453   7.615   6.889   9.860  0.0866  0.1679 -0.0612
  154loPI   GL2 2454   7.893   6.910   9.975 -0.1014  0.3244 -0.1968
  154loPI   C1A 2455   7.585   6.966   9.521 -0.1353  0.0730  0.1752
  154loPI   C2A 2456   7.522   6.713   9.143 -0.1267 -0.0978 -0.2335
  154loPI   C3A 2457   7.321   6.553   8.998  0.0229  0.1027  0.0331
  154loPI   C4A 2458   7.066   6.616   8.573 -0.0477 -0.0850 -0.1828
  154loPI   C5A 2459   6.791   6.523   8.371  0.3124  0.0530  0.0859
  154loPI   C6A 2460   6.434   6.640   8.346  0.1925  0.0638 -0.0054
  154loPI   C1B 2461   8.076   6.911   9.658 -0.0175 -0.1359  0.1855
  154loPI   C2B 2462   7.968   6.824   9.220 -0.0221 -0.0712  0.4179
  154loPI   C3B 2463   7.926   6.611   8.813 -0.1362 -0.0108  0.0586
  154loPI   C4B 2464   7.927   6.650   8.416  0.1629 -0.0769  0.0489
  155loPI    C1 2465  18.035  17.683  10.605  0.0926  0.1411 -0.0414
  155loPI    C2 2466  17.877  17.618  10.967 -0.0835  0.0028 -0.1414
  155loPI    C3 2467  18.269  17.568  10.908 -0.0709 -0.0763  0.0058
  155loPI   PO4 2468  17.972  17.440  10.369  0.2279  0.4413  0.1006
  155loPI   GL1 2469  17.882  16.986  10.270 -0.2042  0.1345 -0.4646
  155loPI   GL2 2470  17.660  16.796  10.184  0.1636 -0.0132  0.2144
  155loPI   C1A 2471  17.836  17.179   9.849 -0.2760  0.2072 -0.1526
  155loPI   C2A 2472  17.856  17.287   9.437 -0.0084 -0.2139  0.0974
  155loPI   C3A 2473  17.790  17.475   9.123 -0.1858  0.0292  0.1179
  155loPI   C4A 2474  17.949  17.741   8.660 -0.0656 -0.1000 -0.2234
  155loPI   C5A 2475  17.928  17.797   8.227  0.1173 -0.3936 -0.2986
  155loPI   C6A 2476  17.810  17.702   7.756  0.1959 -0.2005 -0.0170
  155loPI   C1B 2477  17.887  16.641   9.793  0.1810 -0.2710  0.0622
  155loPI   C2B 2478  17.916  16.416   9.346  0.0024 -0.3074 -0.0765
  155loPI   C3B 2479  17.882  16.259   8.912  0.4989 -0.0557 -0.1235
  155loPI   C4B 2480  18.060  16.250   8.493 -0.2627  0.3243  0.0942
  156loPI    C1 2481  12.060  12.530  10.071  0.1287  0.2909 -0.1221
  156loPI    C2 2482  11.826  12.504  10.394  0.1508 -0.0989 -0.1324
  156loPI    C3 2483  11.707  12.718  10.078 -0.1056 -0.1376 -0.0646
  156loPI   PO4 2484  12.262  12.596  10.088 -0.2355  0.0055  0.3860
  156loPI   GL1 2485  12.454  12.745   9.793  0.3795  0.1358  0.0456
  156loPI   GL2 2486  12.729  12.742   9.837 -0.4238 -0.0142 -0.1103
  156loPI   C1A 2487  12.379  12.647   9.363 -0.3112  0.2802  0.1978
  156loPI   C2A 2488  12.452  12.517   8.914 -0.1488 -0.2016 -0.0357
  156loPI   C3A 2489  12.621  12.210   8.581  0.1055  0.0268  0.2439
  156loPI   C4A 2490  12.787  11.735   8.505  0.0782  0.1989  0.1626
  156loPI   C5A 2491  12.882  11.409   8.289  0.0742 -0.0770 -0.3199
  156loPI   C6A 2492  12.774  11.351   7.850  0.0685  0.0887 -0.2372
  156loPI   C1B 2493  13.042  12.717   9.484 -0.2519  0.2488 -0.1389
  156loPI   C2B 2494  13.275  12.819   9.117  0.0305 -0.1410 -0.1067
  156loPI   C3B 2495  13.296  13.214   8.892 -0.2639  0.2607 -0.2126
  156loPI   C4B 2496  13.385  13.469   8.499 -0.1103 -0.2200 -0.3225
  157loPI    C1 2497   4.518  17.909  10.061  0.1254 -0.1570 -0.1590
  157loPI    C2 2498   4.883  18.059  10.124 -0.0830  0.3084 -0.0173
  157loPI    C3 2499   4.616  18.052  10.421 -0.1638 -0.1152 -0.0944
  157loPI   PO4 2500   4.425  18.059   9.847  0.6418 -0.2854  0.0703
  157loPI   GL1 2501   4.324  18.284   9.534 -0.2164  0.2359  0.3034
  157loPI   GL2 2502   4.122  18.211   9.395  0.2454 -0.0832 -0.1215
  157loPI   C1A 2503   4.391  18.435   9.064  0.0442 -0.0825 -0.0185
  157loPI   C2A 2504   4.318  18.340   8.571  0.0672  0.1433  0.0866
  157loPI   C3A 2505   4.473  18.105   8.207  0.0163  0.1521 -0.1697
  157loPI   C4A 2506   4.674  17.747   7.888  0.1000  0.3782  0.3320
  157loPI   C5A 2507   4.652  17.303   7.626  0.3029 -0.0051  0.0322
  157loPI   C6A 2508   4.804  16.938   7.376  0.1105 -0.1560 -0.0290
  157loPI   C1B 2509   4.063  18.051   8.916 -0.0646  0.0751 -0.0481
  157loPI   C2B 2510   4.057  17.844   8.474  0.1631  0.0662 -0.2097
  157loPI   C3B 2511   4.183  17.688   8.176  0.0574  0.0037  0.1088
  157loPI   C4B 2512   4.157  17.537   7.763  0.0404 -0.1326 -0.3602
  158loPI    C1 2513   3.990   5.807  10.184 -0.2014 -0.1553  0.1076
  158loPI    C2 2514   4.296   5.551  10.159 -0.0084  0.0959 -0.1645
  158loPI    C3 2515   4.172   5.679  10.517 -0.0578 -0.3136 -0.0299
  158loPI   PO4 2516   3.753   5.738  10.041 -0.1467 -0.0191 -0.0121
  158loPI   GL1 2517   3.750   5.541   9.745 -0.1066  0.0820  0.3361
  158loPI   GL2 2518   3.819   5.241   9.767 -0.1848  0.2862  0.1014
  158loPI   C1A 2519   3.699   5.548   9.389 -0.3451 -0.1373  0.1904
  158loPI   C2A 2520   3.725   5.718   8.966  0.1365 -0.1258 -0.1055
  158loPI   C3A 2521   3.572   5.636   8.576  0.0125 -0.2180  0.1847
  158loPI   C4A 2522   3.239   5.564   8.199 -0.0877 -0.0681 -0.1966
  158loPI   C5A 2523   2.979   5.342   7.776 -0.1626  0.1691 -0.2321
  158loPI   C6A 2524   2.860   5.240   7.308  0.2308  0.1622 -0.0010
  158loPI   C1B 2525   3.930   5.047   9.364 -0.0834 -0.1466 -0.1225
  158loPI   C2B 2526   4.061   4.920   9.023 -0.1209 -0.0617  0.3545
  158loPI   C3B 2527   4.225   4.824   8.583  0.1164 -0.2565 -0.0858
  158loPI   C4B 2528   4.047   4.935   8.151  0.2995 -0.2762  0.2246
  159loPI    C1 2529   5.019  16.956   9.898  0.0584 -0.0507  0.0477
  159loPI    C2 2530   5.164  17.203  10.177  0.1307 -0.0847  0.0406
  159loPI    C3 2531   5.414  17.004   9.937  0.0649  0.0897 -0.1755
  159loPI   PO4 2532   4.683  17.205   9.823 -0.3683  0.1429  0.1302
  159loPI   GL1 2533   4.661  17.309   9.391  0.0789  0.2556  0.2043
  159loPI   GL2 2534   4.993  17.090   9.389 -0.1133  0.0599 -0.3663
  159loPI   C1A 2535   4.795  17.521   8.976 -0.0405  0.0201  0.2375
  159loPI   C2A 2536   5.190  17.467   8.941  0.0561  0.1424 -0.0912
  159loPI   C3A 2537   5.463  17.372   8.610  0.0582 -0.2276  0.1932
  159loPI   C4A 2538   5.876  17.408   8.334 -0.2541  0.2382  0.0006
  159loPI   C5A 2539   6.063  17.402   7.940 -0.0094  0.1470 -0.2368
  159loPI   C6A 2540   6.058  17.640   7.525  0.4791 -0.3765 -0.0784
  159loPI   C1B 2541   5.062  16.986   8.981 -0.0641 -0.2905 -0.0579
  159loPI   C2B 2542   5.167  16.964   8.566  0.2467 -0.2161 -0.0316
  159loPI   C3B 2543   5.474  17.094   8.254 -0.0026  0.0648 -0.1927
  159loPI   C4B 2544   5.683  17.134   7.855  0.0181 -0.0167 -0.1308
  160loPI    C1 2545   9.263  10.118  10.324 -0.1823 -0.0066  0.0745
  160loPI    C2 2546   9.380   9.771  10.484 -0.1152  0.0715  0.1964
  160loPI    C3 2547   9.384  10.104  10.705  0.0784  0.2010  0.0022
  160loPI   PO4 2548   9.449  10.068  10.080  0.2860 -0.0754  0.0601
  160loPI   GL1 2549   9.563  10.260   9.734  0.2331  0.0958  0.1195
  160loPI   GL2 2550   9.756   9.998   9.700 -0.2486 -0.0531 -0.1577
  160loPI   C1A 2551   9.636  10.385   9.334  0.1745 -0.0062  0.3045
  160loPI   C2A 2552   9.673  10.446   8.915 -0.1495  0.1157  0.1014
  160loPI   C3A 2553   9.888  10.298   8.582 -0.1590  0.0187  0.3707
  160loPI   C4A 2554  10.160  10.193   8.317  0.0654 -0.0519 -0.2892
  160loPI   C5A 2555  10.197  10.552   8.058 -0.1779 -0.2330 -0.0711
  160loPI   C6A 2556  10.532  10.787   7.914 -0.1147  0.0255  0.0629
  160loPI   C1B 2557   9.792   9.932   9.286 -0.2266 -0.2128 -0.0392
  160loPI   C2B 2558   9.846   9.910   8.853  0.0484 -0.1787  0.1462
  160loPI   C3B 2559  10.018   9.784   8.469  0.2321  0.1032  0.0393
  160loPI   C4B 2560  10.251   9.712   8.084  0.1997 -0.2290  0.0285
  161loPI    C1 2561  13.063  13.022  10.442  0.0090 -0.0321 -0.2263
  161loPI    C2 2562  13.181  12.642  10.485  0.0586  0.0178  0.1101
  161loPI    C3 2563  12.884  12.786  10.711  0.1240  0.2145  0.0728
  161loPI   PO4 2564  12.987  13.026  10.182 -0.2631 -0.2216  0.5134
  161loPI   GL1 2565  13.207  13.126   9.904 -0.0507 -0.0721  0.3826
  161loPI   GL2 2566  13.539  13.033   9.688 -0.0680  0.0023  0.0636
  161loPI   C1A 2567  13.093  13.226   9.457 -0.1433  0.0702 -0.2343
  161loPI   C2A 2568  12.916  13.403   9.060 -0.1768  0.1272 -0.0930
  161loPI   C3A 2569  12.863  13.434   8.629 -0.2555  0.2545  0.1697
  161loPI   C4A 2570  13.010  13.746   8.232 -0.1275 -0.0107 -0.0162
  161loPI   C5A 2571  13.100  13.738   7.848 -0.0971 -0.0766 -0.0313
  161loPI   C6A 2572  13.077  13.949   7.452 -0.0262 -0.0824  0.3476
  161loPI   C1B 2573  13.770  13.114   9.294  0.1307  0.2435  0.3914
  161loPI   C2B 2574  13.896  13.166   8.809  0.0009 -0.1942 -0.3981
  161loPI   C3B 2575  13.841  13.256   8.475  0.3559  0.1716  0.2324
  161loPI   C4B 2576  13.797  13.100   8.013  0.1079  0.1359 -0.2552
  162loPI    C1 2577  10.581   7.662  10.479  0.1698 -0.0825 -0.1278
  162loPI    C2 2578  10.646   8.021  10.642 -0.1660 -0.0935  0.0404
  162loPI    C3 2579  10.776   7.690  10.827 -0.0091 -0.0705 -0.0271
  162loPI   PO4 2580  10.364   7.678  10.361  0.1897  0.0808 -0.0728
  162loPI   GL1 2581  10.387   7.768   9.914 -0.0170 -0.1290 -0.0872
  162loPI   GL2 2582  10.060   7.783   9.812 -0.4094 -0.0993 -0.1839
  162loPI   C1A 2583  10.469   7.527   9.593  0.1852 -0.0021  0.1321
  162loPI   C2A 2584  10.595   7.382   9.199 -0.2463 -0.1541 -0.1508
  162loPI   C3A 2585  10.566   7.372   8.883  0.2416 -0.1323  0.0288
  162loPI   C4A 2586  10.527   7.360   8.477  0.0417 -0.2462 -0.2656
  162loPI   C5A 2587  10.826   6.975   8.216 -0.0562 -0.2841  0.0890
  162loPI   C6A 2588  11.201   6.887   8.461  0.2684  0.0993 -0.1492
  162loPI   C1B 2589  10.094   7.885   9.388  0.2848  0.2343  0.1483
  162loPI   C2B 2590  10.141   7.870   9.044  0.1361  0.1211  0.0788
  162loPI   C3B 2591  10.204   7.715   8.741  0.3215  0.0196  0.2346
  162loPI   C4B 2592  10.048   7.260   8.592 -0.1788 -0.1826 -0.0709
  163loPI    C1 2593   2.384   6.869  10.113  0.1132 -0.1842  0.1201
  163loPI    C2 2594   2.339   6.473  10.084 -0.0122 -0.1475 -0.2347
  163loPI    C3 2595   2.043   6.697  10.234  0.0128 -0.1749 -0.1435
  163loPI   PO4 2596   2.473   6.954   9.860 -0.1279  0.3568  0.2858
  163loPI   GL1 2597   2.315   6.843   9.455  0.0228 -0.1103  0.4494
  163loPI   GL2 2598   2.566   7.046   9.403 -0.3101  0.2687  0.0068
  163loPI   C1A 2599   1.955   6.974   9.174  0.0413 -0.1509 -0.3251
  163loPI   C2A 2600   2.005   7.136   8.853  0.1650  0.1034  0.1304
  163loPI   C3A 2601   2.195   7.010   8.487  0.0443 -0.2146 -0.2590
  163loPI   C4A 2602   2.408   6.819   8.149 -0.0589  0.1091  0.2705
  163loPI   C5A 2603   2.494   6.364   8.064 -0.1152 -0.1150 -0.0228
  163loPI   C6A 2604   2.903   6.119   7.977  0.3354 -0.2489 -0.2289
  163loPI   C1B 2605   2.530   7.059   8.964 -0.0001  0.0058 -0.1747
  163loPI   C2B 2606   2.643   7.405   8.667  0.1090 -0.1165 -0.2610
  163loPI   C3B 2607   2.429   7.743   8.446  0.2626 -0.0863 -0.2412
  163loPI   C4B 2608   2.290   8.118   8.205 -0.2077 -0.0400  0.2510
  164loPI    C1 2609   8.959  10.951  10.566  0.0269  0.0594 -0.3419
  164loPI    C2 2610   8.602  10.784  10.633  0.1122 -0.0367 -0.1202
  164loPI    C3 2611   8.721  11.097  10.852  0.1200  0.0627 -0.2657
  164loPI   PO4 2612   8.969  10.957  10.283  0.1157 -0.0251 -0.2483
  164loPI   GL1 2613   8.795  10.683   9.894 -0.1617  0.3716  0.3649
  164loPI   GL2 2614   8.444  10.762   9.759  0.1144 -0.1054 -0.2011
  164loPI   C1A 2615   8.949  10.540   9.498  0.1104 -0.4022  0.2817
  164loPI   C2A 2616   9.138  10.501   9.182  0.1692 -0.0328 -0.1447
  164loPI   C3A 2617   9.159  10.594   8.769  0.0214 -0.0655  0.0063
  164loPI   C4A 2618   9.313  10.525   8.373  0.1326  0.1537 -0.2165
  164loPI   C5A 2619   9.461  10.387   7.940 -0.2473 -0.0176 -0.0445
  164loPI   C6A 2620   9.519  10.397   7.570  0.2189 -0.1728 -0.2053
  164loPI   C1B 2621   8.467  10.659   9.333 -0.0485  0.1285 -0.1432
  164loPI   C2B 2622   8.371  10.672   8.945  0.0430 -0.2065 -0.0440
  164loPI   C3B 2623   8.453  10.633   8.575 -0.0445  0.0121 -0.1127
  164loPI   C4B 2624   8.454  10.933   8.233 -0.0536 -0.5148  0.2531
  165loPI    C1 2625  15.754  13.779  10.822  0.0632  0.1618 -0.0556
  165loPI    C2 2626  15.643  13.932  11.174  0.2558  0.2651 -0.0389
  165loPI    C3 2627  15.740  13.545  11.146  0.1836  0.2433  0.0090
  165loPI   PO4 2628  15.822  13.919  10.684 -0.1679  0.0775  0.1219
  165loPI   GL1 2629  15.776  14.002  10.364 -0.0046  0.1296 -0.1848
  165loPI   GL2 2630  16.100  14.004  10.163  0.0756 -0.2107  0.1909
  165loPI   C1A 2631  15.641  14.012  10.004 -0.2294  0.4588 -0.1167
  165loPI   C2A 2632  15.527  13.995   9.575 -0.0486  0.2040  0.0221
  165loPI   C3A 2633  15.498  13.914   9.149  0.0147  0.1079  0.3101
  165loPI   C4A 2634  15.622  13.794   8.762  0.0611  0.2088  0.0258
  165loPI   C5A 2635  15.758  13.431   8.520 -0.2819  0.1073  0.2189
  165loPI   C6A 2636  16.184  13.218   8.502  0.1083 -0.1939 -0.0770
  165loPI   C1B 2637  16.034  13.953   9.634 -0.0458  0.3487 -0.1376
  165loPI   C2B 2638  15.965  13.952   9.308  0.0856  0.0841  0.0232
  165loPI   C3B 2639  15.864  14.230   8.919  0.0674  0.2247 -0.1834
  165loPI   C4B 2640  15.630  14.260   8.642 -0.1892 -0.2356  0.0119
  166loPI    C1 2641   6.606   1.925  10.633  0.0691  0.1239  0.1447
  166loPI    C2 2642   6.467   1.698  10.931  0.0530 -0.0967 -0.0280
  166loPI    C3 2643   6.768   1.953  10.998  0.2219 -0.3298  0.1179
  166loPI   PO4 2644   6.635   1.699  10.441 -0.0291  0.1565 -0.0137
  166loPI   GL1 2645   6.804   1.778   9.972 -0.2913  0.1119  0.1160
  166loPI   GL2 2646   6.744   2.102  10.118 -0.0534 -0.1687 -0.0856
  166loPI   C1A 2647   7.193   2.012   9.805  0.0629  0.0663 -0.0387
  166loPI   C2A 2648   7.448   2.222   9.559  0.0401  0.0253  0.1573
  166loPI   C3A 2649   7.908   2.349   9.278  0.0703  0.0401 -0.1426
  166loPI   C4A 2650   8.116   2.434   8.915 -0.1400 -0.2111  0.1329
  166loPI   C5A 2651   8.261   2.461   8.577  0.2440  0.1558  0.1942
  166loPI   C6A 2652   8.289   2.750   8.277  0.0895  0.1622 -0.4066
  166loPI   C1B 2653   6.618   2.164   9.641  0.0765 -0.0506 -0.3670
  166loPI   C2B 2654   6.530   2.156   9.274  0.1156 -0.0806  0.0958
  166loPI   C3B 2655   6.467   2.117   8.834  0.2527  0.1321 -0.0398
  166loPI   C4B 2656   6.475   2.020   8.374 -0.0812 -0.1068 -0.0123
  167loPI    C1 2657   3.580  18.012  10.230  0.2695 -0.0133  0.0306
  167loPI    C2 2658   3.381  17.941  10.570  0.0254  0.3264 -0.0350
  167loPI    C3 2659   3.772  17.858  10.545 -0.0656 -0.1954  0.1508
  167loPI   PO4 2660   3.423  17.901   9.989  0.2232 -0.0730 -0.0671
  167loPI   GL1 2661   3.463  18.063   9.577 -0.1643 -0.0580 -0.1131
  167loPI   GL2 2662   3.601  18.182   9.360  0.1937  0.0402  0.1379
  167loPI   C1A 2663   3.155  17.948   9.166 -0.0765 -0.2371  0.1416
  167loPI   C2A 2664   3.106  17.947   8.744 -0.1560  0.2786 -0.2325
  167loPI   C3A 2665   2.945  17.733   8.441  0.0247 -0.1691  0.0921
  167loPI   C4A 2666   2.727  17.432   8.213 -0.1713 -0.1272 -0.1872
  167loPI   C5A 2667   2.415  17.138   8.057  0.1079  0.2985 -0.0589
  167loPI   C6A 2668   2.449  16.929   7.777  0.1150 -0.0508 -0.3441
  167loPI   C1B 2669   3.607  18.115   8.993  0.0523  0.2866 -0.0050
  167loPI   C2B 2670   3.638  18.123   8.596  0.1151 -0.1194 -0.0815
  167loPI   C3B 2671   3.899  18.194   8.223  0.1043  0.3407  0.2228
  167loPI   C4B 2672   4.123  18.059   7.823  0.1778  0.0377  0.1461
  168loPI    C1 2673  16.379   0.670  10.561  0.1326 -0.0608  0.0023
  168loPI    C2 2674  16.128   0.975  10.503  0.1615 -0.0748 -0.2047
  168loPI    C3 2675  16.418   1.004  10.777 -0.0062 -0.0232 -0.0300
  168loPI   PO4 2676  16.203   0.488  10.351 -0.0855 -0.3096 -0.3312
  168loPI   GL1 2677  15.831   0.705  10.052 -0.2363 -0.0643 -0.3013
  168loPI   GL2 2678  15.857   1.008  10.009 -0.2419 -0.3176 -0.4137
  168loPI   C1A 2679  15.909   0.514   9.702  0.0594 -0.0309  0.3529
  168loPI   C2A 2680  15.996   0.593   9.171 -0.1237 -0.2255  0.1028
  168loPI   C3A 2681  16.081   0.657   8.851 -0.3174 -0.1325 -0.0299
  168loPI   C4A 2682  16.206   0.619   8.456  0.0865  0.2159 -0.0044
  168loPI   C5A 2683  16.222   0.703   8.116  0.0524 -0.1227  0.0100
  168loPI   C6A 2684  16.142   0.872   7.720  0.1030 -0.2172 -0.0380
  168loPI   C1B 2685  15.847   1.040   9.529  0.0210 -0.0290 -0.0438
  168loPI   C2B 2686  16.108   1.204   9.153 -0.2313  0.0062 -0.0565
  168loPI   C3B 2687  16.346   1.123   8.675  0.0882 -0.4552  0.1969
  168loPI   C4B 2688  16.652   1.035   8.410  0.3392  0.2264 -0.1613
  169loPI    C1 2689  12.607   5.395  10.823  0.2003  0.0902 -0.0351
  169loPI    C2 2690  12.426   5.689  10.622  0.0369  0.0097 -0.0080
  169loPI    C3 2691  12.612   5.768  10.967 -0.0160  0.0792  0.0048
  169loPI   PO4 2692  12.714   5.283  10.629  0.0010 -0.1543  0.0428
  169loPI   GL1 2693  12.543   4.979  10.273  0.1863 -0.3886  0.2293
  169loPI   GL2 2694  12.305   5.264  10.310  0.0726  0.0881 -0.1246
  169loPI   C1A 2695  12.487   5.127   9.866 -0.1803  0.0378  0.1999
  169loPI   C2A 2696  12.462   5.452   9.491 -0.0424  0.0134 -0.0592
  169loPI   C3A 2697  12.566   5.849   9.201  0.2666  0.0435  0.0839
  169loPI   C4A 2698  12.657   5.833   8.738  0.1840 -0.4989  0.3016
  169loPI   C5A 2699  12.600   5.689   8.327  0.1461  0.0631  0.2219
  169loPI   C6A 2700  12.438   5.680   7.992  0.1134 -0.1055 -0.1182
  169loPI   C1B 2701  12.281   5.635   9.973 -0.1887  0.0042 -0.2029
  169loPI   C2B 2702  12.633   5.963   9.771  0.2495 -0.0384  0.0793
  169loPI   C3B 2703  12.968   5.865   9.571  0.1624  0.2169 -0.2381
  169loPI   C4B 2704  13.282   5.970   9.583 -0.2248  0.3775 -0.3613
  170loPI    C1 2705   1.826   6.214  10.271  0.1718 -0.3025  0.0068
  170loPI    C2 2706   1.752   6.423  10.604  0.2408 -0.2583 -0.0054
  170loPI    C3 2707   2.122   6.290  10.529  0.2082 -0.3384 -0.0244
  170loPI   PO4 2708   1.734   6.355  10.033  0.3166  0.0983 -0.1823
  170loPI   GL1 2709   2.011   6.454   9.661  0.0499 -0.1762 -0.0525
  170loPI   GL2 2710   2.275   6.232   9.414 -0.1193 -0.1122 -0.1673
  170loPI   C1A 2711   1.852   6.503   9.250 -0.1573  0.1538  0.1233
  170loPI   C2A 2712   1.389   6.354   9.155 -0.2463 -0.1738  0.1188
  170loPI   C3A 2713   1.245   6.393   8.731 -0.0479 -0.3069  0.2277
  170loPI   C4A 2714   1.142   6.303   8.275 -0.0109  0.0338  0.0684
  170loPI   C5A 2715   1.054   6.170   7.904 -0.1746  0.1379  0.6366
  170loPI   C6A 2716   0.673   6.271   7.666 -0.0941  0.3024  0.0453
  170loPI   C1B 2717   2.174   5.949   9.116  0.1250  0.0639 -0.0430
  170loPI   C2B 2718   1.994   5.747   8.734  0.4701  0.2707 -0.2828
  170loPI   C3B 2719   2.412   5.581   8.540  0.1643  0.3778  0.1634
  170loPI   C4B 2720   2.612   5.342   8.136 -0.0684 -0.0532  0.0313
  171loPI    C1 2721   9.615  13.849   9.968  0.0578  0.2436 -0.0102
  171loPI    C2 2722   9.737  13.487  10.085 -0.3051  0.0743 -0.1398
  171loPI    C3 2723   9.705  13.782  10.352  0.0450  0.0297 -0.0432
  171loPI   PO4 2724   9.777  13.944   9.835 -0.1789 -0.0698 -0.0261
  171loPI   GL1 2725   9.831  14.195   9.505 -0.1219  0.0735  0.3118
  171loPI   GL2 2726   9.582  14.321   9.297  0.0171  0.2100  0.2017
  171loPI   C1A 2727  10.035  14.250   9.145  0.0298 -0.1282 -0.2413
  171loPI   C2A 2728  10.204  14.257   8.706 -0.0625 -0.1958  0.0328
  171loPI   C3A 2729  10.301  14.306   8.338 -0.0121 -0.0063  0.1829
  171loPI   C4A 2730  10.413  14.331   7.979  0.1699 -0.1515  0.2510
  171loPI   C5A 2731  10.244  14.164   7.737  0.0048  0.2610 -0.2623
  171loPI   C6A 2732  10.238  14.105   7.325  0.1975 -0.2007 -0.0048
  171loPI   C1B 2733   9.303  14.477   9.049 -0.3367  0.2783  0.0848
  171loPI   C2B 2734   9.246  14.310   8.647 -0.4695  0.1018  0.0538
  171loPI   C3B 2735   9.266  13.996   8.299  0.0566 -0.0148  0.3321
  171loPI   C4B 2736   9.008  13.886   8.027  0.0595  0.2232  0.2725
  172loPI    C1 2737  10.405  14.556  10.339 -0.0207 -0.2533  0.0395
  172loPI    C2 2738  10.626  14.232  10.417  0.2501 -0.0430  0.1640
  172loPI    C3 2739  10.605  14.529  10.684 -0.0467  0.0168  0.0782
  172loPI   PO4 2740  10.498  14.670  10.151 -0.1139  0.1056 -0.1513
  172loPI   GL1 2741  10.337  14.760   9.681 -0.0572 -0.1584 -0.4436
  172loPI   GL2 2742  10.170  14.618   9.501 -0.3206 -0.0060  0.1936
  172loPI   C1A 2743  10.645  14.887   9.428 -0.0231  0.3100 -0.1603
  172loPI   C2A 2744  10.855  14.892   9.113 -0.0641 -0.0917 -0.0169
  172loPI   C3A 2745  11.012  14.931   8.622 -0.1287  0.1046 -0.2008
  172loPI   C4A 2746  11.201  14.843   8.225  0.0173 -0.1100 -0.0909
  172loPI   C5A 2747  11.516  14.779   7.941  0.1032 -0.1762  0.0647
  172loPI   C6A 2748  11.674  14.543   7.668 -0.2416 -0.0561 -0.1539
  172loPI   C1B 2749  10.397  14.688   9.087  0.2651 -0.0950  0.2946
  172loPI   C2B 2750  10.597  14.670   8.747 -0.3512  0.1686  0.2129
  172loPI   C3B 2751  10.743  14.621   8.315  0.0579 -0.4032  0.0279
  172loPI   C4B 2752  10.737  14.722   7.931 -0.0760  0.0245  0.1658
  173loPI    C1 2753   8.935   5.016  10.601 -0.0365 -0.1091 -0.2737
  173loPI    C2 2754   9.161   4.897  10.293 -0.0618 -0.4114 -0.1790
  173loPI    C3 2755   9.286   4.836  10.668  0.0312  0.0753 -0.1242
  173loPI   PO4 2756   8.855   5.297  10.453 -0.1002  0.1444 -0.0377
  173loPI   GL1 2757   9.120   5.460  10.102  0.0180 -0.1312 -0.1218
  173loPI   GL2 2758   8.904   5.172   9.969 -0.1458  0.1529  0.1011
  173loPI   C1A 2759   8.855   5.598   9.740 -0.3568 -0.1743 -0.1537
  173loPI   C2A 2760   8.814   5.565   9.284  0.0789 -0.3126  0.2605
  173loPI   C3A 2761   8.677   5.597   8.864 -0.2335 -0.0502 -0.0183
  173loPI   C4A 2762   8.525   5.744   8.522 -0.1585  0.1053 -0.2132
  173loPI   C5A 2763   8.442   5.996   8.222 -0.2454 -0.3214 -0.2496
  173loPI   C6A 2764   8.389   6.455   8.036  0.0595 -0.2043 -0.0787
  173loPI   C1B 2765   8.725   5.090   9.549  0.0893 -0.1836  0.1240
  173loPI   C2B 2766   9.006   4.954   9.271 -0.3176  0.0499 -0.1688
  173loPI   C3B 2767   9.174   4.803   8.904  0.0850 -0.2486 -0.0405
  173loPI   C4B 2768   9.430   4.777   8.589  0.2112  0.1681  0.3161
  174loPI    C1 2769   7.333  13.437   9.879  0.1307 -0.4379  0.1503
  174loPI    C2 2770   7.336  13.773  10.096  0.0458 -0.0437 -0.4386
  174loPI    C3 2771   7.566  13.464  10.203 -0.0288  0.1180  0.2283
  174loPI   PO4 2772   7.296  13.592   9.634  0.1335  0.0747  0.1215
  174loPI   GL1 2773   7.528  13.695   9.383 -0.1919 -0.4437  0.1582
  174loPI   GL2 2774   7.716  13.522   9.296 -0.0615  0.2058  0.1077
  174loPI   C1A 2775   7.468  13.786   8.950  0.0804  0.1575 -0.0132
  174loPI   C2A 2776   7.436  13.693   8.550  0.1421  0.0269  0.4355
  174loPI   C3A 2777   7.593  13.404   8.276 -0.0161 -0.0161 -0.2291
  174loPI   C4A 2778   7.768  12.945   8.136 -0.1573 -0.0210  0.0684
  174loPI   C5A 2779   8.091  12.905   7.832 -0.3288 -0.1448 -0.0527
  174loPI   C6A 2780   8.352  12.592   7.714  0.0412 -0.1027 -0.0398
  174loPI   C1B 2781   7.601  13.266   8.919  0.0902  0.1314 -0.1010
  174loPI   C2B 2782   7.633  12.998   8.635  0.2991 -0.1687 -0.1928
  174loPI   C3B 2783   7.416  12.800   8.426 -0.1488  0.1460 -0.2346
  174loPI   C4B 2784   7.406  12.547   8.049 -0.5146  0.0962 -0.0441
  175loPI    C1 2785   9.785   4.498  10.736 -0.2364 -0.0987  0.0752
  175loPI    C2 2786   9.479   4.253  10.816 -0.1308 -0.1097  0.4644
  175loPI    C3 2787   9.805   4.249  11.048  0.1857 -0.1253  0.0330
  175loPI   PO4 2788   9.762   4.824  10.676 -0.2342 -0.2743  0.2255
  175loPI   GL1 2789  10.017   5.105  10.368 -0.3265 -0.1834  0.3428
  175loPI   GL2 2790  10.134   5.004  10.188  0.0471 -0.0249  0.0997
  175loPI   C1A 2791   9.729   5.457  10.176 -0.1433  0.2376 -0.0821
  175loPI   C2A 2792   9.769   5.784   9.877 -0.1902  0.1112  0.0540
  175loPI   C3A 2793   9.710   5.844   9.483  0.0267  0.0402 -0.1384
  175loPI   C4A 2794   9.832   6.235   9.307 -0.2608  0.4252 -0.0981
  175loPI   C5A 2795   9.860   6.518   9.114 -0.1137  0.0391  0.2918
  175loPI   C6A 2796   9.774   6.931   8.902 -0.0266 -0.0129 -0.5158
  175loPI   C1B 2797   9.965   5.082   9.671  0.2661  0.1150 -0.0426
  175loPI   C2B 2798   9.843   5.404   9.345 -0.1958 -0.1881 -0.0461
  175loPI   C3B 2799   9.685   5.613   8.987 -0.2063 -0.3676  0.2292
  175loPI   C4B 2800   9.584   5.661   8.569 -0.0968 -0.2928 -0.0742
  176loPI    C1 2801  18.002   8.944  10.546  0.0073 -0.1032  0.1933
  176loPI    C2 2802  17.891   9.171  10.856 -0.1096 -0.0270  0.0962
  176loPI    C3 2803  18.239   8.974  10.867 -0.0274  0.1224  0.1990
  176loPI   PO4 2804  18.031   9.058  10.285  0.1296  0.1528 -0.1245
  176loPI   GL1 2805  18.111   8.864   9.820 -0.1151 -0.0454 -0.2739
  176loPI   GL2 2806  17.807   9.004   9.799  0.0699  0.1704  0.2476
  176loPI   C1A 2807  18.071   8.852   9.410 -0.2038 -0.0160 -0.1102
  176loPI   C2A 2808  18.070   8.831   9.035  0.2783 -0.1224  0.1418
  176loPI   C3A 2809  18.022   8.626   8.580 -0.0477  0.1461  0.2053
  176loPI   C4A 2810  18.150   8.604   8.178 -0.1201  0.0716 -0.3101
  176loPI   C5A 2811  18.309   8.829   7.890 -0.1648  0.1120 -0.0808
  176loPI   C6A 2812  18.338   9.300   7.898  0.1173  0.2111 -0.0077
  176loPI   C1B 2813  17.466   8.964   9.477 -0.2288  0.1031  0.1642
  176loPI   C2B 2814  17.294   8.798   9.111 -0.2301  0.0179 -0.2294
  176loPI   C3B 2815  17.330   8.517   8.853 -0.1605  0.1145  0.2241
  176loPI   C4B 2816  17.310   8.404   8.466 -0.2096 -0.2487  0.0179
  177loPI    C1 2817   1.345  11.464  10.354  0.0176 -0.1596 -0.0306
  177loPI    C2 2818   1.681  11.393  10.148  0.0664 -0.2324  0.0735
  177loPI    C3 2819   1.697  11.450  10.544 -0.0142  0.0134  0.0432
  177loPI   PO4 2820   1.201  11.796  10.266  0.0325 -0.0059  0.0631
  177loPI   GL1 2821   1.147  11.859   9.850  0.0976 -0.0695 -0.0674
  177loPI   GL2 2822   1.426  11.708   9.780  0.3610 -0.3678  0.0331
  177loPI   C1A 2823   1.104  12.351   9.715 -0.0431 -0.4937  0.0496
  177loPI   C2A 2824   1.027  12.271   9.247  0.1801  0.1223  0.1474
  177loPI   C3A 2825   0.939  12.354   8.915 -0.0398 -0.0355 -0.1911
  177loPI   C4A 2826   0.897  12.289   8.434 -0.2320 -0.0611  0.2484
  177loPI   C5A 2827   1.113  12.341   8.039 -0.0426  0.0039 -0.2982
  177loPI   C6A 2828   1.476  12.150   7.773 -0.2733 -0.0951 -0.1563
  177loPI   C1B 2829   1.562  11.743   9.344  0.1259 -0.1880 -0.1309
  177loPI   C2B 2830   1.614  11.651   8.985  0.0262  0.0453 -0.1321
  177loPI   C3B 2831   1.602  11.701   8.594 -0.0608  0.1458  0.0780
  177loPI   C4B 2832   1.568  11.665   8.143 -0.1288  0.1506 -0.0321
  178loPI    C1 2833   0.908   7.158  10.597  0.0324  0.1087  0.1025
  178loPI    C2 2834   1.196   6.881  10.592  0.0643  0.1436 -0.0681
  178loPI    C3 2835   1.144   7.110  10.916  0.0365 -0.0616  0.0747
  178loPI   PO4 2836   0.985   7.247  10.297 -0.0480 -0.4093  0.0362
  178loPI   GL1 2837   0.983   7.454   9.840  0.1189  0.4136  0.1034
  178loPI   GL2 2838   0.698   7.235   9.873 -0.1942 -0.0710 -0.0957
  178loPI   C1A 2839   0.800   7.718   9.463 -0.1457 -0.0449  0.2310
  178loPI   C2A 2840   0.727   7.630   9.000 -0.1957  0.0384 -0.0487
  178loPI   C3A 2841   0.809   7.652   8.540  0.1207  0.0504  0.0875
  178loPI   C4A 2842   1.009   8.006   8.285 -0.1691 -0.2346  0.1431
  178loPI   C5A 2843   1.057   8.146   7.900 -0.2647  0.0784  0.0737
  178loPI   C6A 2844   1.125   8.460   7.771  0.3695 -0.2549 -0.0868
  178loPI   C1B 2845   0.803   7.203   9.433 -0.0940  0.1511  0.1019
  178loPI   C2B 2846   1.004   7.269   9.178  0.1074 -0.1561  0.0287
  178loPI   C3B 2847   1.110   7.226   8.759 -0.2218  0.1195 -0.1999
  178loPI   C4B 2848   1.494   7.195   8.605  0.0224 -0.0166  0.0145
  179loPI    C1 2849   7.940  11.492  10.377  0.1228  0.0146 -0.2363
  179loPI    C2 2850   7.586  11.511  10.193  0.0567  0.1444 -0.0973
  179loPI    C3 2851   7.677  11.775  10.479  0.1382 -0.0854  0.0914
  179loPI   PO4 2852   8.118  11.361  10.232 -0.0369 -0.1510 -0.1016
  179loPI   GL1 2853   8.176  11.361   9.820 -0.2575  0.0752 -0.0470
  179loPI   GL2 2854   7.850  11.239   9.776  0.3231  0.1453 -0.3154
  179loPI   C1A 2855   8.285  11.131   9.414  0.0005  0.2596  0.1562
  179loPI   C2A 2856   8.566  11.195   9.012 -0.2490 -0.1895  0.1953
  179loPI   C3A 2857   8.900  11.000   8.821  0.0084 -0.2502 -0.3044
  179loPI   C4A 2858   8.876  10.882   8.468  0.0244  0.0762  0.3622
  179loPI   C5A 2859   8.874  10.692   8.065 -0.1716 -0.0526  0.1138
  179loPI   C6A 2860   8.723  10.747   7.547 -0.0261  0.2088 -0.0655
  179loPI   C1B 2861   7.715  11.160   9.375 -0.1393  0.0347  0.0646
  179loPI   C2B 2862   7.969  11.025   9.083 -0.3813 -0.1722  0.1298
  179loPI   C3B 2863   8.194  11.073   8.676 -0.0114 -0.1498 -0.1162
  179loPI   C4B 2864   8.561  11.370   8.533 -0.2487  0.0467  0.2850
  180loPI    C1 2865   4.403  14.785  10.221 -0.1146 -0.1878 -0.0880
  180loPI    C2 2866   4.114  15.046  10.128  0.0600 -0.0051 -0.1249
  180loPI    C3 2867   4.287  15.059  10.489  0.0254 -0.1116 -0.1043
  180loPI   PO4 2868   4.508  14.735   9.986 -0.3488 -0.3223 -0.0654
  180loPI   GL1 2869   4.540  15.066   9.555 -0.1859 -0.1978 -0.4228
  180loPI   GL2 2870   4.207  14.893   9.562  0.2415  0.0250  0.1658
  180loPI   C1A 2871   4.657  15.159   9.206 -0.0846 -0.0452  0.1305
  180loPI   C2A 2872   4.425  15.259   8.910  0.0394 -0.0123 -0.0888
  180loPI   C3A 2873   4.381  15.458   8.476 -0.5379 -0.1595 -0.2023
  180loPI   C4A 2874   4.226  15.623   8.210  0.1496 -0.2566  0.1285
  180loPI   C5A 2875   4.410  15.946   7.989  0.0964 -0.1986  0.0555
  180loPI   C6A 2876   4.573  16.070   7.611  0.2615 -0.0116  0.5088
  180loPI   C1B 2877   4.051  14.975   9.170  0.1928  0.1374 -0.2906
  180loPI   C2B 2878   3.849  14.926   8.906  0.2295  0.1988 -0.1641
  180loPI   C3B 2879   3.751  14.931   8.426  0.0199 -0.0521 -0.0612
  180loPI   C4B 2880   3.446  14.867   7.999 -0.2754 -0.0706  0.1663
  181loPI    C1 2881   9.232  16.804  10.352  0.0003  0.0658 -0.1105
  181loPI    C2 2882   9.531  16.857  10.612 -0.0774  0.1506 -0.0376
  181loPI    C3 2883   9.157  16.950  10.717 -0.1911 -0.3480  0.0215
  181loPI   PO4 2884   9.279  16.937  10.117  0.0533  0.1151  0.0957
  181loPI   GL1 2885   9.321  17.315   9.754  0.0630 -0.1522  0.6071
  181loPI   GL2 2886   9.026  17.169   9.722  0.1562  0.0720 -0.0055
  181loPI   C1A 2887   9.529  17.427   9.411  0.0277  0.1569 -0.0036
  181loPI   C2A 2888   9.551  17.597   9.036 -0.0868  0.1065 -0.1289
  181loPI   C3A 2889   9.545  17.818   8.693  0.2621 -0.2691  0.2930
  181loPI   C4A 2890   9.882  17.701   8.383  0.2276  0.1722  0.1204
  181loPI   C5A 2891  10.004  17.465   8.173  0.2625 -0.2476  0.2255
  181loPI   C6A 2892   9.796  17.235   7.783  0.1690  0.0066  0.1737
  181loPI   C1B 2893   9.122  17.137   9.311  0.1176 -0.1403  0.0762
  181loPI   C2B 2894   9.142  17.247   8.860  0.0817  0.1296 -0.0899
  181loPI   C3B 2895   9.134  17.536   8.508 -0.3613 -0.0035 -0.2632
  181loPI   C4B 2896   9.372  17.749   8.157 -0.1614  0.3382  0.1271
  182loPI    C1 2897  11.437  11.866  10.012  0.3345 -0.1554  0.0041
  182loPI    C2 2898  11.510  12.177  10.253  0.0710  0.0326 -0.1526
  182loPI    C3 2899  11.606  11.806  10.369  0.2214  0.1519  0.1122
  182loPI   PO4 2900  11.120  12.018   9.920  0.0886  0.1509  0.0007
  182loPI   GL1 2901  10.944  12.203   9.533 -0.0247  0.2219  0.1268
  182loPI   GL2 2902  10.706  12.454   9.340  0.1674 -0.1577  0.1596
  182loPI   C1A 2903  11.113  12.309   9.124  0.0406  0.1540 -0.0678
  182loPI   C2A 2904  11.160  12.260   8.617  0.0626  0.0920  0.1562
  182loPI   C3A 2905  11.070  11.993   8.255  0.0415  0.2206  0.0447
  182loPI   C4A 2906  10.920  11.655   7.964  0.0567 -0.0735  0.0475
  182loPI   C5A 2907  10.628  11.354   8.029  0.0765  0.1638 -0.3772
  182loPI   C6A 2908  10.327  11.634   7.834  0.0092  0.4339  0.0880
  182loPI   C1B 2909  10.732  12.373   8.857  0.3524  0.1344 -0.1179
  182loPI   C2B 2910  10.695  12.409   8.479 -0.0511 -0.1333 -0.2055
  182loPI   C3B 2911  10.835  12.372   8.065 -0.0448 -0.0131 -0.0041
  182loPI   C4B 2912  11.003  12.088   7.750 -0.0791  0.0355 -0.0565
  183loPI    C1 2913   3.860  11.128  10.052 -0.0550 -0.1135  0.0783
  183loPI    C2 2914   3.965  10.878  10.347  0.2230  0.1316  0.1922
  183loPI    C3 2915   3.923  11.269  10.421 -0.1990  0.1256  0.0139
  183loPI   PO4 2916   4.068  11.053   9.880  0.4444  0.0315  0.1492
  183loPI   GL1 2917   3.971  11.087   9.483  0.0958  0.0263  0.1560
  183loPI   GL2 2918   4.153  10.811   9.446 -0.3140  0.2961 -0.0292
  183loPI   C1A 2919   4.289  11.209   9.215  0.1027 -0.3240 -0.2572
  183loPI   C2A 2920   4.184  11.458   8.893 -0.2225 -0.2867 -0.0468
  183loPI   C3A 2921   4.000  11.619   8.514  0.0084  0.0456  0.0753
  183loPI   C4A 2922   3.778  11.651   8.150  0.2591 -0.0973  0.4422
  183loPI   C5A 2923   3.724  11.810   7.832 -0.1367  0.1801 -0.0350
  183loPI   C6A 2924   4.000  11.922   7.485 -0.0555 -0.1721  0.0120
  183loPI   C1B 2925   4.117  10.755   8.995  0.2044  0.0055 -0.2296
  183loPI   C2B 2926   3.888  10.680   8.641 -0.2152 -0.0930 -0.0001
  183loPI   C3B 2927   3.765  10.721   8.258  0.1817  0.0007  0.1787
  183loPI   C4B 2928   3.880  10.800   7.814  0.0289 -0.2803  0.1840
  184loPI    C1 2929  12.447   3.093  10.604 -0.0162  0.3133 -0.0002
  184loPI    C2 2930  12.842   3.050  10.559 -0.0387  0.0943 -0.0017
  184loPI    C3 2931  12.678   3.028  10.923 -0.0609  0.0852 -0.0122
  184loPI   PO4 2932  12.348   2.946  10.439 -0.3018  0.0740 -0.1421
  184loPI   GL1 2933  12.334   2.881   9.972 -0.0698  0.2026 -0.1183
  184loPI   GL2 2934  12.687   3.017   9.898  0.1439  0.0485  0.0761
  184loPI   C1A 2935  12.301   2.964   9.436 -0.2945 -0.1809  0.2429
  184loPI   C2A 2936  12.380   3.165   9.134 -0.1268  0.1144 -0.0507
  184loPI   C3A 2937  12.529   3.228   8.743  0.0147  0.0210  0.0973
  184loPI   C4A 2938  12.508   3.419   8.397  0.0178  0.1242  0.0810
  184loPI   C5A 2939  12.111   3.394   8.177  0.2450 -0.0469  0.1457
  184loPI   C6A 2940  11.708   3.172   8.016  0.1168  0.0102  0.0314
  184loPI   C1B 2941  12.813   3.162   9.521 -0.1783  0.3895  0.0025
  184loPI   C2B 2942  12.925   3.201   9.060 -0.0416 -0.0009  0.0035
  184loPI   C3B 2943  12.967   3.463   8.770 -0.0399  0.1746  0.1710
  184loPI   C4B 2944  13.038   3.588   8.326 -0.0976  0.0795 -0.2030
  185loPI    C1 2945  13.737   9.379  10.396 -0.1268 -0.0103  0.0892
  185loPI    C2 2946  13.927   9.045  10.506 -0.1404  0.0049  0.1592
  185loPI    C3 2947  13.585   9.149  10.685 -0.2991 -0.1056 -0.0756
  185loPI   PO4 2948  13.951   9.544  10.393  0.1242 -0.3853 -0.0234
  185loPI   GL1 2949  13.912   9.844  10.132 -0.1828  0.1774  0.0236
  185loPI   GL2 2950  13.695  10.035   9.946 -0.3397  0.1774  0.0340
  185loPI   C1A 2951  14.089   9.674   9.782 -0.3848  0.2374 -0.0986
  185loPI   C2A 2952  14.401   9.537   9.496  0.0645 -0.0346  0.2424
  185loPI   C3A 2953  14.470   9.403   9.025 -0.0494 -0.1578 -0.0614
  185loPI   C4A 2954  14.427   9.171   8.680  0.2608 -0.0489  0.2488
  185loPI   C5A 2955  14.520   8.997   8.279 -0.1816  0.0499  0.1095
  185loPI   C6A 2956  14.759   9.078   7.923 -0.3768 -0.0885 -0.0891
  185loPI   C1B 2957  13.650   9.959   9.541  0.0355  0.2116  0.0363
  185loPI   C2B 2958  13.955   9.788   9.247  0.0805 -0.0357  0.0080
  185loPI   C3B 2959  14.318   9.881   9.125 -0.2046 -0.0854 -0.1218
  185loPI   C4B 2960  14.592   9.900   8.752  0.1701 -0.0114  0.1223
  186loPI    C1 2961  10.644  13.697   9.985 -0.1349  0.0836 -0.0694
  186loPI    C2 2962  10.918  13.977   9.904  0.0621 -0.0681  0.0625
  186loPI    C3 2963  10.540  14.083   9.980  0.1051  0.1504 -0.0216
  186loPI   PO4 2964  10.700  13.538   9.844 -0.1112  0.0509  0.0074
  186loPI   GL1 2965  10.466  13.364   9.497  0.2293 -0.1605 -0.1240
  186loPI   GL2 2966  10.209  13.216   9.261  0.1549  0.1441  0.0085
  186loPI   C1A 2967  10.237  13.693   9.222  0.0922  0.1553 -0.1340
  186loPI   C2A 2968  10.210  13.788   8.848  0.2630 -0.2127  0.0076
  186loPI   C3A 2969  10.188  13.795   8.465  0.2450  0.1892 -0.1434
  186loPI   C4A 2970  10.246  13.656   8.001 -0.2010 -0.0424 -0.0743
  186loPI   C5A 2971  10.569  13.281   7.926 -0.1547 -0.0563 -0.0690
  186loPI   C6A 2972  10.748  12.892   7.875  0.0543  0.2479  0.0113
  186loPI   C1B 2973  10.273  13.256   8.830  0.2948  0.2771  0.1470
  186loPI   C2B 2974  10.252  13.258   8.431 -0.0682  0.2294 -0.0463
  186loPI   C3B 2975  10.067  13.178   8.073  0.1280 -0.2021  0.2485
  186loPI   C4B 2976   9.646  13.106   7.826  0.1601  0.0740  0.0888
  187loPI    C1 2977  13.750   6.498  10.909 -0.0582 -0.0061 -0.1782
  187loPI    C2 2978  13.653   6.747  11.208 -0.1939 -0.0582 -0.1781
  187loPI    C3 2979  13.838   6.401  11.287  0.0193  0.0539 -0.1806
  187loPI   PO4 2980  13.691   6.681  10.673 -0.0792 -0.1086  0.0477
  187loPI   GL1 2981  13.726   6.726  10.190  0.1004  0.2550 -0.1368
  187loPI   GL2 2982  13.493   6.938  10.216 -0.2293  0.1706  0.1417
  187loPI   C1A 2983  13.865   6.718   9.876 -0.0018  0.0381 -0.2235
  187loPI   C2A 2984  13.769   6.658   9.395 -0.2011  0.0769 -0.1684
  187loPI   C3A 2985  13.811   6.775   8.880  0.0593 -0.1107 -0.0892
  187loPI   C4A 2986  14.064   6.925   8.557  0.0777 -0.1526  0.0480
  187loPI   C5A 2987  14.307   6.743   8.214 -0.1197  0.2524 -0.3366
  187loPI   C6A 2988  14.234   6.593   7.805  0.0575 -0.1144  0.2469
  187loPI   C1B 2989  13.353   6.746   9.849 -0.1998 -0.3698  0.3742
  187loPI   C2B 2990  13.218   6.738   9.484  0.1976  0.0331 -0.0125
  187loPI   C3B 2991  13.339   6.773   9.098 -0.0644 -0.0920 -0.1978
  187loPI   C4B 2992  13.344   6.681   8.615  0.0401 -0.2685 -0.1929
  188loPI    C1 2993   7.096   9.960   9.886 -0.1282  0.1672  0.1936
  188loPI    C2 2994   7.391  10.071  10.132  0.0728  0.2070 -0.0608
  188loPI    C3 2995   7.127  10.341  10.001  0.0833  0.2251 -0.0446
  188loPI   PO4 2996   7.108   9.694   9.883 -0.0566 -0.0977  0.0471
  188loPI   GL1 2997   7.028   9.507   9.495  0.1813  0.0116 -0.1790
  188loPI   GL2 2998   7.202   9.826   9.405 -0.3009  0.1696  0.0746
  188loPI   C1A 2999   6.857   9.327   9.150 -0.2731 -0.1423  0.0199
  188loPI   C2A 3000   6.924   9.369   8.723 -0.0053 -0.0529  0.3867
  188loPI   C3A 3001   6.943   9.468   8.312  0.2123  0.1061 -0.0135
  188loPI   C4A 3002   6.795   9.278   7.902 -0.1829 -0.2283 -0.1146
  188loPI   C5A 3003   6.612   8.885   7.905  0.1026  0.1937 -0.0577
  188loPI   C6A 3004   6.290   8.510   7.809  0.0430  0.1860  0.0118
  188loPI   C1B 3005   7.184   9.739   9.026  0.1064  0.1808  0.2648
  188loPI   C2B 3006   7.252   9.723   8.694  0.0805 -0.0988 -0.3460
  188loPI   C3B 3007   7.182   9.929   8.286 -0.0528  0.0067  0.0080
  188loPI   C4B 3008   7.195  10.048   7.859  0.2802  0.0913 -0.1337
  189loPI    C1 3009  12.759   4.619  10.542  0.3286 -0.0268  0.0387
  189loPI    C2 3010  12.889   4.878  10.818 -0.1251  0.0852  0.1561
  189loPI    C3 3011  12.497   4.808  10.778 -0.0422 -0.1966 -0.2264
  189loPI   PO4 3012  12.860   4.621  10.359 -0.3270 -0.1294 -0.1760
  189loPI   GL1 3013  12.882   4.766   9.973  0.0946  0.1797  0.1213
  189loPI   GL2 3014  13.080   4.853   9.733 -0.2956  0.0100  0.0459
  189loPI   C1A 3015  12.660   4.711   9.542  0.0618 -0.0625 -0.1934
  189loPI   C2A 3016  12.776   4.648   9.164 -0.0676  0.0970  0.4620
  189loPI   C3A 3017  12.586   4.709   8.651 -0.0216  0.3768 -0.1846
  189loPI   C4A 3018  12.345   4.636   8.259  0.0184  0.2432 -0.0617
  189loPI   C5A 3019  12.147   4.267   8.146 -0.2468 -0.0050  0.0261
  189loPI   C6A 3020  12.272   3.864   8.356 -0.1309  0.1094  0.0082
  189loPI   C1B 3021  13.308   4.930   9.333  0.0156 -0.1487  0.0516
  189loPI   C2B 3022  13.088   4.991   8.952  0.0717 -0.0219  0.0210
  189loPI   C3B 3023  13.085   5.160   8.520  0.1909  0.2699 -0.0178
  189loPI   C4B 3024  12.805   5.315   8.130 -0.0976 -0.1156  0.1637
  190loPI    C1 3025  11.795   4.331  10.831 -0.4316  0.0320 -0.1286
  190loPI    C2 3026  11.453   4.314  11.037 -0.3250 -0.3275  0.0278
  190loPI    C3 3027  11.769   4.101  11.158 -0.1728 -0.3234 -0.3506
  190loPI   PO4 3028  11.757   4.215  10.587  0.1287 -0.1569  0.1154
  190loPI   GL1 3029  11.941   4.334  10.199  0.4255  0.0524 -0.0429
  190loPI   GL2 3030  12.090   4.600  10.440  0.3237 -0.0956  0.2152
  190loPI   C1A 3031  11.832   4.400   9.762  0.0647 -0.2293 -0.2066
  190loPI   C2A 3032  11.747   4.305   9.347  0.2387 -0.1109  0.2194
  190loPI   C3A 3033  11.880   4.313   8.993 -0.0213 -0.1921 -0.0865
  190loPI   C4A 3034  11.747   4.451   8.516 -0.1162 -0.0179  0.4516
  190loPI   C5A 3035  11.864   4.876   8.250 -0.1333 -0.3341 -0.0666
  190loPI   C6A 3036  11.836   5.277   8.194 -0.0804 -0.1347 -0.2035
  190loPI   C1B 3037  12.190   4.730   9.994 -0.3441  0.1717 -0.1846
  190loPI   C2B 3038  12.134   4.687   9.481 -0.0180 -0.2065  0.0293
  190loPI   C3B 3039  12.304   4.516   9.122  0.2532 -0.2215  0.0377
  190loPI   C4B 3040  12.312   4.307   8.676 -0.0178 -0.2032  0.0374
  191loPI    C1 3041   6.600  10.289  10.201  0.1834  0.0918  0.0263
  191loPI    C2 3042   6.839  10.560  10.374  0.0592  0.0345  0.2931
  191loPI    C3 3043   6.443  10.614  10.374  0.0555  0.0197  0.0466
  191loPI   PO4 3044   6.634  10.257   9.992 -0.1359  0.0676 -0.3054
  191loPI   GL1 3045   6.654   9.901   9.674 -0.2636  0.0483  0.0632
  191loPI   GL2 3046   6.576   9.657   9.789  0.0628 -0.0217  0.0844
  191loPI   C1A 3047   6.692   9.785   9.274  0.0266  0.0133  0.1532
  191loPI   C2A 3048   6.758   9.851   8.830  0.3070  0.1725  0.1174
  191loPI   C3A 3049   6.621   9.836   8.442 -0.1712  0.0362 -0.2171
  191loPI   C4A 3050   6.724   9.858   7.984 -0.2243 -0.0943 -0.3462
  191loPI   C5A 3051   6.806  10.166   7.615  0.1389 -0.2596  0.0155
  191loPI   C6A 3052   7.024  10.215   7.226 -0.0606 -0.2235  0.1980
  191loPI   C1B 3053   6.475   9.359   9.493 -0.1068 -0.2273 -0.2629
  191loPI   C2B 3054   6.210   9.198   9.150  0.1378  0.1656 -0.1164
  191loPI   C3B 3055   6.469   9.131   8.867  0.4272 -0.0522  0.0592
  191loPI   C4B 3056   6.607   9.067   8.393  0.0567  0.0257 -0.0129
  192loPI    C1 3057   6.081   6.946  10.162  0.0834  0.1650 -0.0316
  192loPI    C2 3058   6.378   6.816  10.396 -0.0334  0.0121  0.0336
  192loPI    C3 3059   6.153   7.126  10.512 -0.0876 -0.0598  0.1224
  192loPI   PO4 3060   6.162   6.808   9.929 -0.1636 -0.2214  0.1773
  192loPI   GL1 3061   6.297   6.819   9.581 -0.1051  0.1958  0.0104
  192loPI   GL2 3062   6.582   6.866   9.598  0.0162 -0.0641 -0.0502
  192loPI   C1A 3063   6.099   6.786   9.178 -0.2279  0.0820 -0.1999
  192loPI   C2A 3064   6.092   6.645   8.732 -0.3542  0.3504  0.1810
  192loPI   C3A 3065   5.862   6.672   8.422 -0.1279  0.1826 -0.2348
  192loPI   C4A 3066   5.515   6.528   8.231 -0.0423 -0.0502 -0.1029
  192loPI   C5A 3067   5.281   6.500   7.870  0.0293 -0.0385  0.5105
  192loPI   C6A 3068   4.970   6.429   7.541  0.1398 -0.1198 -0.0146
  192loPI   C1B 3069   6.620   6.917   9.162 -0.0442 -0.0440  0.0810
  192loPI   C2B 3070   6.617   6.939   8.707  0.0290  0.1790 -0.2432
  192loPI   C3B 3071   6.693   7.079   8.280 -0.1838  0.0108 -0.1142
  192loPI   C4B 3072   6.781   7.248   7.834 -0.0494 -0.0296  0.0704
  193loPI    C1 3073  14.858   0.699  10.480 -0.1791  0.0644 -0.0114
  193loPI    C2 3074  14.830   0.489  10.820  0.3461  0.0101  0.0072
  193loPI    C3 3075  14.864   0.888  10.832  0.3771  0.0071  0.0187
  193loPI   PO4 3076  14.674   0.602  10.335  0.1767  0.0784  0.0084
  193loPI   GL1 3077  14.356   0.565   9.972 -0.3629 -0.1387  0.1880
  193loPI   GL2 3078  14.104   0.730   9.898  0.0891  0.2016  0.2065
  193loPI   C1A 3079  14.379   0.687   9.515 -0.0921 -0.2671  0.1780
  193loPI   C2A 3080  14.360   0.742   9.129  0.3071  0.0277  0.0909
  193loPI   C3A 3081  14.202   0.797   8.695  0.0886 -0.3804 -0.0903
  193loPI   C4A 3082  13.991   1.037   8.464  0.1851  0.2842  0.4276
  193loPI   C5A 3083  13.674   1.393   8.449  0.0093  0.1253 -0.1118
  193loPI   C6A 3084  13.453   1.755   8.205 -0.0059 -0.1233  0.0024
  193loPI   C1B 3085  14.036   0.355   9.648  0.2679  0.0668  0.0817
  193loPI   C2B 3086  13.961   0.484   9.339  0.1831 -0.2801  0.2420
  193loPI   C3B 3087  13.910   0.520   8.971 -0.0186  0.2569 -0.0016
  193loPI   C4B 3088  13.920   0.349   8.535  0.1416 -0.0373 -0.0598
  194loPI    C1 3089   1.701   5.687  10.158  0.0810  0.2453  0.0716
  194loPI    C2 3090   1.570   5.625   9.785 -0.0082  0.0553  0.1330
  194loPI    C3 3091   1.398   5.905  10.013 -0.0513  0.0708  0.0815
  194loPI   PO4 3092   1.941   5.520  10.099 -0.1192 -0.4593  0.1219
  194loPI   GL1 3093   2.037   5.273   9.777 -0.0559  0.1099 -0.2471
  194loPI   GL2 3094   2.021   5.541   9.595 -0.0559 -0.0628  0.1935
  194loPI   C1A 3095   2.079   5.053   9.403 -0.1994 -0.0041 -0.1005
  194loPI   C2A 3096   2.278   4.745   9.292 -0.2737 -0.0654 -0.3005
  194loPI   C3A 3097   2.052   4.385   9.052  0.1803  0.0112 -0.2015
  194loPI   C4A 3098   1.976   4.156   8.675  0.0398 -0.0515 -0.0270
  194loPI   C5A 3099   1.798   4.178   8.373  0.2662 -0.2480  0.1275
  194loPI   C6A 3100   1.474   4.037   8.022  0.0952  0.1374  0.0300
  194loPI   C1B 3101   1.800   5.486   9.192  0.1921 -0.0357 -0.1902
  194loPI   C2B 3102   1.534   5.403   8.723  0.0502 -0.0879 -0.0966
  194loPI   C3B 3103   1.556   5.037   8.379  0.2451 -0.0344  0.0388
  194loPI   C4B 3104   1.818   4.796   8.222 -0.1703  0.0395  0.1390
  195loPI    C1 3105   1.264   6.374  10.278 -0.0363 -0.0646  0.2895
  195loPI    C2 3106   1.138   6.325  10.655 -0.0845 -0.3100  0.2432
  195loPI    C3 3107   1.398   6.066  10.495 -0.0793 -0.2179  0.1009
  195loPI   PO4 3108   1.051   6.609  10.174 -0.1121  0.0968  0.0812
  195loPI   GL1 3109   0.781   6.641   9.768 -0.3498 -0.0183  0.1229
  195loPI   GL2 3110   0.446   6.531   9.835  0.3469  0.2850 -0.0369
  195loPI   C1A 3111   0.665   6.261   9.464  0.0020 -0.1293 -0.2207
  195loPI   C2A 3112   0.360   6.059   9.111 -0.1244 -0.1053 -0.0412
  195loPI   C3A 3113   0.375   5.902   8.716 -0.0788 -0.2114 -0.0825
  195loPI   C4A 3114   0.146   5.817   8.306 -0.1256  0.0698 -0.1013
  195loPI   C5A 3115   0.285   5.524   8.003 -0.1791 -0.2275 -0.0892
  195loPI   C6A 3116   0.482   5.505   7.575  0.0709 -0.0978 -0.0322
  195loPI   C1B 3117   0.171   6.421   9.486  0.0541  0.1568  0.2529
  195loPI   C2B 3118  -0.004   6.565   9.112 -0.1107  0.1632  0.0941
  195loPI   C3B 3119  -0.243   6.897   8.951 -0.0020 -0.1930  0.2894
  195loPI   C4B 3120  -0.143   7.127   8.464 -0.0137 -0.1057  0.0742
  196loPI    C1 3121  15.837   1.700  10.459 -0.1936 -0.1051 -0.0855
  196loPI    C2 3122  16.044   1.481  10.196  0.0072  0.0218 -0.0355
  196loPI    C3 3123  16.155   1.489  10.580 -0.1466  0.0186  0.0098
  196loPI   PO4 3124  15.814   1.925  10.302 -0.1574 -0.1071 -0.2431
  196loPI   GL1 3125  15.927   2.032   9.880 -0.0742 -0.0142  0.0011
  196loPI   GL2 3126  15.742   2.270   9.880 -0.4788 -0.0610 -0.1236
  196loPI   C1A 3127  16.248   1.889   9.546 -0.0908 -0.0930  0.2487
  196loPI   C2A 3128  16.121   1.763   9.176 -0.0511  0.0229 -0.0990
  196loPI   C3A 3129  15.985   1.500   8.781  0.1384  0.2791  0.0510
  196loPI   C4A 3130  15.878   1.010   8.503  0.2171  0.0783 -0.1409
  196loPI   C5A 3131  15.678   0.704   8.272 -0.1051  0.0816  0.2414
  196loPI   C6A 3132  15.581   0.346   8.146 -0.0259  0.1313  0.3172
  196loPI   C1B 3133  15.364   2.507  10.065  0.3300  0.0790 -0.3445
  196loPI   C2B 3134  14.853   2.520  10.032 -0.0133  0.1751 -0.0553
  196loPI   C3B 3135  14.612   2.511   9.613 -0.0002  0.3214 -0.2859
  196loPI   C4B 3136  14.621   2.761   9.216 -0.0646  0.0159  0.3185
  197loPI    C1 3137  17.107  11.030  10.747  0.0031  0.0089  0.0707
  197loPI    C2 3138  16.876  10.746  10.909  0.0340 -0.0464  0.0177
  197loPI    C3 3139  17.097  10.665  10.585 -0.0793  0.0832 -0.0934
  197loPI   PO4 3140  16.933  11.161  10.639  0.0221 -0.3404  0.2569
  197loPI   GL1 3141  16.939  11.344  10.222 -0.1434  0.2045  0.1268
  197loPI   GL2 3142  17.127  11.608  10.425  0.0821 -0.2125 -0.1493
  197loPI   C1A 3143  16.941  11.538   9.858 -0.0676 -0.1327 -0.1216
  197loPI   C2A 3144  17.039  11.839   9.550  0.0618 -0.4433 -0.4314
  197loPI   C3A 3145  16.755  11.856   9.216  0.2497 -0.0196 -0.1909
  197loPI   C4A 3146  16.626  12.038   8.989 -0.0000 -0.1344 -0.1027
  197loPI   C5A 3147  16.710  12.188   8.594 -0.3359  0.1421 -0.1743
  197loPI   C6A 3148  17.037  12.015   8.329  0.1082 -0.1253  0.0073
  197loPI   C1B 3149  17.425  11.524  10.018 -0.1798 -0.0874 -0.2067
  197loPI   C2B 3150  17.581  11.814   9.708 -0.0033 -0.0468  0.0466
  197loPI   C3B 3151  17.478  11.828   9.285  0.2622  0.0445  0.2875
  197loPI   C4B 3152  17.523  11.559   8.913 -0.1847 -0.1756  0.0258
  198loPI    C1 3153  14.841   8.832  10.463 -0.0500  0.1908  0.0147
  198loPI    C2 3154  15.126   8.892  10.737 -0.1243 -0.1403  0.1702
  198loPI    C3 3155  15.212   8.700  10.397 -0.0793  0.0901  0.0493
  198loPI   PO4 3156  14.564   8.807  10.616  0.2201  0.4772  0.0443
  198loPI   GL1 3157  14.305   8.830  10.260 -0.0543  0.0115 -0.0850
  198loPI   GL2 3158  14.379   8.471  10.195 -0.1022  0.3884 -0.2025
  198loPI   C1A 3159  13.906   8.737   9.899 -0.0813  0.1684  0.4286
  198loPI   C2A 3160  13.794   8.897   9.529  0.0340 -0.0437  0.1898
  198loPI   C3A 3161  13.489   9.181   9.214  0.2125 -0.1829  0.0646
  198loPI   C4A 3162  13.497   9.218   8.832 -0.2034  0.1403 -0.1693
  198loPI   C5A 3163  13.672   9.258   8.410 -0.0380 -0.0095 -0.1048
  198loPI   C6A 3164  13.485   9.003   8.100  0.3800  0.1911 -0.0481
  198loPI   C1B 3165  14.337   8.421   9.765 -0.0200  0.0464  0.1936
  198loPI   C2B 3166  14.127   8.514   9.397 -0.2105  0.1016  0.3828
  198loPI   C3B 3167  13.945   8.841   9.048  0.0422 -0.0185  0.2079
  198loPI   C4B 3168  13.833   8.877   8.641 -0.2480 -0.0781  0.2482
  199loPI    C1 3169   5.458   4.683  10.366  0.0843 -0.0443  0.0275
  199loPI    C2 3170   5.379   4.528  10.726  0.1678  0.0574  0.0898
  199loPI    C3 3171   5.198   4.865  10.610  0.0003 -0.0753 -0.0383
  199loPI   PO4 3172   5.461   4.481  10.234 -0.1842  0.0947 -0.3056
  199loPI   GL1 3173   5.486   4.224   9.964  0.0161 -0.1417 -0.1039
  199loPI   GL2 3174   5.627   3.986  10.085  0.3182  0.0784  0.1438
  199loPI   C1A 3175   5.624   4.308   9.483  0.1198  0.0315 -0.1764
  199loPI   C2A 3176   5.731   4.288   9.038  0.0973  0.3613  0.2785
  199loPI   C3A 3177   5.592   4.360   8.699  0.3097  0.0963  0.0163
  199loPI   C4A 3178   5.538   4.453   8.260 -0.0383  0.1045 -0.0817
  199loPI   C5A 3179   5.745   4.731   7.983  0.2319  0.0596 -0.0081
  199loPI   C6A 3180   5.606   4.977   7.682  0.1410  0.0758 -0.2017
  199loPI   C1B 3181   5.646   3.820   9.657  0.1651 -0.0326 -0.1106
  199loPI   C2B 3182   5.858   3.726   9.301 -0.0388 -0.2125 -0.0166
  199loPI   C3B 3183   5.813   3.800   8.859  0.1531 -0.2399  0.0144
  199loPI   C4B 3184   5.762   4.020   8.425 -0.0978 -0.0786  0.2044
  200loPI    C1 3185   3.815   1.617  10.456  0.0735 -0.0940  0.0909
  200loPI    C2 3186   3.646   1.480  10.792 -0.0303  0.0030  0.0783
  200loPI    C3 3187   3.792   1.852  10.779  0.1113 -0.0525  0.0636
  200loPI   PO4 3188   3.601   1.587  10.203  0.2209  0.1769 -0.1000
  200loPI   GL1 3189   3.506   1.674   9.680 -0.3001  0.1045 -0.1223
  200loPI   GL2 3190   3.256   1.856   9.524  0.3217  0.0960 -0.1703
  200loPI   C1A 3191   3.420   1.376   9.328  0.1029 -0.0604 -0.0950
  200loPI   C2A 3192   3.263   1.230   8.874  0.0720 -0.2698  0.0560
  200loPI   C3A 3193   3.275   1.215   8.481  0.0086  0.1679 -0.3356
  200loPI   C4A 3194   3.232   1.264   8.141 -0.0331 -0.0196 -0.1203
  200loPI   C5A 3195   2.923   1.278   7.692 -0.2452  0.1982 -0.0303
  200loPI   C6A 3196   2.752   1.659   7.563  0.0315  0.0922 -0.1513
  200loPI   C1B 3197   3.397   1.800   9.096 -0.2980 -0.0593 -0.0627
  200loPI   C2B 3198   3.500   1.821   8.675 -0.0062  0.1701 -0.3485
  200loPI   C3B 3199   3.308   1.780   8.335 -0.0010 -0.0549 -0.1294
  200loPI   C4B 3200   3.096   1.716   7.917 -0.0826  0.3077 -0.2175
  201loPI    C1 3201   8.070  15.808   9.842  0.0006  0.0161  0.0829
  201loPI    C2 3202   8.313  15.617  10.095  0.0421  0.0035  0.0335
  201loPI    C3 3203   7.942  15.712  10.209  0.0569 -0.0120  0.0951
  201loPI   PO4 3204   8.209  15.876   9.590 -0.0296 -0.0462  0.0266
  201loPI   GL1 3205   8.317  16.206   9.491 -0.0430  0.0169 -0.3068
  201loPI   GL2 3206   8.588  16.233   9.410  0.3020  0.0292 -0.1121
  201loPI   C1A 3207   8.212  16.634   9.337 -0.1056  0.1024 -0.2771
  201loPI   C2A 3208   8.290  16.790   8.858 -0.3677 -0.1313 -0.0462
  201loPI   C3A 3209   8.378  16.930   8.483  0.2615  0.2386 -0.1638
  201loPI   C4A 3210   8.268  16.973   8.035 -0.2406 -0.2472 -0.1323
  201loPI   C5A 3211   8.408  16.784   7.569 -0.0115  0.1432  0.0021
  201loPI   C6A 3212   8.579  16.548   7.308  0.1805  0.2786 -0.0259
  201loPI   C1B 3213   8.501  16.293   9.038  0.0251  0.1717 -0.4560
  201loPI   C2B 3214   8.557  16.363   8.666 -0.0691  0.0957 -0.0834
  201loPI   C3B 3215   8.581  16.439   8.272  0.1305 -0.0082 -0.0184
  201loPI   C4B 3216   8.490  16.436   7.908  0.0706 -0.1118 -0.1294
  202loPI    C1 3217   6.316   0.929  10.097  0.0996 -0.5299  0.2506
  202loPI    C2 3218   6.369   1.178  10.405  0.0733  0.0662 -0.2074
  202loPI    C3 3219   6.022   0.984  10.362  0.1796 -0.2511  0.2851
  202loPI   PO4 3220   6.655   0.865  10.155  0.0312 -0.0389 -0.1968
  202loPI   GL1 3221   7.074   0.941   9.948 -0.0177  0.2669  0.1781
  202loPI   GL2 3222   7.395   0.848   9.958  0.0699 -0.0437 -0.2142
  202loPI   C1A 3223   7.004   0.770   9.615  0.0122  0.1352  0.0043
  202loPI   C2A 3224   7.058   0.623   9.200 -0.3061 -0.1641 -0.0943
  202loPI   C3A 3225   7.142   0.703   8.657 -0.1478 -0.1531  0.2345
  202loPI   C4A 3226   7.010   0.933   8.342  0.0841 -0.0289  0.0781
  202loPI   C5A 3227   6.972   1.174   8.064  0.2813 -0.1167  0.0350
  202loPI   C6A 3228   6.807   1.525   8.069 -0.0033  0.0939  0.2113
  202loPI   C1B 3229   7.512   1.113   9.713 -0.3307  0.0818  0.1626
  202loPI   C2B 3230   7.278   1.214   9.327 -0.1942  0.0671  0.2718
  202loPI   C3B 3231   7.148   1.195   8.815 -0.0720  0.4397 -0.3500
  202loPI   C4B 3232   7.227   1.485   8.351  0.1145  0.1137 -0.1487
  203loPI    C1 3233   3.986  14.636   9.913  0.1695 -0.0198  0.3525
  203loPI    C2 3234   3.598  14.594   9.828  0.2287  0.1258 -0.0101
  203loPI    C3 3235   3.723  14.574  10.207 -0.1455  0.1849  0.1208
  203loPI   PO4 3236   4.080  14.441   9.745 -0.0637  0.0627 -0.1946
  203loPI   GL1 3237   4.003  14.444   9.273 -0.1592  0.0410  0.1363
  203loPI   GL2 3238   3.711  14.258   9.396  0.2253 -0.1595 -0.0905
  203loPI   C1A 3239   3.972  14.489   8.761  0.1874  0.0373 -0.1681
  203loPI   C2A 3240   4.058  14.472   8.398 -0.1357 -0.2291  0.5337
  203loPI   C3A 3241   3.900  14.694   8.041 -0.3565  0.0388 -0.0223
  203loPI   C4A 3242   3.910  14.952   7.802 -0.0591  0.0062  0.3003
  203loPI   C5A 3243   3.960  15.140   7.461  0.0015 -0.0551 -0.3021
  203loPI   C6A 3244   4.369  15.325   7.246  0.0021 -0.0348 -0.1962
  203loPI   C1B 3245   3.546  14.530   9.033  0.0045  0.1259 -0.0825
  203loPI   C2B 3246   3.392  14.724   8.623  0.1125 -0.1720  0.2257
  203loPI   C3B 3247   3.280  15.116   8.546 -0.1381  0.0900 -0.2031
  203loPI   C4B 3248   3.263  15.366   8.231 -0.0238 -0.0985 -0.1004
  204loPI    C1 3249  13.131  11.796  10.574 -0.2886 -0.2068  0.2781
  204loPI    C2 3250  13.311  12.146  10.646 -0.4554 -0.1098  0.2289
  204loPI    C3 3251  13.324  11.854  10.920 -0.1293 -0.1453  0.1804
  204loPI   PO4 3252  13.294  11.608  10.370 -0.0733 -0.1471  0.2933
  204loPI   GL1 3253  13.371  11.381   9.915 -0.0812  0.0887 -0.2633
  204loPI   GL2 3254  13.641  11.635   9.964  0.1452 -0.0210 -0.0133
  204loPI   C1A 3255  13.426  11.242   9.478 -0.4309 -0.2668  0.4018
  204loPI   C2A 3256  13.645  10.947   9.032 -0.0780  0.1762 -0.1611
  204loPI   C3A 3257  13.651  10.943   8.649  0.1256  0.0279 -0.0433
  204loPI   C4A 3258  13.832  11.319   8.346 -0.1432  0.2274  0.3126
  204loPI   C5A 3259  13.753  11.571   8.122  0.1621  0.0623  0.1430
  204loPI   C6A 3260  13.964  11.925   7.825  0.2067 -0.1520  0.0498
  204loPI   C1B 3261  13.565  11.733   9.589  0.2938  0.2884 -0.0662
  204loPI   C2B 3262  13.628  11.753   9.191  0.0182 -0.0332  0.0437
  204loPI   C3B 3263  13.805  11.830   8.785  0.0547  0.1979 -0.1113
  204loPI   C4B 3264  14.012  11.800   8.455 -0.1446 -0.1095 -0.0468
  205loPI    C1 3265  11.965   5.112  11.047  0.0195 -0.0706  0.0954
  205loPI    C2 3266  12.344   5.073  11.167 -0.0500  0.1105  0.3859
  205loPI    C3 3267  12.054   4.870  11.353 -0.0714 -0.2266 -0.0003
  205loPI   PO4 3268  12.032   5.096  10.699 -0.1696  0.1051 -0.1468
  205loPI   GL1 3269  11.758   4.988  10.406 -0.0416 -0.1943  0.4502
  205loPI   GL2 3270  11.574   5.208  10.306  0.0950 -0.2090  0.0364
  205loPI   C1A 3271  11.683   4.796   9.997 -0.0448 -0.3802 -0.1872
  205loPI   C2A 3272  11.642   4.826   9.508  0.2084 -0.1282 -0.1354
  205loPI   C3A 3273  11.516   4.664   9.094  0.0064  0.0702  0.2768
  205loPI   C4A 3274  11.356   4.293   8.977 -0.0592 -0.2618  0.1248
  205loPI   C5A 3275  11.352   3.930   9.085 -0.2865  0.1074  0.0157
  205loPI   C6A 3276  11.477   3.482   8.975  0.1297  0.0587  0.2556
  205loPI   C1B 3277  11.887   5.275   9.900  0.1627  0.1256 -0.0763
  205loPI   C2B 3278  11.959   5.222   9.508  0.0014 -0.0480 -0.0560
  205loPI   C3B 3279  11.943   4.984   9.077 -0.1162  0.2980  0.0646
  205loPI   C4B 3280  12.054   4.786   8.715 -0.1680 -0.1237  0.1355
  206loPI    C1 3281   3.204   1.304  10.264  0.0012 -0.1176 -0.1082
  206loPI    C2 3282   3.300   1.142  10.618 -0.1846 -0.1942 -0.0917
  206loPI    C3 3283   3.164   1.518  10.599 -0.0592 -0.1487 -0.0954
  206loPI   PO4 3284   3.020   1.185  10.094  0.1376  0.1157 -0.1981
  206loPI   GL1 3285   3.177   1.240   9.738 -0.1695  0.0798 -0.0667
  206loPI   GL2 3286   2.971   1.418   9.499 -0.0027  0.0827 -0.3055
  206loPI   C1A 3287   3.139   0.879   9.478  0.3773  0.0120 -0.1121
  206loPI   C2A 3288   2.927   0.696   9.134  0.2415  0.0763 -0.2989
  206loPI   C3A 3289   2.713   0.488   8.791  0.1362 -0.0624 -0.3265
  206loPI   C4A 3290   2.690   0.105   8.707  0.1657 -0.0901 -0.0669
  206loPI   C5A 3291   2.470  -0.205   8.432 -0.0283  0.4277 -0.4511
  206loPI   C6A 3292   2.445  -0.361   8.047  0.3320  0.3246  0.2428
  206loPI   C1B 3293   2.863   1.213   9.123 -0.1938  0.0172 -0.2210
  206loPI   C2B 3294   2.808   1.100   8.736  0.2823 -0.0778 -0.2236
  206loPI   C3B 3295   2.817   1.060   8.320 -0.0603 -0.1667 -0.0983
  206loPI   C4B 3296   2.618   0.962   7.966  0.0212  0.1133 -0.2981
  207loPI    C1 3297   1.556   3.171  10.227 -0.0798 -0.1916 -0.0308
  207loPI    C2 3298   1.470   3.352  10.573 -0.0489 -0.0207 -0.1115
  207loPI    C3 3299   1.459   2.953  10.548  0.2824 -0.0533  0.1790
  207loPI   PO4 3300   1.497   3.325  10.067  0.0173  0.0156  0.0483
  207loPI   GL1 3301   1.567   3.590   9.864 -0.1052  0.1542 -0.0300
  207loPI   GL2 3302   1.307   3.784   9.817  0.2320  0.1612  0.0884
  207loPI   C1A 3303   1.617   3.519   9.431 -0.1927 -0.0260  0.1594
  207loPI   C2A 3304   1.328   3.530   9.098  0.0472 -0.1979 -0.0084
  207loPI   C3A 3305   1.148   3.581   8.642 -0.1737  0.2234 -0.1124
  207loPI   C4A 3306   0.727   3.685   8.421  0.2449  0.2241 -0.2537
  207loPI   C5A 3307   0.510   3.851   8.182 -0.4348  0.2516 -0.0607
  207loPI   C6A 3308   0.572   4.013   7.809 -0.2400  0.0366 -0.2323
  207loPI   C1B 3309   1.341   3.996   9.433 -0.0740 -0.3033  0.0192
  207loPI   C2B 3310   1.142   4.031   8.999 -0.1044  0.0394  0.1255
  207loPI   C3B 3311   1.249   4.159   8.616  0.0973  0.1095  0.3012
  207loPI   C4B 3312   1.035   4.049   8.208 -0.2260 -0.2275 -0.0286
  208loPI    C1 3313  14.589  17.212  10.602  0.1820 -0.0738 -0.1158
  208loPI    C2 3314  14.830  17.071  10.889  0.1433 -0.0406 -0.0666
  208loPI    C3 3315  14.529  16.846  10.753  0.0538  0.0118  0.0436
  208loPI   PO4 3316  14.566  17.476  10.504 -0.1074  0.1863  0.1200
  208loPI   GL1 3317  14.691  17.503  10.076 -0.2127  0.0240 -0.1417
  208loPI   GL2 3318  14.701  17.735   9.926 -0.0263  0.2155 -0.1558
  208loPI   C1A 3319  14.661  17.180   9.818  0.0472 -0.0042 -0.1226
  208loPI   C2A 3320  14.648  17.398   9.458  0.0148 -0.0182  0.1591
  208loPI   C3A 3321  14.576  17.306   8.996 -0.0043 -0.0869 -0.0604
  208loPI   C4A 3322  14.280  17.129   8.697 -0.0354  0.2595 -0.4061
  208loPI   C5A 3323  14.275  16.843   8.661  0.0234  0.2382 -0.1310
  208loPI   C6A 3324  14.075  16.514   8.664 -0.2028 -0.1472 -0.0034
  208loPI   C1B 3325  14.582  17.962   9.563  0.0709 -0.2155 -0.0733
  208loPI   C2B 3326  14.632  17.809   9.171  0.2250 -0.1751 -0.0936
  208loPI   C3B 3327  14.458  18.052   8.855  0.2755 -0.0922 -0.1173
  208loPI   C4B 3328  14.228  18.089   8.530 -0.0884  0.0185  0.0263
  209loPI    C1 3329   2.158   1.303   9.896 -0.1046  0.0736 -0.0753
  209loPI    C2 3330   2.427   1.291  10.192 -0.0309 -0.0557 -0.1464
  209loPI    C3 3331   2.131   1.023  10.180 -0.3226  0.2478  0.0789
  209loPI   PO4 3332   1.984   1.555  10.001  0.1283 -0.1505  0.1304
  209loPI   GL1 3333   1.712   1.627   9.718  0.1386  0.0524 -0.0334
  209loPI   GL2 3334   1.428   1.414   9.708  0.2396  0.0884 -0.1734
  209loPI   C1A 3335   1.480   1.748   9.355 -0.1870  0.3284  0.3121
  209loPI   C2A 3336   1.519   1.785   8.960 -0.1342 -0.1176  0.1045
  209loPI   C3A 3337   1.594   1.878   8.552 -0.3189 -0.0680 -0.4943
  209loPI   C4A 3338   1.669   1.947   8.173  0.1918  0.2598  0.0730
  209loPI   C5A 3339   1.958   2.275   8.056  0.1262 -0.0035  0.1866
  209loPI   C6A 3340   2.320   2.434   7.892 -0.1287  0.0453 -0.2093
  209loPI   C1B 3341   1.594   1.271   9.209  0.1445 -0.1123  0.0762
  209loPI   C2B 3342   1.472   1.307   8.820  0.0237  0.0085 -0.0239
  209loPI   C3B 3343   1.389   1.472   8.346 -0.0900 -0.2178 -0.1857
  209loPI   C4B 3344   1.382   1.556   7.898  0.0481 -0.4104  0.2491
  210loPI    C1 3345   2.524  16.714  10.525  0.1149 -0.1487 -0.0111
  210loPI    C2 3346   2.649  16.946  10.826  0.1798 -0.1273 -0.0543
  210loPI    C3 3347   2.862  16.624  10.720  0.0961 -0.2000 -0.0021
  210loPI   PO4 3348   2.485  16.954  10.318  0.0963 -0.0154 -0.1535
  210loPI   GL1 3349   2.622  17.023   9.898 -0.2322  0.0705 -0.0270
  210loPI   GL2 3350   2.494  17.413   9.898 -0.1207  0.0258  0.1564
  210loPI   C1A 3351   2.547  16.828   9.437 -0.0840  0.2784 -0.3326
  210loPI   C2A 3352   2.421  16.625   9.135 -0.0349 -0.1439  0.2738
  210loPI   C3A 3353   2.115  16.499   8.798  0.0528 -0.0383  0.4302
  210loPI   C4A 3354   1.810  16.488   8.384 -0.2039 -0.0441  0.0031
  210loPI   C5A 3355   1.453  16.378   8.219 -0.2125  0.1176 -0.0256
  210loPI   C6A 3356   1.040  16.250   8.358 -0.1267  0.1697  0.2200
  210loPI   C1B 3357   2.461  17.343   9.534  0.0168 -0.3920  0.1521
  210loPI   C2B 3358   2.526  17.221   9.085 -0.1898 -0.1481  0.0384
  210loPI   C3B 3359   2.323  16.969   8.748  0.0634  0.0553 -0.0317
  210loPI   C4B 3360   2.178  16.840   8.364 -0.1572  0.1483 -0.0603
  211loPI    C1 3361   3.449   9.358  10.284  0.0906 -0.1076  0.0240
  211loPI    C2 3362   3.313   9.070  10.043  0.0903 -0.0466 -0.0495
  211loPI    C3 3363   3.389   8.990  10.428 -0.0368 -0.1112 -0.0371
  211loPI   PO4 3364   3.290   9.575  10.117  0.1121  0.0300 -0.1039
  211loPI   GL1 3365   3.077   9.492   9.767 -0.2589 -0.3354  0.2085
  211loPI   GL2 3366   3.138   9.872   9.748  0.0784 -0.0377  0.0598
  211loPI   C1A 3367   2.986   9.346   9.410 -0.2425  0.1630 -0.0065
  211loPI   C2A 3368   2.986   9.338   8.937  0.0714  0.0142  0.2362
  211loPI   C3A 3369   2.827   9.358   8.499 -0.1496 -0.1284  0.1197
  211loPI   C4A 3370   2.791   9.525   8.101 -0.0306  0.3119 -0.4052
  211loPI   C5A 3371   2.435   9.794   7.866  0.3828  0.5490  0.3223
  211loPI   C6A 3372   2.039   9.912   7.740 -0.0345  0.0661 -0.2504
  211loPI   C1B 3373   2.854   9.783   9.374 -0.0032  0.0375 -0.1598
  211loPI   C2B 3374   2.869   9.818   8.925  0.3620 -0.1966  0.1049
  211loPI   C3B 3375   2.704   9.816   8.519  0.1966  0.2768 -0.1770
  211loPI   C4B 3376   2.685  10.110   8.127 -0.0256 -0.1776 -0.1855
  212loPI    C1 3377  10.886   5.570  11.069  0.1062  0.2233  0.0924
  212loPI    C2 3378  10.824   5.963  11.115 -0.1145  0.1649  0.3167
  212loPI    C3 3379  10.537   5.702  11.212 -0.0403 -0.0451 -0.0105
  212loPI   PO4 3380  11.010   5.542  10.830 -0.0351 -0.0776  0.0032
  212loPI   GL1 3381  10.854   5.485  10.382 -0.0617 -0.4034 -0.2939
  212loPI   GL2 3382  11.070   5.219  10.218 -0.0404  0.2269  0.1726
  212loPI   C1A 3383  10.706   5.670  10.136 -0.1789 -0.1363  0.4326
  212loPI   C2A 3384  10.766   5.661   9.660  0.0482  0.1287  0.1587
  212loPI   C3A 3385  10.659   5.740   9.188 -0.0148 -0.3058  0.0209
  212loPI   C4A 3386  10.522   5.792   8.733 -0.2419  0.3672  0.3206
  212loPI   C5A 3387  10.316   6.061   8.555  0.3761  0.3202  0.0401
  212loPI   C6A 3388  10.051   6.440   8.635 -0.1213  0.0318 -0.0934
  212loPI   C1B 3389  11.149   5.527   9.939 -0.0795 -0.1709  0.0858
  212loPI   C2B 3390  11.435   5.271   9.629  0.3053 -0.0614  0.3684
  212loPI   C3B 3391  11.349   5.081   9.220  0.1181 -0.1693 -0.0186
  212loPI   C4B 3392  11.178   5.039   8.841  0.1078  0.3851 -0.0673
  213loPI    C1 3393  11.297  15.639  10.241 -0.2867 -0.1179 -0.0010
  213loPI    C2 3394  11.197  15.696   9.858 -0.1449 -0.0122 -0.0233
  213loPI    C3 3395  11.116  15.978  10.130  0.0382  0.0493 -0.0315
  213loPI   PO4 3396  11.590  15.570  10.190 -0.2446 -0.0865  0.0243
  213loPI   GL1 3397  11.723  15.770   9.853  0.0617  0.1751  0.1238
  213loPI   GL2 3398  12.092  15.721   9.863  0.1210 -0.0397 -0.0596
  213loPI   C1A 3399  11.584  15.777   9.378  0.0633 -0.1416 -0.0326
  213loPI   C2A 3400  11.709  15.909   9.023 -0.3031  0.1523  0.1145
  213loPI   C3A 3401  12.071  16.207   8.908 -0.1547 -0.2579  0.0089
  213loPI   C4A 3402  12.275  16.165   8.542 -0.3505 -0.2469 -0.1670
  213loPI   C5A 3403  12.194  16.497   8.172 -0.0781 -0.2458  0.2892
  213loPI   C6A 3404  12.257  16.923   8.038 -0.0148 -0.1704 -0.0660
  213loPI   C1B 3405  12.049  16.031   9.502 -0.0479  0.0936 -0.0222
  213loPI   C2B 3406  11.834  16.356   9.327  0.1397 -0.1020 -0.1847
  213loPI   C3B 3407  11.843  16.605   9.044  0.0900  0.2367 -0.0037
  213loPI   C4B 3408  12.033  16.659   8.611 -0.2671 -0.1647  0.3847
  214loPI    C1 3409   9.901  15.333  10.517  0.0343  0.1857 -0.0729
  214loPI    C2 3410   9.542  15.196  10.630  0.1716  0.0339  0.1884
  214loPI    C3 3411   9.609  15.590  10.613 -0.1509  0.0758 -0.3314
  214loPI   PO4 3412   9.906  15.269  10.276 -0.0283  0.1813 -0.1754
  214loPI   GL1 3413  10.067  15.373   9.911  0.0908 -0.4076  0.2834
  214loPI   GL2 3414   9.853  15.560   9.699 -0.0977  0.1651  0.1805
  214loPI   C1A 3415  10.384  15.292   9.527  0.4584 -0.1700  0.2996
  214loPI   C2A 3416  10.588  15.339   9.033  0.3906  0.2158  0.0236
  214loPI   C3A 3417  10.589  15.159   8.650  0.2001  0.2157 -0.1449
  214loPI   C4A 3418  10.825  15.100   8.218  0.2247 -0.0493  0.0378
  214loPI   C5A 3419  11.119  15.214   7.935  0.0712  0.1898 -0.2154
  214loPI   C6A 3420  11.118  14.933   7.622 -0.0340 -0.0906  0.0327
  214loPI   C1B 3421   9.741  15.464   9.431 -0.1616 -0.0898  0.0186
  214loPI   C2B 3422   9.659  15.478   8.976 -0.0871  0.1927 -0.0543
  214loPI   C3B 3423   9.670  15.650   8.591  0.1359 -0.0461 -0.3201
  214loPI   C4B 3424   9.888  15.821   8.265  0.1354 -0.0838  0.0096
  215loPI    C1 3425  12.234   9.625  10.659  0.0540  0.2342  0.0672
  215loPI    C2 3426  12.211   9.990  10.822 -0.1069  0.2936 -0.0850
  215loPI    C3 3427  12.018   9.683  10.990 -0.1011  0.3113 -0.0459
  215loPI   PO4 3428  12.200   9.628  10.425 -0.0689  0.1238  0.1084
  215loPI   GL1 3429  12.482   9.704  10.076 -0.0935 -0.1385 -0.1977
  215loPI   GL2 3430  12.529   9.624   9.677 -0.0187  0.1260  0.4774
  215loPI   C1A 3431  12.412  10.146   9.710 -0.0314 -0.0827  0.0195
  215loPI   C2A 3432  12.256  10.020   9.292 -0.1213 -0.3393  0.2524
  215loPI   C3A 3433  12.154   9.933   8.831 -0.1425 -0.0436 -0.2652
  215loPI   C4A 3434  12.483  10.088   8.522  0.1797 -0.0238  0.2451
  215loPI   C5A 3435  12.537  10.084   8.091  0.1266  0.3155  0.0598
  215loPI   C6A 3436  12.554  10.370   7.700  0.1225  0.1478 -0.1624
  215loPI   C1B 3437  12.728   9.874   9.409 -0.0914 -0.1499 -0.2105
  215loPI   C2B 3438  13.210  10.054   9.221  0.2231  0.1370 -0.0654
  215loPI   C3B 3439  13.562  10.002   9.007  0.0189  0.2314  0.2017
  215loPI   C4B 3440  14.024   9.868   8.758  0.0747  0.2562  0.0233
  216loPI    C1 3441   2.634   3.108  10.113 -0.0373 -0.2328 -0.0252
  216loPI    C2 3442   2.766   3.281  10.449  0.0007  0.0002 -0.1581
  216loPI    C3 3443   2.986   3.000  10.270  0.1140  0.0783 -0.1423
  216loPI   PO4 3444   2.582   3.278   9.964 -0.1901 -0.2053 -0.1466
  216loPI   GL1 3445   2.336   3.218   9.618 -0.3950 -0.2594 -0.1496
  216loPI   GL2 3446   2.362   2.815   9.699 -0.1036  0.1766 -0.2778
  216loPI   C1A 3447   2.463   3.416   9.160  0.0702 -0.2378 -0.1329
  216loPI   C2A 3448   2.455   3.289   8.729 -0.0659 -0.1249  0.2564
  216loPI   C3A 3449   2.090   3.230   8.363 -0.2688  0.0200  0.0259
  216loPI   C4A 3450   1.861   2.778   8.269 -0.1453  0.0360 -0.1360
  216loPI   C5A 3451   1.606   2.534   7.886  0.0558 -0.0724 -0.1448
  216loPI   C6A 3452   1.130   2.604   7.804 -0.2157 -0.5069  0.1922
  216loPI   C1B 3453   2.436   2.873   9.255  0.2700 -0.2512  0.2475
  216loPI   C2B 3454   2.548   2.788   8.876 -0.1723 -0.1206  0.2275
  216loPI   C3B 3455   2.879   2.673   8.638  0.0626  0.0353  0.2272
  216loPI   C4B 3456   2.892   2.703   8.150 -0.0810  0.1408 -0.2194
  217loPI    C1 3457   0.309  17.412  10.466 -0.0900 -0.0481  0.0003
  217loPI    C2 3458   0.226  17.036  10.360  0.2739 -0.1339  0.0097
  217loPI    C3 3459   0.293  17.126  10.744  0.2321 -0.0681  0.0017
  217loPI   PO4 3460   0.497  17.503  10.315 -0.0187  0.3010  0.1056
  217loPI   GL1 3461   0.409  17.362   9.965  0.5458 -0.0752 -0.2574
  217loPI   GL2 3462   0.459  17.694   9.858  0.0592  0.1199  0.0774
  217loPI   C1A 3463   0.254  17.328   9.506  0.0433  0.0929 -0.1246
  217loPI   C2A 3464   0.075  17.211   9.084 -0.0477 -0.1152  0.2272
  217loPI   C3A 3465  -0.147  17.213   8.632 -0.1605  0.2679 -0.2103
  217loPI   C4A 3466  -0.577  17.369   8.560 -0.2122  0.1064 -0.0187
  217loPI   C5A 3467  -0.851  17.585   8.868  0.2717  0.0098  0.0305
  217loPI   C6A 3468  -1.222  17.784   8.750 -0.0990 -0.0082 -0.2758
  217loPI   C1B 3469   0.538  17.768   9.457 -0.1231 -0.1444 -0.0814
  217loPI   C2B 3470   0.740  17.894   9.040 -0.2669  0.0242  0.0852
  217loPI   C3B 3471   0.662  17.897   8.663 -0.2867  0.0203  0.0124
  217loPI   C4B 3472   0.757  18.036   8.308  0.4272  0.1176  0.1693
  218loPI    C1 3473   1.352   2.468  10.181 -0.1660  0.0355 -0.1207
  218loPI    C2 3474   1.540   2.199  10.409  0.0959  0.1152 -0.2390
  218loPI    C3 3475   1.331   2.494  10.580  0.3068  0.1862 -0.0993
  218loPI   PO4 3476   1.561   2.554  10.045 -0.1595  0.0509  0.2474
  218loPI   GL1 3477   1.699   2.905   9.821  0.1892 -0.2538 -0.1229
  218loPI   GL2 3478   1.855   3.047   9.539  0.2743 -0.0884 -0.1054
  218loPI   C1A 3479   1.372   2.932   9.524 -0.2770 -0.3105  0.1353
  218loPI   C2A 3480   1.376   3.052   9.135 -0.0801  0.1067  0.0550
  218loPI   C3A 3481   1.217   3.120   8.820 -0.1550  0.0720  0.3907
  218loPI   C4A 3482   0.830   3.137   8.626  0.1013 -0.3417 -0.2528
  218loPI   C5A 3483   0.520   3.160   8.371  0.2815  0.2082  0.0862
  218loPI   C6A 3484   0.128   3.351   8.310  0.1771  0.3110 -0.0248
  218loPI   C1B 3485   2.028   3.185   9.177  0.0277 -0.0238 -0.1725
  218loPI   C2B 3486   1.893   3.408   8.807 -0.2353  0.1557  0.0309
  218loPI   C3B 3487   2.106   3.718   8.535 -0.2036  0.0663  0.1108
  218loPI   C4B 3488   2.230   3.740   8.158 -0.1011  0.0177 -0.1270
  219loPI    C1 3489   2.205  13.145  10.464  0.2747  0.0102  0.0148
  219loPI    C2 3490   2.245  12.898  10.152 -0.0117 -0.1903  0.1325
  219loPI    C3 3491   2.558  12.974  10.388  0.1062 -0.3554  0.0320
  219loPI   PO4 3492   1.918  13.100  10.531  0.0513  0.1065 -0.1413
  219loPI   GL1 3493   1.714  13.170  10.075 -0.1802 -0.0226 -0.0599
  219loPI   GL2 3494   1.910  13.268   9.954  0.2543  0.1078 -0.2007
  219loPI   C1A 3495   1.325  13.146   9.994  0.1291  0.2820 -0.0591
  219loPI   C2A 3496   1.145  13.113   9.528 -0.2342 -0.3802 -0.0143
  219loPI   C3A 3497   1.157  13.162   9.037 -0.2368  0.1699 -0.0395
  219loPI   C4A 3498   1.204  13.283   8.670 -0.2044  0.1416  0.0084
  219loPI   C5A 3499   1.337  13.378   8.177 -0.3027  0.1581 -0.2105
  219loPI   C6A 3500   1.775  13.152   7.993 -0.0358 -0.2769 -0.1980
  219loPI   C1B 3501   1.736  13.228   9.584  0.0747 -0.1244 -0.3946
  219loPI   C2B 3502   1.607  13.201   9.311  0.2632 -0.0572  0.1763
  219loPI   C3B 3503   1.598  13.075   8.887  0.0851 -0.0744 -0.2892
  219loPI   C4B 3504   1.683  12.960   8.438 -0.1582 -0.0541 -0.1854
  220loPI    C1 3505  14.246  14.657  10.945  0.1126 -0.2035  0.0434
  220loPI    C2 3506  14.314  14.354  11.196 -0.0845 -0.1129  0.2092
  220loPI    C3 3507  13.982  14.575  11.235 -0.0941 -0.0683 -0.1029
  220loPI   PO4 3508  14.219  14.572  10.668 -0.0965 -0.0220  0.1945
  220loPI   GL1 3509  14.299  14.578  10.273  0.2429  0.0945 -0.1278
  220loPI   GL2 3510  14.395  14.248  10.319 -0.1702  0.2509  0.2315
  220loPI   C1A 3511  13.990  14.743  10.024 -0.2043 -0.2033  0.1650
  220loPI   C2A 3512  13.961  15.157   9.835  0.1053  0.1151  0.0138
  220loPI   C3A 3513  14.179  15.267   9.431  0.3528  0.3422 -0.2099
  220loPI   C4A 3514  14.505  15.226   9.289  0.0536  0.0996  0.1002
  220loPI   C5A 3515  14.725  15.120   9.068  0.1071  0.2318  0.1960
  220loPI   C6A 3516  14.971  14.839   8.923  0.0149 -0.1456 -0.3159
  220loPI   C1B 3517  14.649  14.039   9.913  0.1597 -0.2629  0.0701
  220loPI   C2B 3518  14.862  13.999   9.347 -0.0446  0.0157  0.1326
  220loPI   C3B 3519  15.037  13.783   8.912  0.0454 -0.0640 -0.1839
  220loPI   C4B 3520  15.172  14.016   8.593 -0.0783 -0.1411  0.0242
  221loPI    C1 3521  13.698  12.368  10.387 -0.0332 -0.2364  0.0235
  221loPI    C2 3522  13.682  12.615  10.701 -0.2622 -0.2290  0.0076
  221loPI    C3 3523  13.805  12.237  10.750  0.1420 -0.1003  0.0223
  221loPI   PO4 3524  13.647  12.537  10.214 -0.2796  0.0424  0.2192
  221loPI   GL1 3525  13.423  12.600   9.853 -0.0723  0.1533  0.0460
  221loPI   GL2 3526  13.103  12.520   9.993 -0.0783 -0.1119 -0.0504
  221loPI   C1A 3527  13.607  12.625   9.435  0.1940 -0.1010  0.1381
  221loPI   C2A 3528  13.737  12.677   8.989 -0.3016  0.0527  0.0798
  221loPI   C3A 3529  13.494  12.649   8.667  0.3541  0.0015 -0.0852
  221loPI   C4A 3530  13.538  12.617   8.280 -0.3204 -0.2252  0.4395
  221loPI   C5A 3531  13.384  12.444   7.908 -0.0433  0.1573 -0.1850
  221loPI   C6A 3532  13.274  12.117   7.729  0.1206  0.2408  0.1258
  221loPI   C1B 3533  13.296  12.221   9.534 -0.1078 -0.0692  0.2377
  221loPI   C2B 3534  13.492  12.262   9.027 -0.1374  0.2154  0.0185
  221loPI   C3B 3535  13.656  12.198   8.572  0.5170  0.1785  0.0192
  221loPI   C4B 3536  13.560  12.074   8.126  0.0859 -0.0457 -0.3635
  222loPI    C1 3537   6.768  15.884   9.722 -0.1430 -0.0622  0.3028
  222loPI    C2 3538   6.721  16.189   9.976 -0.2896 -0.0680  0.2833
  222loPI    C3 3539   6.491  16.164   9.649  0.0599  0.0709  0.0208
  222loPI   PO4 3540   6.960  15.882   9.665 -0.1041  0.0187  0.1275
  222loPI   GL1 3541   7.187  15.784   9.283  0.2608 -0.0195 -0.0320
  222loPI   GL2 3542   7.002  15.554   9.341 -0.1789  0.0332 -0.2866
  222loPI   C1A 3543   7.240  15.931   8.829  0.3373  0.3593 -0.2082
  222loPI   C2A 3544   7.263  15.969   8.389  0.2459 -0.0296 -0.1187
  222loPI   C3A 3545   7.360  15.974   8.049  0.1300 -0.0948 -0.0761
  222loPI   C4A 3546   7.292  16.172   7.625 -0.0993 -0.1432 -0.0436
  222loPI   C5A 3547   7.159  16.582   7.473 -0.2797  0.3187  0.0520
  222loPI   C6A 3548   6.792  16.705   7.318  0.0643  0.0623  0.2346
  222loPI   C1B 3549   6.986  15.457   8.960 -0.0936 -0.5013  0.1952
  222loPI   C2B 3550   7.093  15.473   8.576 -0.1776  0.2059 -0.1777
  222loPI   C3B 3551   7.265  15.487   8.119  0.3159 -0.0837  0.2770
  222loPI   C4B 3552   7.387  15.640   7.602  0.2493  0.0772 -0.1228
  223loPI    C1 3553   3.231   4.836   9.994 -0.1676 -0.0933 -0.1341
  223loPI    C2 3554   3.279   4.792  10.388 -0.1266  0.2046 -0.1030
  223loPI    C3 3555   2.920   4.729  10.222 -0.0955 -0.1287 -0.0521
  223loPI   PO4 3556   3.337   4.692   9.895 -0.1620  0.3079 -0.4358
  223loPI   GL1 3557   3.436   4.530   9.644 -0.1096  0.0079 -0.3245
  223loPI   GL2 3558   3.765   4.738   9.651  0.1656 -0.0836 -0.0912
  223loPI   C1A 3559   3.507   4.195   9.348  0.1591  0.0164 -0.1260
  223loPI   C2A 3560   3.521   4.131   8.894  0.1822 -0.0694  0.0371
  223loPI   C3A 3561   3.475   4.127   8.388 -0.0408  0.1393 -0.1944
  223loPI   C4A 3562   3.349   4.203   7.953 -0.3202 -0.2501 -0.0588
  223loPI   C5A 3563   3.045   4.363   7.707 -0.0243 -0.1086  0.2512
  223loPI   C6A 3564   2.981   4.204   7.333 -0.2885 -0.0646  0.0128
  223loPI   C1B 3565   3.630   4.661   9.128 -0.0058  0.1261 -0.3659
  223loPI   C2B 3566   3.709   4.693   8.763 -0.2165  0.0794 -0.0399
  223loPI   C3B 3567   3.558   4.761   8.302  0.2606  0.0891 -0.0848
  223loPI   C4B 3568   3.449   5.145   7.991  0.2138 -0.0505  0.1785
  224loPI    C1 3569   1.513  16.783  10.891 -0.0257 -0.0921  0.1263
  224loPI    C2 3570   1.657  17.128  11.034 -0.0493 -0.1504  0.2932
  224loPI    C3 3571   1.666  16.798  11.260 -0.2382 -0.2069  0.2210
  224loPI   PO4 3572   1.537  16.829  10.616  0.2908  0.0564 -0.1223
  224loPI   GL1 3573   1.238  16.809  10.291 -0.0042  0.2176  0.1304
  224loPI   GL2 3574   1.369  17.060  10.226  0.0881 -0.0202  0.1778
  224loPI   C1A 3575   1.216  16.771   9.841  0.1028  0.1101 -0.1059
  224loPI   C2A 3576   1.117  16.511   9.472  0.1115 -0.0787  0.1298
  224loPI   C3A 3577   0.834  16.380   9.119  0.0257  0.1367 -0.1280
  224loPI   C4A 3578   0.774  16.582   8.740 -0.0728  0.2111 -0.2070
  224loPI   C5A 3579   1.164  16.679   8.598  0.0662  0.0644 -0.0790
  224loPI   C6A 3580   1.519  16.884   8.324 -0.0172 -0.1726  0.1165
  224loPI   C1B 3581   0.978  17.142  10.076  0.2034  0.0200 -0.0056
  224loPI   C2B 3582   0.755  17.304   9.612 -0.0615  0.0961  0.0422
  224loPI   C3B 3583   0.618  17.377   9.149  0.0581 -0.1449 -0.0671
  224loPI   C4B 3584   0.573  17.391   8.752  0.0928 -0.0711 -0.0233
  225loPI    C1 3585  11.070   3.002  10.548 -0.2347  0.1872  0.1010
  225loPI    C2 3586  10.864   2.944  10.887 -0.3578 -0.0252 -0.0083
  225loPI    C3 3587  10.902   2.647  10.621  0.0809  0.0137  0.0023
  225loPI   PO4 3588  11.089   3.232  10.414  0.0807  0.1207 -0.1543
  225loPI   GL1 3589  10.884   3.313  10.077 -0.0651 -0.0058  0.0577
  225loPI   GL2 3590  10.649   3.466  10.016 -0.0604 -0.0272 -0.0673
  225loPI   C1A 3591  10.948   3.243   9.575 -0.0870 -0.0107 -0.1141
  225loPI   C2A 3592  11.036   3.377   9.138  0.1390 -0.0863  0.2744
  225loPI   C3A 3593  10.895   3.630   8.774 -0.0089 -0.1330  0.3023
  225loPI   C4A 3594  10.824   3.653   8.285  0.1360  0.1236  0.1564
  225loPI   C5A 3595  10.485   3.466   8.040 -0.0969 -0.0586 -0.1666
  225loPI   C6A 3596  10.038   3.461   7.924  0.0956  0.2196 -0.1338
  225loPI   C1B 3597  10.436   3.429   9.613 -0.3914  0.1974 -0.0768
  225loPI   C2B 3598  10.548   3.277   9.220 -0.0069 -0.0825  0.4172
  225loPI   C3B 3599  10.369   3.242   8.700 -0.0572 -0.1280 -0.3226
  225loPI   C4B 3600  10.171   3.294   8.383 -0.1175  0.1932  0.0093
  226loPI    C1 3601   4.050   6.579   9.826 -0.0067 -0.0632  0.0370
  226loPI    C2 3602   3.855   6.274   9.995 -0.1537  0.0165  0.0126
  226loPI    C3 3603   4.008   6.564  10.224 -0.0220 -0.0703  0.0351
  226loPI   PO4 3604   4.239   6.468   9.734 -0.0990 -0.1203  0.1660
  226loPI   GL1 3605   4.471   6.389   9.548  0.1848  0.0557  0.0596
  226loPI   GL2 3606   4.737   6.366   9.694 -0.0137 -0.1359  0.2098
  226loPI   C1A 3607   4.592   6.311   9.135 -0.1937 -0.0805  0.0273
  226loPI   C2A 3608   4.744   6.202   8.735 -0.0268  0.0786 -0.3712
  226loPI   C3A 3609   4.600   6.073   8.306 -0.1615 -0.0408  0.0151
  226loPI   C4A 3610   4.460   5.766   8.131 -0.0987 -0.1789  0.0923
  226loPI   C5A 3611   4.195   5.650   7.874 -0.0714  0.2322  0.4246
  226loPI   C6A 3612   3.810   5.527   7.686 -0.1046 -0.0289  0.0391
  226loPI   C1B 3613   5.007   6.154   9.446 -0.1441  0.1223  0.0768
  226loPI   C2B 3614   5.017   5.920   9.126  0.1792  0.4249  0.2057
  226loPI   C3B 3615   5.142   5.784   8.712 -0.0412 -0.2251 -0.0151
  226loPI   C4B 3616   4.918   5.673   8.361  0.0512 -0.1507  0.1941
  227loPI    C1 3617  14.600   2.703  10.689  0.1569 -0.1872 -0.2039
  227loPI    C2 3618  14.792   2.491  10.968  0.1858  0.0054 -0.0754
  227loPI    C3 3619  14.989   2.765  10.755  0.0728  0.1465  0.0003
  227loPI   PO4 3620  14.444   2.487  10.540  0.2001  0.0664 -0.1947
  227loPI   GL1 3621  14.307   2.116  10.326 -0.0710  0.2474 -0.0091
  227loPI   GL2 3622  14.565   2.046  10.275  0.1121 -0.4170  0.2194
  227loPI   C1A 3623  14.137   1.835   9.916 -0.1672  0.1446 -0.1293
  227loPI   C2A 3624  14.092   1.715   9.543 -0.1591 -0.0433  0.1753
  227loPI   C3A 3625  14.168   1.760   9.113  0.1405  0.2967 -0.1386
  227loPI   C4A 3626  14.146   1.998   8.847  0.2056  0.2126  0.2692
  227loPI   C5A 3627  14.162   2.301   8.664  0.0580  0.1964 -0.0055
  227loPI   C6A 3628  14.525   2.275   8.368  0.3279  0.0581 -0.2751
  227loPI   C1B 3629  14.562   2.104   9.883 -0.1507  0.0084 -0.4120
  227loPI   C2B 3630  14.835   2.042   9.534  0.1227 -0.0571  0.1585
  227loPI   C3B 3631  15.046   2.151   9.168  0.2242  0.2044  0.0432
  227loPI   C4B 3632  15.246   2.323   8.906 -0.2191 -0.2184  0.5592
  228loPI    C1 3633   0.806   9.158  10.283 -0.0354  0.1285 -0.0841
  228loPI    C2 3634   0.756   8.769  10.360  0.1906  0.1217  0.0352
  228loPI    C3 3635   1.060   8.890  10.130  0.1651  0.2338  0.0597
  228loPI   PO4 3636   0.590   9.205  10.157 -0.3565  0.0151 -0.2265
  228loPI   GL1 3637   0.294   9.348  10.069 -0.1218  0.1922  0.3772
  228loPI   GL2 3638  -0.030   9.467   9.990  0.1680 -0.0173 -0.2464
  228loPI   C1A 3639   0.255   9.229   9.602 -0.5704 -0.1418  0.2144
  228loPI   C2A 3640   0.180   9.198   9.205  0.2025 -0.0797 -0.2691
  228loPI   C3A 3641   0.042   9.238   8.839 -0.1840 -0.1798 -0.2864
  228loPI   C4A 3642  -0.257   9.271   8.488 -0.2309 -0.0876  0.3833
  228loPI   C5A 3643  -0.647   9.357   8.499  0.3784  0.0213  0.2107
  228loPI   C6A 3644  -0.975   9.152   8.665 -0.0308 -0.1389 -0.1967
  228loPI   C1B 3645  -0.192   9.470   9.587 -0.0932  0.1614  0.2128
  228loPI   C2B 3646  -0.383   9.278   9.178  0.3979  0.1651  0.0980
  228loPI   C3B 3647  -0.506   9.028   8.838  0.0897 -0.1689  0.2182
  228loPI   C4B 3648  -0.653   8.806   8.505  0.0622 -0.1376 -0.0467
  229loPI    C1 3649   8.890   9.599  10.398  0.2472 -0.1178 -0.0892
  229loPI    C2 3650   8.835   9.979  10.510  0.2184 -0.0758 -0.2446
  229loPI    C3 3651   8.995   9.717  10.766  0.1097  0.0078 -0.0893
  229loPI   PO4 3652   9.018   9.674  10.119 -0.0145 -0.1035 -0.1093
  229loPI   GL1 3653   9.197   9.794   9.744 -0.0406  0.0561  0.2592
  229loPI   GL2 3654   9.354   9.588   9.583  0.2179 -0.0094  0.2312
  229loPI   C1A 3655   9.198  10.065   9.379 -0.2667  0.2901 -0.1292
  229loPI   C2A 3656   9.309   9.999   8.956  0.0632  0.3328  0.0367
  229loPI   C3A 3657   9.421  10.106   8.540 -0.0507  0.3123 -0.2028
  229loPI   C4A 3658   9.636  10.016   8.158 -0.0412 -0.2506 -0.0968
  229loPI   C5A 3659   9.994  10.053   7.817 -0.1847 -0.1915 -0.1576
  229loPI   C6A 3660  10.362  10.111   7.852 -0.1976  0.0486  0.4559
  229loPI   C1B 3661   9.462   9.578   9.180  0.1940  0.0639  0.2036
  229loPI   C2B 3662   9.441   9.536   8.794 -0.0481 -0.2548 -0.1596
  229loPI   C3B 3663   9.550   9.625   8.482  0.2307  0.1586  0.0563
  229loPI   C4B 3664   9.708   9.534   8.150 -0.0178  0.1259  0.1088
  230loPI    C1 3665  16.157   7.329  10.721  0.0217 -0.0042  0.0904
  230loPI    C2 3666  16.475   7.554  10.810  0.1582 -0.1570 -0.0071
  230loPI    C3 3667  16.107   7.700  10.862  0.2407 -0.0422  0.2740
  230loPI   PO4 3668  16.266   7.193  10.456 -0.2659 -0.0381  0.1552
  230loPI   GL1 3669  16.105   7.042  10.127  0.0436 -0.0597  0.1884
  230loPI   GL2 3670  16.054   7.371  10.022  0.2755  0.0301  0.2295
  230loPI   C1A 3671  16.217   7.014   9.682 -0.0973 -0.0795  0.1518
  230loPI   C2A 3672  16.331   7.049   9.216 -0.1559  0.2069  0.3272
  230loPI   C3A 3673  16.511   7.232   8.937  0.0420 -0.3081 -0.2669
  230loPI   C4A 3674  16.488   7.412   8.516 -0.0299 -0.2950  0.2888
  230loPI   C5A 3675  16.344   7.460   8.059  0.1749 -0.1808 -0.1104
  230loPI   C6A 3676  16.621   7.552   7.733 -0.2112  0.0226  0.1216
  230loPI   C1B 3677  16.442   7.407   9.661 -0.0420  0.0109  0.0609
  230loPI   C2B 3678  16.869   7.299   9.361 -0.0147 -0.1797  0.0074
  230loPI   C3B 3679  17.044   7.208   9.032 -0.0047 -0.0879  0.0746
  230loPI   C4B 3680  17.136   7.202   8.573 -0.0775  0.1115 -0.0898
  231loPI    C1 3681   4.967   3.590  10.370  0.0785  0.0895  0.0130
  231loPI    C2 3682   4.784   3.323  10.606  0.0425  0.0418 -0.0681
  231loPI    C3 3683   5.152   3.248  10.466  0.0405  0.0439 -0.0744
  231loPI   PO4 3684   4.755   3.635  10.204 -0.0121  0.0866  0.0010
  231loPI   GL1 3685   4.728   3.719   9.812 -0.1672  0.0703 -0.3479
  231loPI   GL2 3686   4.949   3.960   9.824  0.0850  0.3526  0.1323
  231loPI   C1A 3687   5.075   3.614   9.513  0.1310  0.0395  0.1963
  231loPI   C2A 3688   5.317   3.792   9.244  0.0741 -0.1803  0.2280
  231loPI   C3A 3689   5.366   3.917   8.799  0.1477 -0.0293  0.2260
  231loPI   C4A 3690   5.354   3.660   8.418 -0.2739  0.2368  0.0912
  231loPI   C5A 3691   5.080   3.712   8.168  0.0260 -0.2122  0.3820
  231loPI   C6A 3692   5.022   3.671   7.740 -0.3281  0.0751  0.1154
  231loPI   C1B 3693   5.110   4.142   9.517 -0.0189 -0.1123 -0.2137
  231loPI   C2B 3694   5.176   4.295   9.083  0.0422  0.0224  0.0373
  231loPI   C3B 3695   5.098   4.442   8.617  0.0687  0.2999  0.0778
  231loPI   C4B 3696   5.040   4.523   8.238  0.4347 -0.2226  0.0962
  232loPI    C1 3697   7.035  16.684  10.203  0.1722 -0.1043  0.0281
  232loPI    C2 3698   7.177  16.378   9.989 -0.1964 -0.2780  0.0248
  232loPI    C3 3699   7.053  16.318  10.364 -0.1540 -0.1058  0.0669
  232loPI   PO4 3700   7.203  16.873  10.033  0.3450  0.0809 -0.0322
  232loPI   GL1 3701   7.133  17.082   9.600 -0.1060  0.2255 -0.3888
  232loPI   GL2 3702   7.040  17.381   9.466 -0.0015 -0.1223  0.1694
  232loPI   C1A 3703   7.399  17.116   9.260  0.2236  0.1175  0.0999
  232loPI   C2A 3704   7.052  17.241   8.996  0.2640  0.0021  0.0132
  232loPI   C3A 3705   6.969  17.282   8.592 -0.1241 -0.1954  0.2463
  232loPI   C4A 3706   6.993  17.402   8.100 -0.0660 -0.1308  0.3128
  232loPI   C5A 3707   6.951  17.742   7.951  0.0802 -0.0503  0.1355
  232loPI   C6A 3708   6.985  18.197   8.107  0.0301 -0.0279 -0.4154
  232loPI   C1B 3709   7.241  17.626   9.296  0.0465  0.1710 -0.0030
  232loPI   C2B 3710   7.224  17.738   8.798  0.1675 -0.2099 -0.0300
  232loPI   C3B 3711   7.225  17.799   8.419 -0.1417 -0.1151  0.2170
  232loPI   C4B 3712   7.442  17.948   8.164 -0.0528 -0.1471  0.0545
  233loPI    C1 3713   5.812  15.701  10.088 -0.0627  0.1831  0.0022
  233loPI    C2 3714   5.652  15.991  10.313  0.0567  0.1480  0.1339
  233loPI    C3 3715   5.683  15.619  10.458  0.1242  0.1225  0.0550
  233loPI   PO4 3716   5.810  15.904   9.799 -0.1635  0.0364  0.2713
  233loPI   GL1 3717   5.901  15.942   9.360 -0.1282  0.1106 -0.1461
  233loPI   GL2 3718   6.113  16.197   9.236  0.0111  0.2749 -0.0421
  233loPI   C1A 3719   5.570  16.148   9.150  0.1411 -0.1241  0.2355
  233loPI   C2A 3720   5.519  16.181   8.705 -0.2418  0.1190 -0.2107
  233loPI   C3A 3721   5.591  16.117   8.259  0.0551 -0.1185 -0.1872
  233loPI   C4A 3722   5.516  15.918   7.955  0.0167 -0.2705  0.1671
  233loPI   C5A 3723   5.530  15.466   7.810  0.2014 -0.0795 -0.1294
  233loPI   C6A 3724   5.270  15.170   7.662  0.2948  0.0266 -0.0913
  233loPI   C1B 3725   6.003  15.977   8.860 -0.0672  0.0269  0.2695
  233loPI   C2B 3726   6.039  15.860   8.418 -0.0976  0.2234 -0.2831
  233loPI   C3B 3727   6.081  15.770   8.021 -0.0225 -0.0485 -0.0340
  233loPI   C4B 3728   5.987  15.671   7.605  0.1647  0.2805  0.3291
  234loPI    C1 3729   6.655   8.993  10.267  0.1323  0.0389 -0.0794
  234loPI    C2 3730   6.368   8.939  10.539 -0.0284  0.2128 -0.2115
  234loPI    C3 3731   6.668   9.193  10.613  0.1341 -0.0244 -0.0430
  234loPI   PO4 3732   6.519   8.892  10.030  0.1287  0.0591 -0.1204
  234loPI   GL1 3733   6.539   8.667   9.684 -0.0637  0.2507  0.2692
  234loPI   GL2 3734   6.542   8.414   9.811  0.2836  0.0132  0.1929
  234loPI   C1A 3735   6.692   8.904   9.353 -0.0535 -0.2573  0.2383
  234loPI   C2A 3736   6.623   8.698   9.057 -0.1431  0.2666  0.0530
  234loPI   C3A 3737   6.540   8.617   8.671 -0.1132 -0.0099  0.2782
  234loPI   C4A 3738   6.642   8.497   8.318  0.0929 -0.1350 -0.0703
  234loPI   C5A 3739   6.794   8.408   7.866 -0.1518 -0.1442 -0.3442
  234loPI   C6A 3740   7.034   8.477   7.556  0.0324  0.2705 -0.2011
  234loPI   C1B 3741   6.695   8.185   9.497  0.1010 -0.0775 -0.2841
  234loPI   C2B 3742   6.532   8.208   9.032  0.1689 -0.0011  0.0162
  234loPI   C3B 3743   6.488   8.049   8.544 -0.1232 -0.2524  0.0988
  234loPI   C4B 3744   6.410   8.122   8.144  0.0042  0.5402  0.2872
  235loPI    C1 3745  11.171  16.803  10.208 -0.2472 -0.2300  0.2409
  235loPI    C2 3746  11.327  16.986  10.527 -0.0841 -0.1400  0.1118
  235loPI    C3 3747  11.250  17.195  10.195 -0.1615 -0.2521  0.0586
  235loPI   PO4 3748  11.305  16.497  10.121  0.2230  0.2403  0.0134
  235loPI   GL1 3749  11.213  16.329   9.721 -0.0547 -0.1707  0.0557
  235loPI   GL2 3750  11.437  16.125   9.733 -0.0582 -0.1946 -0.0205
  235loPI   C1A 3751  10.976  16.470   9.352 -0.1134  0.0865 -0.2270
  235loPI   C2A 3752  10.904  16.280   8.967 -0.1188 -0.0122  0.1594
  235loPI   C3A 3753  10.796  16.098   8.619 -0.0630 -0.1445 -0.1510
  235loPI   C4A 3754  10.695  15.999   8.231 -0.1377 -0.0463  0.1359
  235loPI   C5A 3755  10.481  15.951   7.819 -0.1238  0.2716 -0.0933
  235loPI   C6A 3756  10.046  16.029   7.659 -0.2086  0.1311  0.0306
  235loPI   C1B 3757  11.376  16.245   9.258 -0.0423 -0.0133 -0.0166
  235loPI   C2B 3758  11.400  16.374   8.845 -0.1802  0.1595  0.0137
  235loPI   C3B 3759  11.559  16.619   8.477 -0.0358 -0.0185 -0.2168
  235loPI   C4B 3760  11.756  16.559   8.017  0.0550  0.1523 -0.1198
  236loPI    C1 3761  10.376   6.145  10.943 -0.1880  0.0657  0.0372
  236loPI    C2 3762  10.651   6.435  10.915 -0.0897 -0.0384 -0.0924
  236loPI    C3 3763  10.261   6.527  10.920 -0.0560  0.1024 -0.0231
  236loPI   PO4 3764  10.426   5.978  10.788  0.1354 -0.2323 -0.0156
  236loPI   GL1 3765  10.252   5.856  10.521  0.0580 -0.0292 -0.0127
  236loPI   GL2 3766  10.122   5.584  10.431  0.3324 -0.0736  0.2034
  236loPI   C1A 3767  10.355   5.957  10.027 -0.0671 -0.0660 -0.1966
  236loPI   C2A 3768  10.281   5.849   9.624  0.0218  0.1924 -0.1456
  236loPI   C3A 3769  10.190   5.811   9.255  0.1195 -0.2867  0.1127
  236loPI   C4A 3770  10.022   5.964   8.914 -0.3511  0.2073 -0.4141
  236loPI   C5A 3771   9.646   6.112   8.840  0.1806 -0.1225  0.0615
  236loPI   C6A 3772   9.295   6.187   8.522 -0.3335  0.2140  0.1966
  236loPI   C1B 3773  10.210   5.464   9.956 -0.1991 -0.0556 -0.3326
  236loPI   C2B 3774  10.374   5.325   9.520  0.0619 -0.0873 -0.3753
  236loPI   C3B 3775  10.258   5.116   9.127  0.2070  0.0251  0.0956
  236loPI   C4B 3776  10.492   4.852   8.798 -0.0544 -0.1135 -0.1434
  237loPI    C1 3777  11.329  15.124  10.273  0.2718 -0.0721  0.0666
  237loPI    C2 3778  11.454  14.995  10.630  0.0151 -0.1460  0.1323
  237loPI    C3 3779  11.200  15.303  10.607  0.3355  0.1134 -0.0073
  237loPI   PO4 3780  11.215  14.874  10.176  0.1184  0.2140 -0.3547
  237loPI   GL1 3781  10.917  14.877   9.928  0.2703  0.0791  0.0092
  237loPI   GL2 3782  10.994  15.223   9.893  0.3806 -0.1676  0.1991
  237loPI   C1A 3783  11.180  14.948   9.541  0.0424  0.0485  0.2632
  237loPI   C2A 3784  11.354  14.960   9.048  0.1049  0.2621 -0.3441
  237loPI   C3A 3785  11.537  14.940   8.599  0.0688 -0.1979  0.1204
  237loPI   C4A 3786  11.888  14.780   8.421 -0.0366  0.2844  0.1830
  237loPI   C5A 3787  12.342  14.830   8.396 -0.1591  0.0519 -0.1662
  237loPI   C6A 3788  12.658  14.646   8.109 -0.1018  0.2285 -0.0004
  237loPI   C1B 3789  10.909  15.339   9.443  0.1440  0.0328  0.2277
  237loPI   C2B 3790  11.071  15.338   8.999 -0.1413  0.3335 -0.2029
  237loPI   C3B 3791  11.251  15.340   8.603 -0.1601  0.0241 -0.0016
  237loPI   C4B 3792  11.572  15.277   8.260 -0.0402 -0.0262  0.0957
  238loPI    C1 3793   2.407   2.321  10.561 -0.0966  0.1200  0.2375
  238loPI    C2 3794   2.044   2.167  10.624 -0.0979  0.0358  0.0320
  238loPI    C3 3795   2.361   2.014  10.813 -0.1510  0.0241  0.1121
  238loPI   PO4 3796   2.234   2.385  10.258  0.2165 -0.0254  0.1009
  238loPI   GL1 3797   2.053   2.395   9.803 -0.0095 -0.0613  0.0512
  238loPI   GL2 3798   1.816   2.484   9.628  0.0642  0.2350 -0.4442
  238loPI   C1A 3799   2.365   2.288   9.369 -0.0278  0.0970 -0.0896
  238loPI   C2A 3800   2.390   1.933   9.074 -0.0619  0.0014 -0.1449
  238loPI   C3A 3801   2.361   1.849   8.630 -0.2171 -0.2511 -0.1576
  238loPI   C4A 3802   2.288   1.904   8.259 -0.0371  0.0980 -0.0279
  238loPI   C5A 3803   2.330   1.841   7.825 -0.1022 -0.0151  0.2583
  238loPI   C6A 3804   2.277   1.938   7.418 -0.0413  0.2084  0.4709
  238loPI   C1B 3805   2.018   2.630   9.259 -0.0393  0.1207 -0.1091
  238loPI   C2B 3806   1.988   2.787   8.821 -0.3526 -0.2666 -0.0767
  238loPI   C3B 3807   1.670   3.025   8.648 -0.4726 -0.3296  0.0909
  238loPI   C4B 3808   1.397   3.211   8.364  0.0210  0.3956  0.1452
  239loPI    C1 3809  15.761   1.195  10.826  0.1201 -0.0378 -0.0851
  239loPI    C2 3810  15.821   1.564  10.968 -0.1124 -0.0870  0.1478
  239loPI    C3 3811  15.806   1.253  11.219 -0.0917 -0.2329 -0.0299
  239loPI   PO4 3812  15.669   1.260  10.554 -0.5845  0.2264  0.2534
  239loPI   GL1 3813  15.426   1.320  10.256 -0.2170 -0.0781 -0.2181
  239loPI   GL2 3814  15.553   1.572  10.104  0.0236  0.1739 -0.1042
  239loPI   C1A 3815  15.130   1.138   9.924  0.1118  0.0799  0.1081
  239loPI   C2A 3816  15.153   1.182   9.494 -0.0526 -0.2687  0.0894
  239loPI   C3A 3817  15.066   1.215   9.068 -0.1959  0.1246  0.0905
  239loPI   C4A 3818  15.022   1.407   8.721 -0.0578 -0.2664 -0.0179
  239loPI   C5A 3819  15.160   1.452   8.313 -0.0598 -0.2465  0.1571
  239loPI   C6A 3820  14.918   1.447   8.053  0.3263  0.1232 -0.0841
  239loPI   C1B 3821  15.423   1.500   9.711 -0.1147 -0.1501  0.0565
  239loPI   C2B 3822  15.104   1.653   9.343  0.2497 -0.0544 -0.1748
  239loPI   C3B 3823  15.270   1.779   8.963 -0.0695 -0.2201  0.3141
  239loPI   C4B 3824  15.337   1.936   8.522 -0.0541  0.0954 -0.1379
  240loPI    C1 3825   0.889  18.030  10.492  0.0005 -0.1674 -0.0176
  240loPI    C2 3826   0.685  18.303  10.701 -0.0403 -0.0495 -0.2083
  240loPI    C3 3827   1.085  18.314  10.693 -0.0411 -0.0095 -0.1967
  240loPI   PO4 3828   0.725  17.964  10.252 -0.1647  0.1074  0.0358
  240loPI   GL1 3829   0.811  18.159   9.860  0.2597 -0.1237  0.0110
  240loPI   GL2 3830   0.504  18.182   9.840  0.0503  0.0424  0.0922
  240loPI   C1A 3831   0.990  18.148   9.444 -0.1312 -0.1503  0.2405
  240loPI   C2A 3832   1.037  18.332   9.073  0.1115 -0.2075 -0.5676
  240loPI   C3A 3833   1.114  18.092   8.768 -0.1815  0.1549 -0.0146
  240loPI   C4A 3834   1.459  17.881   8.680  0.0966  0.0769 -0.0731
  240loPI   C5A 3835   1.783  17.982   8.733  0.3045 -0.0364  0.0870
  240loPI   C6A 3836   2.165  17.913   8.880 -0.2465  0.1028  0.0678
  240loPI   C1B 3837   0.564  18.357   9.380 -0.0186  0.0736  0.1227
  240loPI   C2B 3838   0.492  18.358   8.935  0.1311 -0.0971 -0.0532
  240loPI   C3B 3839   0.727  18.429   8.552 -0.1083  0.2274 -0.1250
  240loPI   C4B 3840   1.109  18.481   8.467 -0.2383 -0.1500 -0.0413
  241loPI    C1 3841  13.999   5.306  10.876 -0.2796  0.1748 -0.0219
  241loPI    C2 3842  14.036   5.033  11.167 -0.0843  0.1330 -0.0843
  241loPI    C3 3843  14.348   5.263  11.067 -0.2385  0.3598 -0.0528
  241loPI   PO4 3844  13.799   5.120  10.663 -0.1277  0.0698 -0.0077
  241loPI   GL1 3845  13.792   5.245  10.328 -0.1719 -0.1206 -0.1693
  241loPI   GL2 3846  13.472   5.336  10.227 -0.0294 -0.1455  0.4825
  241loPI   C1A 3847  13.898   5.153   9.908  0.2236 -0.1190 -0.1113
  241loPI   C2A 3848  13.886   5.174   9.495 -0.0242 -0.1010  0.2184
  241loPI   C3A 3849  13.686   5.271   9.169  0.0116  0.0817  0.2365
  241loPI   C4A 3850  13.516   5.369   8.850  0.0440  0.0360 -0.1088
  241loPI   C5A 3851  13.680   5.534   8.410  0.3006 -0.1943 -0.1896
  241loPI   C6A 3852  14.038   5.504   8.173 -0.0006 -0.1056 -0.0266
  241loPI   C1B 3853  13.394   5.280   9.781  0.1372 -0.1389  0.1223
  241loPI   C2B 3854  13.230   5.501   9.389  0.0680 -0.2216  0.0839
  241loPI   C3B 3855  13.017   5.500   9.033 -0.2052  0.0654 -0.1935
  241loPI   C4B 3856  12.677   5.317   8.868 -0.0741 -0.2009  0.0088
  242loPI    C1 3857  17.424   0.118  10.404  0.1398  0.1668  0.1024
  242loPI    C2 3858  17.583  -0.190  10.604  0.0950 -0.0252 -0.1529
  242loPI    C3 3859  17.480   0.144  10.800  0.1461 -0.1699  0.1262
  242loPI   PO4 3860  17.584   0.194  10.188 -0.2010  0.0603  0.1937
  242loPI   GL1 3861  17.734   0.044   9.795  0.0199  0.2359 -0.1236
  242loPI   GL2 3862  17.510   0.061   9.651 -0.0223 -0.2687 -0.1706
  242loPI   C1A 3863  18.163  -0.175   9.751 -0.1320 -0.0621  0.0666
  242loPI   C2A 3864  18.211  -0.481   9.373  0.1220 -0.0176 -0.0399
  242loPI   C3A 3865  18.395  -0.479   8.978  0.2825 -0.0114  0.0728
  242loPI   C4A 3866  18.412  -0.571   8.476  0.1898 -0.0768 -0.0822
  242loPI   C5A 3867  18.526  -0.323   8.161 -0.0476  0.0479 -0.3296
  242loPI   C6A 3868  18.831  -0.285   7.770  0.0483 -0.0114 -0.0276
  242loPI   C1B 3869  17.258  -0.040   9.306  0.0722 -0.0553  0.2544
  242loPI   C2B 3870  17.313  -0.081   8.891  0.2393 -0.0161  0.4080
  242loPI   C3B 3871  17.205   0.185   8.521  0.0248  0.0391  0.0125
  242loPI   C4B 3872  17.244   0.380   8.052 -0.1768  0.0233 -0.0560
  243loPI    C1 3873  17.532  12.725  11.138  0.1315  0.2260 -0.1077
  243loPI    C2 3874  17.754  13.036  11.256  0.3244  0.0382  0.0331
  243loPI    C3 3875  17.912  12.669  11.251  0.0208 -0.0967  0.1200
  243loPI   PO4 3876  17.340  12.901  10.998  0.1459  0.0682  0.0643
  243loPI   GL1 3877  17.179  12.914  10.542 -0.3000  0.1276 -0.0514
  243loPI   GL2 3878  17.365  13.245  10.468  0.1238 -0.0777 -0.2855
  243loPI   C1A 3879  17.125  13.044  10.074  0.2261 -0.2504 -0.1266
  243loPI   C2A 3880  17.046  12.974   9.640  0.0274  0.1646 -0.0372
  243loPI   C3A 3881  17.144  12.722   9.249 -0.2077 -0.4408  0.0917
  243loPI   C4A 3882  17.405  12.883   8.823  0.4614 -0.0348  0.0777
  243loPI   C5A 3883  17.771  13.061   8.719 -0.1797 -0.2726  0.0311
  243loPI   C6A 3884  18.114  12.843   8.538 -0.0147  0.1372 -0.0998
  243loPI   C1B 3885  17.583  13.036  10.236 -0.2355  0.0606 -0.1479
  243loPI   C2B 3886  17.544  12.923   9.803 -0.0091 -0.0090 -0.0682
  243loPI   C3B 3887  17.566  12.901   9.321 -0.0433 -0.1909 -0.1415
  243loPI   C4B 3888  17.900  12.824   9.133 -0.0127 -0.4940  0.2192
  244loPI    C1 3889   7.902  15.318   9.866 -0.0816  0.0456 -0.0509
  244loPI    C2 3890   7.807  14.950   9.989 -0.1477  0.0582 -0.0640
  244loPI    C3 3891   7.527  15.236   9.979 -0.1553  0.0447 -0.2906
  244loPI   PO4 3892   8.106  15.365   9.605  0.0451 -0.0677 -0.1690
  244loPI   GL1 3893   8.352  15.413   9.314 -0.2129  0.1191  0.1728
  244loPI   GL2 3894   8.518  15.076   9.372  0.0191 -0.2826 -0.3500
  244loPI   C1A 3895   8.520  15.387   8.982  0.2413 -0.1024 -0.0030
  244loPI   C2A 3896   8.588  15.249   8.518 -0.1557 -0.1660  0.2213
  244loPI   C3A 3897   8.723  15.274   8.059  0.1186  0.1580  0.2225
  244loPI   C4A 3898   8.614  15.431   7.849 -0.1950  0.1345  0.2043
  244loPI   C5A 3899   8.302  15.568   7.819 -0.1024  0.2130  0.0041
  244loPI   C6A 3900   8.053  15.728   7.488  0.1975 -0.1605 -0.4261
  244loPI   C1B 3901   8.250  14.960   9.063 -0.0544  0.3929 -0.1102
  244loPI   C2B 3902   8.325  14.818   8.716 -0.4655 -0.1263  0.0162
  244loPI   C3B 3903   8.495  14.785   8.314  0.1381 -0.1783 -0.1286
  244loPI   C4B 3904   8.835  14.812   7.971 -0.2049 -0.0387 -0.1566
  245loPI    C1 3905   6.833   3.559  10.413 -0.1519 -0.0569 -0.1783
  245loPI    C2 3906   6.958   3.933  10.476 -0.1412 -0.1078  0.1194
  245loPI    C3 3907   6.568   3.847  10.496 -0.1581 -0.0864 -0.0945
  245loPI   PO4 3908   6.928   3.457  10.210 -0.4859 -0.0293  0.0868
  245loPI   GL1 3909   6.870   3.462   9.757 -0.0534  0.1311  0.1657
  245loPI   GL2 3910   7.140   3.655   9.742 -0.0382  0.2391 -0.2786
  245loPI   C1A 3911   6.662   3.199   9.576 -0.1235 -0.2847 -0.1593
  245loPI   C2A 3912   6.629   3.173   9.083  0.1051  0.1118  0.1110
  245loPI   C3A 3913   6.825   3.058   8.731 -0.1453  0.0095  0.1566
  245loPI   C4A 3914   6.729   2.836   8.368 -0.2380  0.3267  0.1814
  245loPI   C5A 3915   6.427   3.063   8.032 -0.0889  0.3508 -0.0089
  245loPI   C6A 3916   5.952   3.136   8.135  0.0973  0.0428 -0.1171
  245loPI   C1B 3917   7.090   3.455   9.348  0.2242  0.0649  0.1417
  245loPI   C2B 3918   7.246   3.173   9.045  0.2208 -0.0785  0.0241
  245loPI   C3B 3919   7.429   3.086   8.729 -0.1052 -0.1577 -0.0224
  245loPI   C4B 3920   7.787   3.272   8.450 -0.1071  0.2959 -0.3967
  246loPI    C1 3921  14.464  15.218  11.351  0.0449 -0.0541 -0.1904
  246loPI    C2 3922  14.114  15.030  11.304 -0.0056  0.0090 -0.0714
  246loPI    C3 3923  14.450  14.818  11.347 -0.0591 -0.0545  0.0395
  246loPI   PO4 3924  14.491  15.375  11.165  0.0023 -0.0579  0.1586
  246loPI   GL1 3925  14.390  15.646  10.819  0.0394 -0.2141  0.1929
  246loPI   GL2 3926  14.689  15.539  10.629 -0.0991 -0.0495  0.1144
  246loPI   C1A 3927  14.284  15.877  10.421 -0.1916  0.3300 -0.1025
  246loPI   C2A 3928  14.538  15.893  10.131  0.0217 -0.0269  0.0855
  246loPI   C3A 3929  14.630  16.110   9.770 -0.1787 -0.0456  0.2161
  246loPI   C4A 3930  14.664  16.254   9.328 -0.0279  0.0247  0.1141
  246loPI   C5A 3931  14.873  16.092   8.979  0.0756  0.2835 -0.1629
  246loPI   C6A 3932  15.303  15.940   8.650  0.1514  0.0305  0.0107
  246loPI   C1B 3933  14.728  15.415  10.120 -0.0396 -0.2348  0.1756
  246loPI   C2B 3934  14.735  15.481   9.722 -0.0308  0.0621 -0.1725
  246loPI   C3B 3935  14.824  15.780   9.445 -0.2169  0.1945  0.0275
  246loPI   C4B 3936  15.127  15.985   9.475 -0.0477  0.0113  0.1601
  247loPI    C1 3937   3.174   7.694  10.274  0.0726  0.2075  0.2886
  247loPI    C2 3938   2.887   7.556  10.516 -0.1219 -0.1215 -0.1150
  247loPI    C3 3939   3.236   7.362  10.489 -0.0469 -0.0049  0.0027
  247loPI   PO4 3940   2.946   7.754  10.024 -0.2759 -0.0398  0.1226
  247loPI   GL1 3941   3.130   8.042   9.682  0.0384  0.1173  0.0757
  247loPI   GL2 3942   3.487   8.074   9.524  0.0292  0.1424  0.4019
  247loPI   C1A 3943   3.083   8.403   9.301 -0.3808  0.2622 -0.2740
  247loPI   C2A 3944   3.374   8.596   8.904 -0.1924 -0.0975 -0.2826
  247loPI   C3A 3945   3.471   8.687   8.390  0.2083  0.3119  0.1096
  247loPI   C4A 3946   3.403   8.801   7.976 -0.2910 -0.0585 -0.0392
  247loPI   C5A 3947   3.611   8.662   7.703 -0.3167  0.1556  0.2487
  247loPI   C6A 3948   3.968   8.634   7.332  0.0474 -0.3731 -0.0715
  247loPI   C1B 3949   3.399   8.140   9.049 -0.1071 -0.1086 -0.1920
  247loPI   C2B 3950   3.343   8.192   8.637  0.4007  0.2439 -0.0827
  247loPI   C3B 3951   3.423   7.958   8.287  0.1015 -0.0063  0.0874
  247loPI   C4B 3952   3.513   7.815   7.891 -0.2415  0.0677  0.0383
  248loPI    C1 3953   5.967  12.163   9.989  0.3064 -0.1216  0.1659
  248loPI    C2 3954   5.856  11.818  10.158 -0.0165 -0.0769  0.0507
  248loPI    C3 3955   5.673  12.159  10.260  0.1323  0.0245 -0.0179
  248loPI   PO4 3956   6.052  12.032   9.723 -0.3953  0.0628  0.0958
  248loPI   GL1 3957   6.386  11.807   9.616 -0.1043  0.0507  0.3879
  248loPI   GL2 3958   6.170  11.609   9.424 -0.0462 -0.1832  0.0891
  248loPI   C1A 3959   6.628  11.778   9.254 -0.1122  0.2000 -0.0330
  248loPI   C2A 3960   6.711  11.609   8.818 -0.0889  0.0589  0.0069
  248loPI   C3A 3961   6.687  11.622   8.346  0.1082 -0.0648 -0.4143
  248loPI   C4A 3962   6.648  11.645   7.929  0.2592  0.1325  0.0130
  248loPI   C5A 3963   6.677  11.436   7.561  0.0626  0.0337 -0.1500
  248loPI   C6A 3964   6.892  11.206   7.248  0.1207 -0.1629 -0.0155
  248loPI   C1B 3965   6.169  11.645   8.956  0.1260 -0.1463 -0.1232
  248loPI   C2B 3966   6.274  11.672   8.583 -0.1413  0.2334  0.1709
  248loPI   C3B 3967   6.208  11.695   8.203  0.0138  0.0430 -0.5061
  248loPI   C4B 3968   5.934  11.651   7.829 -0.0771  0.1363 -0.0731
  249loPI    C1 3969   9.766  17.821  10.642 -0.0287 -0.0910 -0.0198
  249loPI    C2 3970   9.556  18.159  10.601 -0.2339 -0.2026  0.0995
  249loPI    C3 3971   9.773  18.097  10.931  0.0806 -0.0387 -0.0716
  249loPI   PO4 3972   9.872  17.779  10.364 -0.0383 -0.1883  0.1498
  249loPI   GL1 3973  10.226  17.926  10.140 -0.1055 -0.0157  0.2571
  249loPI   GL2 3974   9.889  18.210  10.107  0.3216  0.1290  0.1657
  249loPI   C1A 3975  10.368  17.690   9.779  0.2357 -0.1430 -0.1391
  249loPI   C2A 3976  10.430  17.772   9.441  0.0160  0.3004  0.3505
  249loPI   C3A 3977  10.355  17.973   9.087  0.0493 -0.7349 -0.1348
  249loPI   C4A 3978   9.925  18.130   8.702 -0.2954 -0.1566 -0.0970
  249loPI   C5A 3979   9.873  18.233   8.395  0.4976 -0.2652  0.1018
  249loPI   C6A 3980   9.631  18.539   8.271  0.0266 -0.0696  0.0515
  249loPI   C1B 3981   9.857  18.426   9.686 -0.2792  0.0159  0.0726
  249loPI   C2B 3982   9.774  18.664   9.308 -0.2551 -0.1470  0.2068
  249loPI   C3B 3983   9.828  19.005   8.904  0.0866 -0.1662 -0.0214
  249loPI   C4B 3984   9.821  18.991   8.437 -0.0484 -0.2376 -0.0878
  250loPI    C1 3985   9.597   9.103   9.936 -0.1233 -0.1454  0.0580
  250loPI    C2 3986   9.479   9.473  10.032  0.1634  0.0921 -0.4646
  250loPI    C3 3987   9.215   9.212   9.882 -0.0624  0.0434 -0.0003
  250loPI   PO4 3988   9.897   9.137  10.066 -0.2007  0.1612 -0.3498
  250loPI   GL1 3989  10.303   9.147   9.881  0.3381 -0.1800 -0.1992
  250loPI   GL2 3990  10.574   9.130  10.007  0.0949  0.2754 -0.1665
  250loPI   C1A 3991  10.418   9.013   9.536  0.0016  0.1220  0.1449
  250loPI   C2A 3992  10.389   8.820   9.053 -0.2058  0.1283 -0.0844
  250loPI   C3A 3993  10.264   8.839   8.629  0.0937  0.0576  0.2457
  250loPI   C4A 3994   9.965   8.510   8.379  0.0030 -0.1605  0.0424
  250loPI   C5A 3995   9.610   8.530   8.114 -0.0231  0.1044  0.1344
  250loPI   C6A 3996   9.215   8.589   8.266 -0.1666 -0.0414 -0.2208
  250loPI   C1B 3997  10.886   9.173   9.667  0.2367 -0.3836  0.1972
  250loPI   C2B 3998  10.903   9.011   9.357 -0.1140  0.0425  0.2000
  250loPI   C3B 3999  10.966   9.028   8.966  0.1617 -0.3632 -0.0807
  250loPI   C4B 4000  10.761   8.791   8.671 -0.1312 -0.0856  0.0813
  251loPI    C1 4001   6.307   8.175  10.568  0.1250 -0.1747  0.0643
  251loPI    C2 4002   6.512   8.478  10.406  0.0640 -0.1717 -0.0083
  251loPI    C3 4003   6.435   8.475  10.799  0.0848 -0.1049 -0.0036
  251loPI   PO4 4004   6.187   8.006  10.318 -0.1428 -0.0281  0.0387
  251loPI   GL1 4005   6.187   8.040   9.781  0.1697  0.0001 -0.2307
  251loPI   GL2 4006   6.338   7.840   9.774 -0.1881 -0.0933  0.4636
  251loPI   C1A 4007   6.149   8.118   9.407  0.4506 -0.1892  0.1778
  251loPI   C2A 4008   6.063   8.153   8.967  0.0339  0.0166  0.1432
  251loPI   C3A 4009   6.080   8.411   8.566 -0.1030  0.2113  0.0924
  251loPI   C4A 4010   5.937   8.497   8.207 -0.0161 -0.1429 -0.1567
  251loPI   C5A 4011   5.669   8.918   8.136 -0.0401 -0.1657 -0.2308
  251loPI   C6A 4012   5.440   9.162   7.903 -0.0138  0.3081 -0.1027
  251loPI   C1B 4013   6.484   7.717   9.411  0.0438  0.0710 -0.2415
  251loPI   C2B 4014   6.402   7.745   8.977 -0.0301  0.2617  0.1004
  251loPI   C3B 4015   6.139   7.687   8.638  0.1730  0.1979 -0.1006
  251loPI   C4B 4016   5.990   7.854   8.306 -0.1375 -0.2639  0.0932
  252loPI    C1 4017   8.294   1.324  10.739 -0.0089 -0.1645  0.0865
  252loPI    C2 4018   8.055   1.022  10.630 -0.0535 -0.0889 -0.0264
  252loPI    C3 4019   8.024   1.180  10.996 -0.0261 -0.2246  0.0350
  252loPI   PO4 4020   8.333   1.434  10.598 -0.1457  0.0236  0.3261
  252loPI   GL1 4021   8.136   1.413  10.267 -0.1659 -0.1498  0.0290
  252loPI   GL2 4022   8.409   1.638  10.123 -0.0189 -0.2244 -0.0333
  252loPI   C1A 4023   8.044   1.451   9.839  0.1843  0.5727  0.0008
  252loPI   C2A 4024   7.906   1.432   9.466 -0.1449  0.0102 -0.0720
  252loPI   C3A 4025   7.891   1.407   9.113 -0.0812  0.1286  0.0214
  252loPI   C4A 4026   8.087   1.484   8.785  0.3091 -0.0616  0.0401
  252loPI   C5A 4027   8.250   1.572   8.411 -0.1033  0.1445  0.3316
  252loPI   C6A 4028   8.248   1.501   8.067 -0.1028  0.2582 -0.0251
  252loPI   C1B 4029   8.405   1.751   9.688  0.2691  0.0527  0.0128
  252loPI   C2B 4030   8.692   1.751   9.361  0.0064  0.0243 -0.0130
  252loPI   C3B 4031   8.667   1.721   9.031 -0.0542  0.3032  0.1204
  252loPI   C4B 4032   8.723   1.702   8.651 -0.2005 -0.0886  0.1045
  253loPI    C1 4033  13.897   7.959  10.788 -0.0645 -0.0787  0.0216
  253loPI    C2 4034  13.710   8.274  10.949 -0.1605 -0.1210 -0.0071
  253loPI    C3 4035  13.809   7.962  11.178  0.0688 -0.0071  0.0520
  253loPI   PO4 4036  14.042   8.080  10.505  0.3825  0.0944  0.2558
  253loPI   GL1 4037  13.871   7.918  10.080  0.2150 -0.0644 -0.0183
  253loPI   GL2 4038  13.971   8.241   9.992  0.0284  0.1239  0.2664
  253loPI   C1A 4039  13.832   7.760   9.701  0.0177  0.0731  0.0141
  253loPI   C2A 4040  13.860   7.848   9.286  0.3535  0.1046  0.0268
  253loPI   C3A 4041  13.834   7.994   8.867 -0.0135  0.0406  0.0235
  253loPI   C4A 4042  13.686   8.036   8.484 -0.1990  0.1788 -0.0856
  253loPI   C5A 4043  13.650   7.648   8.235 -0.1402 -0.1192  0.4570
  253loPI   C6A 4044  13.551   7.333   8.010  0.0760 -0.0473 -0.0889
  253loPI   C1B 4045  13.743   8.317   9.637  0.2606 -0.0027  0.1658
  253loPI   C2B 4046  13.720   8.432   9.177 -0.1836  0.1269 -0.0929
  253loPI   C3B 4047  13.606   8.430   8.766 -0.2760  0.2953 -0.1289
  253loPI   C4B 4048  13.677   8.527   8.312 -0.1652  0.1247  0.2397
  254loPI    C1 4049   3.413  11.430  10.186 -0.0659  0.1817 -0.0689
  254loPI    C2 4050   3.614  11.774  10.217 -0.0468  0.1574  0.0830
  254loPI    C3 4051   3.532  11.560  10.545 -0.1156  0.0497 -0.0039
  254loPI   PO4 4052   3.249  11.520  10.008 -0.0422  0.1416 -0.2248
  254loPI   GL1 4053   3.069  11.382   9.710  0.0820  0.4153 -0.0341
  254loPI   GL2 4054   2.914  11.127   9.482  0.1832 -0.2432  0.0601
  254loPI   C1A 4055   3.345  11.633   9.315 -0.1281 -0.1670 -0.1169
  254loPI   C2A 4056   3.634  11.938   9.217  0.0150  0.0680 -0.1352
  254loPI   C3A 4057   4.073  11.989   8.917 -0.0858  0.0634 -0.2525
  254loPI   C4A 4058   4.396  11.967   8.615  0.1653  0.1015 -0.1536
  254loPI   C5A 4059   4.511  12.109   8.179 -0.0378 -0.0116 -0.0762
  254loPI   C6A 4060   4.566  11.983   7.731  0.0875  0.0734  0.1469
  254loPI   C1B 4061   2.748  11.232   9.115  0.2646  0.2286  0.1917
  254loPI   C2B 4062   2.568  11.246   8.720  0.0129  0.0026  0.0950
  254loPI   C3B 4063   2.391  11.301   8.340  0.1775  0.1544  0.0916
  254loPI   C4B 4064   2.114  11.636   8.080  0.1161  0.0401 -0.0151
  255loPI    C1 4065  17.337  16.481  10.690  0.4070 -0.0226 -0.0807
  255loPI    C2 4066  17.354  16.779  10.956 -0.0402  0.0037 -0.0735
  255loPI    C3 4067  17.359  16.860  10.564 -0.1490  0.0203 -0.0716
  255loPI   PO4 4068  17.077  16.296  10.752  0.0005  0.0841 -0.1376
  255loPI   GL1 4069  16.832  16.012  10.538 -0.0810  0.2228  0.0407
  255loPI   GL2 4070  16.513  16.010  10.429  0.3660 -0.1428 -0.3270
  255loPI   C1A 4071  17.074  15.744  10.185 -0.0816 -0.2153 -0.2216
  255loPI   C2A 4072  17.085  15.461   9.830  0.1040 -0.2618  0.0577
  255loPI   C3A 4073  17.304  15.170   9.517  0.1385 -0.1382 -0.2142
  255loPI   C4A 4074  17.188  14.776   9.273  0.1535 -0.0700 -0.0383
  255loPI   C5A 4075  17.491  14.496   9.206  0.1409 -0.0866  0.2332
  255loPI   C6A 4076  17.780  14.639   8.894 -0.0859  0.0704  0.2469
  255loPI   C1B 4077  16.634  16.014  10.004 -0.1232  0.3153  0.0715
  255loPI   C2B 4078  16.537  15.966   9.571  0.1243 -0.0376 -0.2544
  255loPI   C3B 4079  16.583  16.026   9.140 -0.1213  0.1066 -0.0136
  255loPI   C4B 4080  16.631  15.940   8.557 -0.0011  0.1387  0.1981
  256loPI    C1 4081   3.429   5.360  10.083  0.1929  0.1254 -0.0233
  256loPI    C2 4082   3.218   5.628  10.293  0.4846  0.3198  0.0270
  256loPI    C3 4083   3.369   5.305  10.475  0.3056  0.2243  0.0083
  256loPI   PO4 4084   3.313   5.302   9.915 -0.0291 -0.0616  0.0916
  256loPI   GL1 4085   3.215   5.295   9.493 -0.0082  0.0066  0.0381
  256loPI   GL2 4086   3.458   5.090   9.397  0.0424 -0.1329 -0.0922
  256loPI   C1A 4087   3.138   5.413   9.098  0.0740 -0.4203  0.0198
  256loPI   C2A 4088   3.119   5.566   8.728 -0.2033  0.1468  0.2243
  256loPI   C3A 4089   2.847   5.754   8.448  0.1544  0.0714  0.2175
  256loPI   C4A 4090   2.485   5.840   8.147  0.3268  0.1104  0.1253
  256loPI   C5A 4091   2.088   5.942   8.229  0.1574  0.1166 -0.0035
  256loPI   C6A 4092   1.752   5.724   8.308  0.0308 -0.3524  0.1573
  256loPI   C1B 4093   3.600   5.202   8.944 -0.2941 -0.0146  0.0264
  256loPI   C2B 4094   3.468   5.172   8.570  0.0220  0.0503  0.1866
  256loPI   C3B 4095   3.085   5.084   8.273 -0.1138  0.1328 -0.1056
  256loPI   C4B 4096   3.158   4.819   7.944 -0.1523  0.2730  0.1068
  257loPI    C1 4097  13.136   0.232  10.553 -0.0357  0.0783  0.0328
  257loPI    C2 4098  13.064  -0.148  10.658 -0.1555  0.1473  0.2051
  257loPI    C3 4099  12.928   0.152  10.886  0.0477  0.2926  0.1383
  257loPI   PO4 4100  13.054   0.272  10.357 -0.1197  0.0209 -0.0111
  257loPI   GL1 4101  13.003   0.366   9.926 -0.4178 -0.1293 -0.1979
  257loPI   GL2 4102  13.133   0.059   9.852 -0.0889  0.1853  0.1791
  257loPI   C1A 4103  12.718   0.597   9.637  0.1804  0.2468 -0.2256
  257loPI   C2A 4104  12.606   0.720   9.193  0.2333  0.2269  0.2684
  257loPI   C3A 4105  12.601   0.750   8.775  0.0313 -0.1143 -0.2338
  257loPI   C4A 4106  12.410   0.560   8.416  0.0758  0.1483 -0.0437
  257loPI   C5A 4107  12.159   0.731   8.104  0.1510  0.1180  0.3386
  257loPI   C6A 4108  11.797   0.587   7.975  0.2449 -0.0664 -0.0448
  257loPI   C1B 4109  13.074   0.176   9.441  0.1191  0.1073  0.0892
  257loPI   C2B 4110  12.986   0.318   9.053  0.1823  0.0549  0.0309
  257loPI   C3B 4111  12.833   0.261   8.576 -0.0359 -0.1395  0.1447
  257loPI   C4B 4112  13.211   0.354   8.232 -0.0560 -0.2631  0.2152
  258loPI    C1 4113   8.068   2.335  10.925  0.1265  0.1665  0.1143
  258loPI    C2 4114   8.467   2.331  10.899  0.1271  0.1737  0.1237
  258loPI    C3 4115   8.282   2.623  11.101  0.1213  0.1264  0.1869
  258loPI   PO4 4116   7.991   2.124  10.738 -0.2977 -0.1474  0.0039
  258loPI   GL1 4117   7.945   2.091  10.326  0.0741  0.0877 -0.2853
  258loPI   GL2 4118   7.979   2.380  10.150  0.1049 -0.0498 -0.1099
  258loPI   C1A 4119   7.966   1.932   9.984 -0.1367 -0.3251  0.2106
  258loPI   C2A 4120   7.940   1.926   9.547 -0.0938 -0.1687  0.1261
  258loPI   C3A 4121   8.125   1.843   9.179 -0.0849 -0.1527 -0.1253
  258loPI   C4A 4122   8.276   1.931   8.768  0.5142  0.0118  0.0719
  258loPI   C5A 4123   8.376   2.026   8.365 -0.0312 -0.0910 -0.2025
  258loPI   C6A 4124   8.564   2.338   8.168 -0.3159 -0.0692  0.0138
  258loPI   C1B 4125   8.062   2.374   9.769  0.0208  0.2093 -0.0791
  258loPI   C2B 4126   8.351   2.255   9.495  0.1655 -0.1434 -0.0184
  258loPI   C3B 4127   8.475   2.204   9.169 -0.0493 -0.2305 -0.2326
  258loPI   C4B 4128   8.650   2.225   8.762 -0.2680 -0.0220 -0.2325
  259loPI    C1 4129   6.936   6.134  10.381  0.0307 -0.0843  0.1000
  259loPI    C2 4130   7.096   6.477  10.512  0.1373 -0.1288  0.0872
  259loPI    C3 4131   6.735   6.363  10.640  0.0087  0.0929 -0.0707
  259loPI   PO4 4132   7.115   5.970  10.352  0.0505 -0.1129 -0.3553
  259loPI   GL1 4133   7.438   5.772  10.117 -0.0253  0.0428 -0.2275
  259loPI   GL2 4134   7.442   6.068   9.914 -0.1132 -0.2830 -0.2612
  259loPI   C1A 4135   7.313   5.340   9.992 -0.0407  0.1598  0.1778
  259loPI   C2A 4136   7.073   5.080   9.785 -0.1102  0.3423 -0.0823
  259loPI   C3A 4137   7.001   5.007   9.344 -0.2256 -0.0882  0.1537
  259loPI   C4A 4138   7.171   5.044   8.972  0.0175  0.1660 -0.1535
  259loPI   C5A 4139   7.195   5.379   8.712  0.0689  0.1045 -0.2083
  259loPI   C6A 4140   7.033   5.581   8.370 -0.2276  0.3343  0.0296
  259loPI   C1B 4141   7.746   5.967   9.555  0.0598 -0.0423  0.2689
  259loPI   C2B 4142   8.058   5.740   9.371  0.1862  0.0391  0.1882
  259loPI   C3B 4143   8.156   5.538   9.036 -0.1445 -0.0929 -0.0722
  259loPI   C4B 4144   8.165   5.408   8.659 -0.2624 -0.0586  0.2094
  260loPI    C1 4145   5.968   4.330  10.502 -0.0314  0.0932  0.0346
  260loPI    C2 4146   5.644   4.110  10.587  0.0182 -0.0155 -0.0542
  260loPI    C3 4147   5.815   4.334  10.871 -0.0026 -0.1316  0.0507
  260loPI   PO4 4148   6.124   4.103  10.313 -0.1601 -0.0804 -0.2630
  260loPI   GL1 4149   6.062   4.096   9.900 -0.1336 -0.2572 -0.0956
  260loPI   GL2 4150   6.064   3.773   9.859 -0.1944  0.1999 -0.2320
  260loPI   C1A 4151   6.223   4.061   9.435 -0.1871  0.0949 -0.0465
  260loPI   C2A 4152   6.200   4.077   9.036  0.3809 -0.0828  0.1054
  260loPI   C3A 4153   6.196   4.323   8.740 -0.0092 -0.0788 -0.0552
  260loPI   C4A 4154   6.474   4.687   8.702  0.1582 -0.2003 -0.0796
  260loPI   C5A 4155   6.587   4.820   8.360  0.0406  0.0362 -0.0302
  260loPI   C6A 4156   6.752   4.957   7.983  0.0720  0.1139 -0.0282
  260loPI   C1B 4157   6.292   3.532   9.530  0.1086  0.0225 -0.4186
  260loPI   C2B 4158   6.302   3.527   9.046  0.2658  0.1513  0.0149
  260loPI   C3B 4159   6.275   3.772   8.644  0.2091  0.1250  0.1290
  260loPI   C4B 4160   6.402   4.041   8.329  0.1637  0.3234 -0.0747
  261loPI    C1 4161  12.557  14.123  10.322  0.2328  0.1009  0.0783
  261loPI    C2 4162  12.563  13.802  10.561 -0.1821 -0.0153 -0.0592
  261loPI    C3 4163  12.527  14.168  10.719 -0.1946 -0.0723  0.0713
  261loPI   PO4 4164  12.525  13.938  10.075 -0.3568  0.0096  0.2261
  261loPI   GL1 4165  12.440  13.679   9.695 -0.0491  0.0358  0.0345
  261loPI   GL2 4166  12.556  13.383   9.757  0.0592 -0.2808 -0.3438
  261loPI   C1A 4167  12.563  13.596   9.314 -0.0773 -0.1674 -0.4849
  261loPI   C2A 4168  12.512  13.657   8.941 -0.0153  0.0371  0.0535
  261loPI   C3A 4169  12.448  13.703   8.456  0.1161 -0.0082  0.0832
  261loPI   C4A 4170  12.511  14.064   8.210 -0.3572 -0.1617  0.1549
  261loPI   C5A 4171  12.704  14.224   7.818  0.1070 -0.0272  0.1749
  261loPI   C6A 4172  13.081  14.457   7.726  0.0006  0.0170  0.2326
  261loPI   C1B 4173  12.624  13.107   9.427 -0.1350 -0.1175 -0.1318
  261loPI   C2B 4174  12.777  12.860   9.014  0.2013  0.0910 -0.1154
  261loPI   C3B 4175  12.994  12.807   8.670  0.0182  0.1678  0.3464
  261loPI   C4B 4176  13.209  13.043   8.376 -0.0770  0.2235 -0.2625
  262loPI    C1 4177  17.790   9.811  10.313  0.0097 -0.1391 -0.0794
  262loPI    C2 4178  18.033   9.899  10.618  0.0443 -0.1210 -0.1120
  262loPI    C3 4179  18.022   9.526  10.472  0.0550 -0.1209 -0.1128
  262loPI   PO4 4180  17.664  10.030  10.273 -0.3032 -0.1946 -0.4214
  262loPI   GL1 4181  17.468  10.244   9.965 -0.1030  0.1692 -0.0162
  262loPI   GL2 4182  17.497  10.516  10.124 -0.0893 -0.1284  0.1314
  262loPI   C1A 4183  17.624  10.297   9.588 -0.2855 -0.1229 -0.0054
  262loPI   C2A 4184  17.631  10.320   9.106 -0.0229 -0.0762  0.2801
  262loPI   C3A 4185  17.362  10.588   8.812 -0.0043  0.2653  0.0456
  262loPI   C4A 4186  16.966  10.689   8.633  0.0995 -0.1160 -0.0234
  262loPI   C5A 4187  16.788  10.800   8.219  0.0798  0.0994  0.0947
  262loPI   C6A 4188  16.612  10.822   7.729  0.1467 -0.3126  0.0202
  262loPI   C1B 4189  17.562  10.761   9.757 -0.1329 -0.0131 -0.0406
  262loPI   C2B 4190  17.421  10.888   9.389  0.1557  0.1333 -0.1979
  262loPI   C3B 4191  17.354  11.100   9.042  0.0218  0.0217  0.0661
  262loPI   C4B 4192  17.212  11.171   8.625 -0.1926 -0.1810  0.0476
  263loPI    C1 4193  12.302   0.928  10.892 -0.0116 -0.0510 -0.0109
  263loPI    C2 4194  11.953   1.010  10.716  0.0351 -0.0584 -0.1079
  263loPI    C3 4195  12.042   1.174  11.070 -0.0359  0.0008 -0.1172
  263loPI   PO4 4196  12.448   0.939  10.643 -0.0876 -0.0293  0.0316
  263loPI   GL1 4197  12.694   1.256  10.328 -0.1813 -0.0808 -0.1461
  263loPI   GL2 4198  12.495   1.403  10.097  0.1408 -0.0948  0.1116
  263loPI   C1A 4199  12.961   1.398  10.037  0.0952 -0.0631 -0.1317
  263loPI   C2A 4200  12.875   1.552   9.647 -0.0109  0.2311  0.0102
  263loPI   C3A 4201  12.737   1.561   9.229 -0.0915  0.0308 -0.1147
  263loPI   C4A 4202  12.859   1.655   8.860  0.1385 -0.2369 -0.0599
  263loPI   C5A 4203  12.968   1.665   8.418  0.1389  0.0458 -0.0381
  263loPI   C6A 4204  13.074   1.397   7.998 -0.3128 -0.4771  0.1862
  263loPI   C1B 4205  12.707   1.120   9.759  0.3347 -0.1537 -0.0366
  263loPI   C2B 4206  12.819   1.086   9.397 -0.0316  0.0746  0.1901
  263loPI   C3B 4207  12.862   1.196   8.915 -0.2744 -0.1067  0.1178
  263loPI   C4B 4208  12.710   1.191   8.499 -0.1587  0.0933 -0.1987
  264loPI    C1 4209   9.837   3.772  10.404  0.0949 -0.0043  0.0226
  264loPI    C2 4210   9.897   3.883  10.784 -0.0963 -0.0942  0.0802
  264loPI    C3 4211   9.915   3.497  10.683  0.0071 -0.0656 -0.0131
  264loPI   PO4 4212   9.712   4.016  10.370  0.0954 -0.5825  0.0982
  264loPI   GL1 4213   9.700   4.216   9.987 -0.1246  0.0998 -0.3484
  264loPI   GL2 4214   9.935   3.961   9.780 -0.1336  0.1405  0.0065
  264loPI   C1A 4215   9.513   4.533   9.753 -0.1539 -0.1109 -0.0501
  264loPI   C2A 4216   9.439   4.737   9.441  0.0379  0.0543  0.1151
  264loPI   C3A 4217   9.613   5.038   9.103 -0.0890 -0.1702 -0.0160
  264loPI   C4A 4218   9.933   5.131   8.756  0.3332 -0.1645 -0.2695
  264loPI   C5A 4219  10.104   5.481   8.675  0.0422 -0.3885 -0.0974
  264loPI   C6A 4220  10.199   5.643   8.261  0.0133 -0.1328  0.0321
  264loPI   C1B 4221   9.721   4.220   9.439  0.0634 -0.1168  0.2098
  264loPI   C2B 4222   9.566   4.441   9.060  0.0343 -0.1134  0.1249
  264loPI   C3B 4223   9.510   4.256   8.579 -0.1799  0.2354  0.1555
  264loPI   C4B 4224   9.602   4.447   8.154 -0.2770 -0.0311 -0.2825
  265loPI    C1 4225   0.695   1.094  10.872 -0.2328 -0.1982 -0.1701
  265loPI    C2 4226   0.987   0.965  11.113 -0.0403  0.0075 -0.2897
  265loPI    C3 4227   0.683   1.177  11.263 -0.0821 -0.1298 -0.1791
  265loPI   PO4 4228   0.862   1.110  10.614 -0.0394  0.1730 -0.0270
  265loPI   GL1 4229   1.040   1.247  10.174 -0.1321 -0.0791 -0.1359
  265loPI   GL2 4230   1.183   1.048  10.173  0.0051  0.0168  0.0427
  265loPI   C1A 4231   0.896   1.190   9.789 -0.2713  0.6010  0.3867
  265loPI   C2A 4232   1.100   1.140   9.320 -0.0077 -0.2112 -0.2722
  265loPI   C3A 4233   0.988   1.182   8.915 -0.0744 -0.1630  0.4283
  265loPI   C4A 4234   0.940   1.207   8.480  0.3131  0.1831  0.1426
  265loPI   C5A 4235   1.166   1.125   8.113 -0.0426  0.1378 -0.0995
  265loPI   C6A 4236   1.459   1.083   7.756 -0.0859  0.2171 -0.0837
  265loPI   C1B 4237   1.392   0.917   9.755 -0.1644  0.0453 -0.0258
  265loPI   C2B 4238   1.514   0.813   9.334  0.0504  0.0822 -0.1853
  265loPI   C3B 4239   1.635   0.622   8.932  0.0874 -0.1535 -0.0862
  265loPI   C4B 4240   1.821   0.570   8.422  0.0731  0.0040 -0.0884
  266loPI    C1 4241   9.999  16.964  10.442  0.0974  0.1142  0.0219
  266loPI    C2 4242  10.325  17.150  10.578 -0.0157  0.1932  0.1883
  266loPI    C3 4243   9.979  17.349  10.550 -0.0491  0.1116  0.0070
  266loPI   PO4 4244  10.022  16.846  10.216  0.2571 -0.0506  0.0566
  266loPI   GL1 4245   9.968  16.883   9.864 -0.0301 -0.0082 -0.2351
  266loPI   GL2 4246   9.638  16.857   9.809  0.0808 -0.0594  0.1983
  266loPI   C1A 4247  10.052  17.273   9.595 -0.0101  0.0352  0.0471
  266loPI   C2A 4248  10.059  17.464   9.223 -0.3366 -0.0449  0.2308
  266loPI   C3A 4249  10.118  17.629   8.805 -0.0992 -0.3095 -0.1244
  266loPI   C4A 4250  10.422  17.737   8.458 -0.0785 -0.4138  0.1985
  266loPI   C5A 4251  10.470  18.207   8.295 -0.1061 -0.1021  0.0060
  266loPI   C6A 4252  10.177  18.605   8.183  0.2157 -0.0497 -0.0619
  266loPI   C1B 4253   9.695  16.976   9.349  0.1049  0.0394 -0.0513
  266loPI   C2B 4254   9.580  17.071   8.964  0.1321  0.1446 -0.0255
  266loPI   C3B 4255   9.707  17.307   8.609 -0.2533 -0.0855 -0.1280
  266loPI   C4B 4256   9.534  17.276   8.209  0.0280  0.4213 -0.1873
  267loPI    C1 4257   4.066   9.913  10.035 -0.1551  0.1880 -0.2134
  267loPI    C2 4258   4.089   9.573   9.827 -0.2094  0.0679 -0.0255
  267loPI    C3 4259   3.901   9.579  10.180  0.0610  0.2211  0.1193
  267loPI   PO4 4260   4.244  10.041   9.913 -0.1076  0.0695  0.0036
  267loPI   GL1 4261   4.177   9.956   9.486 -0.1121 -0.0423  0.0230
  267loPI   GL2 4262   3.891  10.238   9.533  0.0080 -0.0220 -0.0155
  267loPI   C1A 4263   4.017   9.771   9.090  0.0245 -0.1447 -0.2317
  267loPI   C2A 4264   3.901   9.807   8.676 -0.1986  0.0941  0.1302
  267loPI   C3A 4265   3.811   9.767   8.268 -0.0433  0.3011  0.2858
  267loPI   C4A 4266   3.748   9.937   7.854 -0.2097  0.1147  0.0096
  267loPI   C5A 4267   3.591  10.333   7.796 -0.1138  0.2789  0.2782
  267loPI   C6A 4268   3.294  10.735   7.805  0.2238 -0.0258 -0.0020
  267loPI   C1B 4269   3.703  10.212   9.083 -0.3136 -0.1563 -0.1237
  267loPI   C2B 4270   3.664  10.254   8.692  0.2447 -0.2013 -0.0007
  267loPI   C3B 4271   3.508  10.237   8.272 -0.2085  0.1771 -0.0951
  267loPI   C4B 4272   3.159   9.973   8.110 -0.1920  0.0488  0.2511
  268loPI    C1 4273  15.947   8.099  10.556  0.2670  0.0701 -0.1207
  268loPI    C2 4274  15.851   7.979  10.187  0.1230 -0.2371  0.0126
  268loPI    C3 4275  15.734   7.765  10.504  0.1738  0.0680  0.2428
  268loPI   PO4 4276  15.921   8.407  10.516  0.2452  0.4472  0.3755
  268loPI   GL1 4277  15.831   8.465  10.137 -0.2005  0.5204 -0.1332
  268loPI   GL2 4278  15.558   8.453  10.073 -0.1504 -0.1087 -0.2318
  268loPI   C1A 4279  15.936   8.250   9.780 -0.0018 -0.0332 -0.1029
  268loPI   C2A 4280  15.724   8.231   9.351 -0.0750 -0.0368 -0.5000
  268loPI   C3A 4281  15.681   8.240   8.918  0.3603 -0.1308  0.1042
  268loPI   C4A 4282  15.647   8.234   8.545 -0.0250  0.2686  0.0283
  268loPI   C5A 4283  15.482   8.246   8.173  0.0083 -0.0118 -0.3109
  268loPI   C6A 4284  15.517   8.005   7.984  0.1276  0.0524 -0.1312
  268loPI   C1B 4285  15.268   8.570   9.683  0.0960 -0.1094 -0.0969
  268loPI   C2B 4286  14.957   8.764   9.262  0.0740  0.0107 -0.2752
  268loPI   C3B 4287  14.863   9.064   8.923  0.0144 -0.1873  0.0647
  268loPI   C4B 4288  14.904   9.431   8.798 -0.1826 -0.2240 -0.0763
  269loPI    C1 4289   9.704   0.410  10.394 -0.2309 -0.0580 -0.0721
  269loPI    C2 4290   9.806   0.475  10.775  0.1949  0.0461 -0.1986
  269loPI    C3 4291   9.420   0.454  10.672  0.0751  0.0968  0.2224
  269loPI   PO4 4292   9.937   0.525  10.275  0.2144 -0.1632  0.0701
  269loPI   GL1 4293  10.335   0.518  10.172  0.1613  0.0862 -0.3815
  269loPI   GL2 4294  10.322   0.275  10.116  0.1321 -0.1119 -0.2072
  269loPI   C1A 4295  10.282   0.545   9.695  0.1965  0.0987 -0.2461
  269loPI   C2A 4296  10.207   0.695   9.240 -0.2627  0.0363  0.0615
  269loPI   C3A 4297  10.394   0.728   8.886  0.1711  0.1966  0.0193
  269loPI   C4A 4298  10.368   0.833   8.416  0.1989  0.2913 -0.2567
  269loPI   C5A 4299  10.484   0.797   8.042 -0.0220 -0.0292  0.0265
  269loPI   C6A 4300  10.243   0.615   7.700 -0.0301  0.2787  0.1452
  269loPI   C1B 4301  10.319   0.020   9.751  0.0338 -0.2553 -0.0155
  269loPI   C2B 4302  10.314   0.161   9.402  0.3100  0.1064 -0.0695
  269loPI   C3B 4303  10.157   0.239   9.079  0.1385  0.2329  0.0206
  269loPI   C4B 4304  10.077   0.421   8.681  0.1773  0.1067 -0.2727
  270loPI    C1 4305  14.945   4.166  10.948  0.0298  0.2158  0.0701
  270loPI    C2 4306  14.770   3.946  11.233  0.1184  0.0819  0.0221
  270loPI    C3 4307  14.735   4.345  11.238 -0.0423  0.0675  0.1102
  270loPI   PO4 4308  14.907   4.163  10.728  0.1505  0.0853 -0.1297
  270loPI   GL1 4309  15.039   4.389  10.388 -0.1541 -0.2536  0.2147
  270loPI   GL2 4310  15.229   4.174  10.296  0.0816  0.1633 -0.0626
  270loPI   C1A 4311  15.193   4.640  10.100  0.1240  0.1957  0.0493
  270loPI   C2A 4312  15.265   4.594   9.569 -0.0358 -0.1285 -0.2246
  270loPI   C3A 4313  15.246   4.752   9.167  0.0868  0.2108  0.3236
  270loPI   C4A 4314  15.201   4.897   8.779 -0.1921  0.2517 -0.0153
  270loPI   C5A 4315  15.327   5.181   8.427 -0.1853 -0.1108  0.1092
  270loPI   C6A 4316  15.582   5.359   8.182  0.0261  0.1160  0.1744
  270loPI   C1B 4317  15.081   4.207   9.925  0.0203  0.0746 -0.0339
  270loPI   C2B 4318  15.009   4.185   9.540  0.0327 -0.0048 -0.2170
  270loPI   C3B 4319  15.049   4.253   9.085  0.2183 -0.0022  0.0413
  270loPI   C4B 4320  14.868   4.453   8.660  0.1072  0.0722 -0.0656
  271loPI    C1 4321  10.113  11.835  10.229 -0.2235 -0.0236 -0.0166
  271loPI    C2 4322  10.358  11.955  10.521 -0.0545 -0.1653 -0.0981
  271loPI    C3 4323  10.016  12.151  10.454  0.1180  0.1429 -0.0958
  271loPI   PO4 4324  10.218  11.824  10.019 -0.2799 -0.2994 -0.1848
  271loPI   GL1 4325   9.998  11.862   9.652  0.0825  0.0589  0.0543
  271loPI   GL2 4326  10.092  11.573   9.590 -0.1200 -0.0018  0.1640
  271loPI   C1A 4327  10.071  12.018   9.252  0.4006 -0.0781 -0.3448
  271loPI   C2A 4328   9.903  11.940   8.861  0.1907 -0.1004 -0.2066
  271loPI   C3A 4329   9.904  11.785   8.467  0.3318 -0.0596 -0.0486
  271loPI   C4A 4330   9.910  11.455   8.087  0.1019  0.0520  0.0605
  271loPI   C5A 4331   9.674  11.287   7.962 -0.0491  0.1591 -0.0822
  271loPI   C6A 4332   9.843  10.890   7.911  0.0350  0.3511 -0.1765
  271loPI   C1B 4333  10.308  11.636   9.089  0.1467  0.0920 -0.1482
  271loPI   C2B 4334  10.654  11.458   8.961  0.0963 -0.0701  0.0746
  271loPI   C3B 4335  10.988  11.240   8.891 -0.1571 -0.2488 -0.1724
  271loPI   C4B 4336  11.336  11.049   8.606  0.1273  0.2981  0.0387
  272loPI    C1 4337  16.684  11.622  10.785 -0.2519  0.2866 -0.1381
  272loPI    C2 4338  16.593  11.715  11.163  0.0232 -0.0924  0.0281
  272loPI    C3 4339  16.962  11.780  11.025 -0.0441 -0.0639 -0.1413
  272loPI   PO4 4340  16.452  11.718  10.643  0.0292  0.2795  0.0615
  272loPI   GL1 4341  16.473  11.821  10.294 -0.2274  0.2085  0.1053
  272loPI   GL2 4342  16.233  12.053  10.264  0.1650  0.3086 -0.0499
  272loPI   C1A 4343  16.369  11.529   9.942  0.3675 -0.0680 -0.1226
  272loPI   C2A 4344  16.430  11.264   9.650  0.0649  0.0863  0.0609
  272loPI   C3A 4345  16.413  11.436   9.311  0.2282 -0.0648  0.2297
  272loPI   C4A 4346  16.504  11.515   8.861  0.0308  0.0710 -0.2495
  272loPI   C5A 4347  16.385  11.816   8.569 -0.2712 -0.2101  0.3613
  272loPI   C6A 4348  15.917  11.985   8.458 -0.4787 -0.1645 -0.1089
  272loPI   C1B 4349  16.183  12.373   9.879  0.0073 -0.1139  0.0478
  272loPI   C2B 4350  16.184  12.636   9.593  0.1828 -0.1152 -0.0122
  272loPI   C3B 4351  16.132  12.696   9.217 -0.0363 -0.0396  0.0516
  272loPI   C4B 4352  16.099  12.760   8.855 -0.1480 -0.0154  0.0907
  273loPI    C1 4353   7.633  10.518  10.050  0.1335 -0.3593 -0.1869
  273loPI    C2 4354   7.760  10.303  10.363 -0.2487 -0.1455  0.1238
  273loPI    C3 4355   7.420  10.513  10.389 -0.1035  0.1586 -0.3190
  273loPI   PO4 4356   7.648  10.333   9.804 -0.2860 -0.0087  0.1766
  273loPI   GL1 4357   7.564  10.249   9.383  0.0032 -0.2761  0.2857
  273loPI   GL2 4358   7.690  10.097   9.204 -0.1898 -0.1421 -0.0511
  273loPI   C1A 4359   7.903  10.527   9.167  0.0785 -0.2492  0.1939
  273loPI   C2A 4360   7.910  10.658   8.742 -0.1488 -0.0663  0.2380
  273loPI   C3A 4361   7.925  10.831   8.325  0.2210 -0.2086  0.4888
  273loPI   C4A 4362   8.002  11.080   7.931 -0.0240 -0.0409  0.0445
  273loPI   C5A 4363   8.312  11.531   7.881 -0.1855 -0.0843  0.0258
  273loPI   C6A 4364   8.307  11.999   7.789  0.1930 -0.0568 -0.0295
  273loPI   C1B 4365   7.574  10.151   8.839  0.0563 -0.1900  0.3171
  273loPI   C2B 4366   7.547  10.327   8.492 -0.0683 -0.2807  0.2459
  273loPI   C3B 4367   7.525  10.545   8.118 -0.2538 -0.0393 -0.0368
  273loPI   C4B 4368   7.160  10.565   7.858 -0.1201 -0.2373  0.0021
  274loPI    C1 4369   8.947  11.425  10.051 -0.1519  0.0709 -0.0553
  274loPI    C2 4370   9.056  11.139   9.793 -0.1522  0.1501 -0.1439
  274loPI    C3 4371   8.669  11.191   9.883 -0.1259 -0.0938  0.1268
  274loPI   PO4 4372   9.268  11.510  10.030 -0.0740  0.1846  0.1802
  274loPI   GL1 4373   9.470  11.567   9.653  0.0146 -0.0524  0.0944
  274loPI   GL2 4374   9.608  11.330   9.640  0.1707  0.4083  0.1863
  274loPI   C1A 4375   9.617  11.716   9.235 -0.0147 -0.2020 -0.0630
  274loPI   C2A 4376   9.470  11.618   8.817 -0.0878  0.0099 -0.2351
  274loPI   C3A 4377   9.479  11.528   8.349  0.2334 -0.0490 -0.2406
  274loPI   C4A 4378   9.130  11.472   8.097 -0.0600 -0.2363 -0.1402
  274loPI   C5A 4379   8.729  11.297   8.030 -0.0908 -0.1463  0.0348
  274loPI   C6A 4380   8.482  11.097   7.730  0.0536 -0.2398 -0.1013
  274loPI   C1B 4381   9.831  11.261   9.264  0.1827  0.2112  0.4152
  274loPI   C2B 4382   9.899  11.362   8.888 -0.1086 -0.0760 -0.1354
  274loPI   C3B 4383   9.853  11.160   8.485 -0.2152 -0.1563  0.0469
  274loPI   C4B 4384   9.781  10.719   8.374  0.3356  0.0355  0.2102
  275loPI    C1 4385   3.819   8.203  10.064  0.1189  0.0298  0.2403
  275loPI    C2 4386   3.779   7.838   9.906  0.2858  0.1486 -0.0870
  275loPI    C3 4387   3.469   8.012  10.089  0.1546 -0.0847 -0.0830
  275loPI   PO4 4388   3.976   8.334   9.869  0.2173  0.0819  0.1452
  275loPI   GL1 4389   4.067   8.532   9.490 -0.1887 -0.0022  0.0010
  275loPI   GL2 4390   4.019   8.910   9.574 -0.0698  0.1622 -0.0724
  275loPI   C1A 4391   4.290   8.531   9.057  0.1223 -0.1116  0.2082
  275loPI   C2A 4392   4.398   8.589   8.665  0.0635  0.0651  0.1192
  275loPI   C3A 4393   4.312   8.558   8.267  0.0870 -0.1050  0.0153
  275loPI   C4A 4394   4.642   8.365   7.875  0.0766  0.1096 -0.0918
  275loPI   C5A 4395   4.874   8.230   7.555 -0.0084  0.0462 -0.1438
  275loPI   C6A 4396   5.003   8.196   7.093 -0.1396  0.1593  0.2148
  275loPI   C1B 4397   4.255   8.975   9.188  0.0450 -0.3350  0.0221
  275loPI   C2B 4398   4.398   9.058   8.804  0.0022 -0.1685  0.0857
  275loPI   C3B 4399   4.491   9.062   8.299  0.1489 -0.1357  0.0509
  275loPI   C4B 4400   4.706   8.850   7.924  0.0202  0.1775 -0.0899
  276loPI    C1 4401   9.253  14.312   9.837  0.0008  0.1827 -0.1559
  276loPI    C2 4402   8.958  14.353  10.104  0.0668  0.0162 -0.0559
  276loPI    C3 4403   9.146  14.676   9.962 -0.1724  0.1239 -0.1313
  276loPI   PO4 4404   9.090  14.215   9.639 -0.1431  0.2543 -0.0776
  276loPI   GL1 4405   8.880  14.294   9.351  0.1193  0.3845  0.0159
  276loPI   GL2 4406   9.018  14.099   9.144 -0.0279  0.0055 -0.0289
  276loPI   C1A 4407   8.766  14.720   9.222 -0.3287  0.1127 -0.0201
  276loPI   C2A 4408   8.908  14.907   8.876 -0.1763  0.1980 -0.0617
  276loPI   C3A 4409   9.007  14.947   8.463  0.0779  0.0312 -0.0618
  276loPI   C4A 4410   9.254  15.132   8.041  0.0987 -0.4439 -0.0787
  276loPI   C5A 4411   9.599  15.460   8.017 -0.1428 -0.0789 -0.1720
  276loPI   C6A 4412  10.010  15.511   7.911  0.0995 -0.0056  0.0214
  276loPI   C1B 4413   8.946  13.818   8.980 -0.0980  0.0766  0.1617
  276loPI   C2B 4414   8.986  13.761   8.604  0.1530 -0.2282 -0.4123
  276loPI   C3B 4415   8.887  13.499   8.350  0.0802  0.1541  0.0640
  276loPI   C4B 4416   8.951  13.091   8.069  0.0278 -0.2572  0.1439
  277loPI    C1 4417  13.313  10.727  10.628 -0.1261 -0.1436  0.1146
  277loPI    C2 4418  13.592  10.932  10.829 -0.1705  0.0033  0.0282
  277loPI    C3 4419  13.415  10.617  10.999  0.1118 -0.1471  0.0504
  277loPI   PO4 4420  13.459  10.786  10.382  0.0819  0.1976  0.2695
  277loPI   GL1 4421  13.602  10.620  10.010 -0.1015  0.3213  0.0383
  277loPI   GL2 4422  13.477  10.916   9.897  0.2248  0.0059  0.0652
  277loPI   C1A 4423  13.500  10.441   9.692  0.0654 -0.1801 -0.3090
  277loPI   C2A 4424  13.465  10.440   9.271  0.4137 -0.0963  0.0872
  277loPI   C3A 4425  13.588  10.487   8.851  0.0330  0.2457  0.0214
  277loPI   C4A 4426  13.458  10.289   8.525 -0.3144 -0.0241  0.0119
  277loPI   C5A 4427  13.109  10.100   8.655 -0.2677  0.3775 -0.0402
  277loPI   C6A 4428  12.651  10.145   8.944  0.2539  0.3662 -0.0288
  277loPI   C1B 4429  13.208  10.836   9.558  0.2664  0.3181  0.3385
  277loPI   C2B 4430  13.130  10.983   9.153 -0.1012  0.1056 -0.1624
  277loPI   C3B 4431  13.116  11.018   8.680  0.0301 -0.2596  0.1414
  277loPI   C4B 4432  13.309  11.147   8.303 -0.3147  0.3755  0.0181
  278loPI    C1 4433   9.685  15.963   9.983 -0.2702 -0.0683  0.0220
  278loPI    C2 4434   9.745  16.065  10.365  0.3233  0.0217 -0.0853
  278loPI    C3 4435   9.967  15.778  10.198 -0.0490 -0.1377 -0.3208
  278loPI   PO4 4436   9.390  16.028   9.997 -0.0951  0.0868  0.2018
  278loPI   GL1 4437   9.345  16.425   9.842  0.1009 -0.2305 -0.2181
  278loPI   GL2 4438   9.058  16.567   9.783  0.2003  0.2278  0.6124
  278loPI   C1A 4439   9.416  16.581   9.454 -0.0312  0.0972 -0.0294
  278loPI   C2A 4440   9.392  16.612   9.029  0.0206 -0.1563  0.0101
  278loPI   C3A 4441   9.336  16.787   8.629  0.1401  0.2198  0.1339
  278loPI   C4A 4442   9.304  16.846   8.143  0.2275 -0.3773 -0.1780
  278loPI   C5A 4443   9.456  16.857   7.823  0.0452  0.0297  0.3440
  278loPI   C6A 4444   9.557  16.882   7.421  0.0960  0.2020  0.1373
  278loPI   C1B 4445   8.866  16.722   9.313  0.1349 -0.2716 -0.2360
  278loPI   C2B 4446   8.914  16.746   8.887 -0.0278 -0.2028 -0.1497
  278loPI   C3B 4447   8.872  16.747   8.470 -0.0521  0.1834  0.2502
  278loPI   C4B 4448   8.758  16.883   8.079 -0.3550  0.0758 -0.1662
  279loPI    C1 4449  14.874   6.195  10.690 -0.1139  0.0913 -0.0788
  279loPI    C2 4450  14.783   6.071  11.059 -0.2251  0.0916 -0.1058
  279loPI    C3 4451  14.814   5.806  10.761 -0.0514  0.0814 -0.0798
  279loPI   PO4 4452  15.047   6.384  10.679  0.1438  0.0518  0.0113
  279loPI   GL1 4453  15.239   6.483  10.312 -0.0243  0.2546 -0.0243
  279loPI   GL2 4454  14.928   6.585  10.240  0.0115 -0.3968 -0.1608
  279loPI   C1A 4455  15.352   6.587   9.917  0.1053  0.3572  0.0060
  279loPI   C2A 4456  15.399   6.609   9.499 -0.0086 -0.1607 -0.1077
  279loPI   C3A 4457  15.243   6.523   9.126 -0.0001  0.0972  0.0950
  279loPI   C4A 4458  14.970   6.386   8.718  0.0478 -0.1775  0.0006
  279loPI   C5A 4459  14.597   6.411   8.410  0.0535 -0.0585  0.0218
  279loPI   C6A 4460  14.339   6.251   8.109 -0.0277  0.0885  0.0304
  279loPI   C1B 4461  14.887   6.594   9.756 -0.0863 -0.2977  0.2136
  279loPI   C2B 4462  14.721   6.621   9.445 -0.3262 -0.2297 -0.0402
  279loPI   C3B 4463  14.845   6.773   9.027  0.2867  0.0657 -0.4387
  279loPI   C4B 4464  14.532   6.759   8.702  0.2327 -0.0324 -0.4089
  280loPI    C1 4465   3.889  14.135  10.045  0.0523 -0.0623 -0.1102
  280loPI    C2 4466   3.920  14.106  10.443 -0.1431 -0.0498 -0.0927
  280loPI    C3 4467   4.178  14.333  10.237  0.0266 -0.1437  0.0138
  280loPI   PO4 4468   3.615  14.079   9.965  0.0713 -0.0549  0.1795
  280loPI   GL1 4469   3.265  14.184   9.700  0.1290 -0.0967 -0.2212
  280loPI   GL2 4470   3.073  14.026   9.772 -0.0877 -0.1222  0.0847
  280loPI   C1A 4471   3.257  14.515   9.450  0.3145 -0.2023 -0.1230
  280loPI   C2A 4472   3.051  14.731   9.131 -0.3877  0.3201  0.1129
  280loPI   C3A 4473   2.836  14.815   8.705  0.3991 -0.0934 -0.1692
  280loPI   C4A 4474   2.846  15.050   8.299 -0.2358  0.1700  0.3236
  280loPI   C5A 4475   2.827  15.054   7.806 -0.0299 -0.0443  0.2719
  280loPI   C6A 4476   2.799  15.069   7.408 -0.2813 -0.2182  0.2485
  280loPI   C1B 4477   2.822  13.878   9.393 -0.2218 -0.1095 -0.4983
  280loPI   C2B 4478   2.661  13.881   9.070  0.0187 -0.1685  0.2354
  280loPI   C3B 4479   2.541  13.816   8.689  0.2002 -0.1966 -0.1934
  280loPI   C4B 4480   2.569  13.759   8.246 -0.0415  0.1162  0.0998
  281loPI    C1 4481  12.514  17.854  10.767 -0.0134  0.1016 -0.0392
  281loPI    C2 4482  12.565  17.572  11.046 -0.0402 -0.1707 -0.3046
  281loPI    C3 4483  12.743  17.928  11.087  0.2219 -0.3206 -0.1015
  281loPI   PO4 4484  12.676  17.646  10.559  0.1673 -0.0871 -0.1498
  281loPI   GL1 4485  12.411  17.501  10.187 -0.1406 -0.0361 -0.1580
  281loPI   GL2 4486  12.713  17.548  10.041  0.1527  0.1465  0.0128
  281loPI   C1A 4487  12.453  17.192   9.794  0.1797  0.2736 -0.1310
  281loPI   C2A 4488  12.464  17.104   9.372 -0.0398  0.1346  0.2717
  281loPI   C3A 4489  12.416  16.975   8.862  0.0571 -0.0236 -0.1744
  281loPI   C4A 4490  12.534  16.888   8.484 -0.0727 -0.1496 -0.1896
  281loPI   C5A 4491  12.734  16.711   8.205 -0.0745  0.0369 -0.0638
  281loPI   C6A 4492  12.657  16.261   8.177  0.1571  0.2160  0.0648
  281loPI   C1B 4493  12.817  17.440   9.582  0.2085  0.1905  0.3260
  281loPI   C2B 4494  12.833  17.378   9.119 -0.1866  0.5344  0.1132
  281loPI   C3B 4495  12.909  17.385   8.801 -0.1352  0.0171  0.0950
  281loPI   C4B 4496  12.985  17.137   8.389  0.0179  0.0597 -0.2609
  282loPI    C1 4497   3.692  12.017   9.733 -0.0437  0.1506 -0.0083
  282loPI    C2 4498   3.478  12.242   9.986 -0.0044  0.2032 -0.0219
  282loPI    C3 4499   3.496  12.339   9.598 -0.1563  0.0586 -0.0662
  282loPI   PO4 4500   3.916  11.967   9.807 -0.1347 -0.0831  0.0584
  282loPI   GL1 4501   4.108  11.651   9.539 -0.1048 -0.2700  0.1270
  282loPI   GL2 4502   4.364  11.816   9.579 -0.1871  0.1002  0.1617
  282loPI   C1A 4503   3.849  11.485   9.285 -0.1736 -0.1967 -0.0049
  282loPI   C2A 4504   3.680  11.557   8.896  0.3197 -0.2355  0.3684
  282loPI   C3A 4505   3.399  11.553   8.514 -0.1758 -0.0982 -0.0805
  282loPI   C4A 4506   3.286  11.443   8.190 -0.1143  0.0476  0.2657
  282loPI   C5A 4507   3.564  11.188   7.898 -0.0729 -0.1120 -0.0114
  282loPI   C6A 4508   3.641  11.105   7.381 -0.2214  0.0624 -0.0531
  282loPI   C1B 4509   4.468  11.735   9.174 -0.2119 -0.0506  0.0164
  282loPI   C2B 4510   4.770  11.771   8.887 -0.2937  0.0312  0.0614
  282loPI   C3B 4511   4.877  11.790   8.349  0.0455  0.2422  0.0494
  282loPI   C4B 4512   5.045  12.027   8.031  0.0865  0.2157  0.2986
  283loPI    C1 4513   3.794  15.269  10.636 -0.0367 -0.2352 -0.2490
  283loPI    C2 4514   3.820  15.601  10.413 -0.1274 -0.1055 -0.0689
  283loPI    C3 4515   4.128  15.489  10.643 -0.0675 -0.1903 -0.1891
  283loPI   PO4 4516   3.698  15.090  10.450 -0.3436 -0.3618 -0.0063
  283loPI   GL1 4517   3.571  15.061   9.990  0.1935 -0.4282 -0.2671
  283loPI   GL2 4518   3.735  15.374   9.975  0.0151  0.0139 -0.0967
  283loPI   C1A 4519   3.673  14.957   9.567  0.1695 -0.0325 -0.1218
  283loPI   C2A 4520   3.449  15.026   9.155  0.1769 -0.0554  0.2454
  283loPI   C3A 4521   3.493  15.394   8.952 -0.5510  0.2621 -0.2611
  283loPI   C4A 4522   3.318  15.697   8.712 -0.1752 -0.0386  0.0569
  283loPI   C5A 4523   3.235  15.864   8.336  0.2629  0.1823  0.0742
  283loPI   C6A 4524   2.831  16.053   8.297  0.1271  0.1035 -0.0177
  283loPI   C1B 4525   4.010  15.419   9.629 -0.0818  0.0300  0.0191
  283loPI   C2B 4526   3.963  15.458   9.151  0.1337  0.1470 -0.0339
  283loPI   C3B 4527   3.912  15.373   8.659  0.0470  0.0544 -0.1469
  283loPI   C4B 4528   3.738  15.347   8.221  0.0507 -0.0059 -0.2923
  284loPI    C1 4529  11.338   1.797  10.635 -0.0144 -0.1050  0.0884
  284loPI    C2 4530  11.132   2.060  10.856 -0.1375 -0.0565 -0.0818
  284loPI    C3 4531  11.232   1.704  11.010  0.0263  0.0858  0.1486
  284loPI   PO4 4532  11.393   1.998  10.455 -0.0247 -0.1641 -0.1009
  284loPI   GL1 4533  11.373   1.798  10.117  0.2341  0.0426 -0.1862
  284loPI   GL2 4534  11.514   1.748  10.009 -0.3088 -0.0143 -0.0114
  284loPI   C1A 4535  11.226   2.029   9.681 -0.0268  0.2090  0.0128
  284loPI   C2A 4536  11.293   2.082   9.278 -0.1706  0.0186  0.0776
  284loPI   C3A 4537  11.340   2.104   8.767 -0.1935 -0.1190  0.1579
  284loPI   C4A 4538  11.188   2.044   8.379  0.1515  0.1361 -0.2867
  284loPI   C5A 4539  10.808   2.133   8.233  0.0576  0.0779 -0.0894
  284loPI   C6A 4540  10.636   1.930   7.940  0.3282 -0.1535 -0.0767
  284loPI   C1B 4541  11.470   1.643   9.490 -0.0459  0.1380  0.0026
  284loPI   C2B 4542  11.435   1.643   9.049 -0.2014  0.1360  0.2942
  284loPI   C3B 4543  11.497   1.659   8.702 -0.2018  0.1596  0.2454
  284loPI   C4B 4544  11.871   1.693   8.390 -0.3744 -0.3923  0.2976
  285loPI    C1 4545   1.875  14.934  10.650  0.0933 -0.1615  0.0804
  285loPI    C2 4546   2.215  14.943  10.861  0.0480 -0.0477  0.1497
  285loPI    C3 4547   1.863  14.975  11.048 -0.0161 -0.4796  0.1118
  285loPI   PO4 4548   1.936  15.006  10.403 -0.2620 -0.0293 -0.2161
  285loPI   GL1 4549   1.969  15.127  10.058 -0.0626  0.0584  0.1641
  285loPI   GL2 4550   1.702  15.307  10.102  0.1924 -0.0340 -0.1778
  285loPI   C1A 4551   2.293  15.341   9.733 -0.0003 -0.2159 -0.3319
  285loPI   C2A 4552   2.600  15.557   9.519  0.1835  0.1399  0.1365
  285loPI   C3A 4553   2.562  15.607   8.967  0.0280  0.0141 -0.0228
  285loPI   C4A 4554   2.475  15.770   8.497 -0.1217  0.0545 -0.2454
  285loPI   C5A 4555   2.179  15.800   8.111 -0.0879 -0.0216  0.0024
  285loPI   C6A 4556   2.066  15.718   7.713  0.1472  0.1001 -0.1754
  285loPI   C1B 4557   1.759  15.262   9.610  0.0342  0.0067 -0.2615
  285loPI   C2B 4558   1.621  15.394   9.158 -0.2052 -0.1398  0.1332
  285loPI   C3B 4559   1.575  15.503   8.709  0.1002 -0.1367  0.0201
  285loPI   C4B 4560   1.313  15.344   8.398 -0.2185  0.0630 -0.3602
  286loPI    C1 4561   9.348   2.877  10.620  0.0341 -0.1389 -0.1945
  286loPI    C2 4562   9.040   3.108  10.730  0.0456 -0.0723 -0.3010
  286loPI    C3 4563   9.415   3.228  10.801  0.0467 -0.1771 -0.1247
  286loPI   PO4 4564   9.317   2.755  10.320  0.3356 -0.2032 -0.0290
  286loPI   GL1 4565   9.754   2.701  10.033 -0.0201  0.0830 -0.0815
  286loPI   GL2 4566   9.968   2.935   9.915 -0.0738  0.0866  0.3405
  286loPI   C1A 4567   9.705   2.501   9.605  0.1514 -0.1681  0.0252
  286loPI   C2A 4568   9.834   2.577   9.122  0.1449 -0.0437  0.1321
  286loPI   C3A 4569   9.647   2.668   8.721  0.1014 -0.1327  0.1671
  286loPI   C4A 4570   9.623   2.753   8.338 -0.0170 -0.3930  0.1254
  286loPI   C5A 4571   9.762   3.136   8.115  0.0309  0.1758  0.3772
  286loPI   C6A 4572   9.539   3.542   8.009 -0.0446  0.2700  0.0821
  286loPI   C1B 4573  10.148   3.038   9.450 -0.0241 -0.1712 -0.4790
  286loPI   C2B 4574  10.120   2.941   9.097 -0.1558 -0.2294  0.4455
  286loPI   C3B 4575  10.032   2.918   8.705  0.0990 -0.2625 -0.1999
  286loPI   C4B 4576  10.205   2.827   8.316  0.1907 -0.3498  0.0083
  287loPI    C1 4577  15.588   4.646  10.545  0.0070  0.3577 -0.0668
  287loPI    C2 4578  15.539   4.775  10.920  0.1196  0.2527 -0.0151
  287loPI    C3 4579  15.362   4.437  10.801  0.2996  0.1436  0.0228
  287loPI   PO4 4580  15.635   4.954  10.448 -0.1663 -0.0290 -0.3238
  287loPI   GL1 4581  15.403   5.073  10.124 -0.1495  0.1102 -0.2053
  287loPI   GL2 4582  15.682   4.820  10.004  0.0144  0.1789 -0.2140
  287loPI   C1A 4583  15.505   5.075   9.560  0.0901  0.0804  0.0041
  287loPI   C2A 4584  15.503   5.238   9.282 -0.0598 -0.0129  0.0720
  287loPI   C3A 4585  15.526   5.287   8.860  0.1014 -0.2286 -0.2117
  287loPI   C4A 4586  15.512   5.617   8.592  0.1598  0.0814  0.0691
  287loPI   C5A 4587  15.328   5.963   8.452 -0.0721 -0.0617 -0.0055
  287loPI   C6A 4588  15.505   6.267   8.117  0.1465  0.1405  0.3156
  287loPI   C1B 4589  15.905   4.812   9.684  0.5662 -0.1051 -0.1307
  287loPI   C2B 4590  15.845   4.721   9.296 -0.1863  0.2638 -0.1326
  287loPI   C3B 4591  15.716   4.839   8.925  0.1016 -0.1450  0.0639
  287loPI   C4B 4592  15.633   4.799   8.477  0.2211  0.1783  0.2591
  288loPI    C1 4593   8.757   9.164  10.054 -0.1483 -0.0812 -0.1438
  288loPI    C2 4594   8.415   8.988  10.166 -0.0326 -0.2323 -0.0236
  288loPI    C3 4595   8.746   8.769  10.117  0.0788 -0.0685 -0.0128
  288loPI   PO4 4596   8.729   9.400   9.770  0.0652  0.2594  0.0200
  288loPI   GL1 4597   8.638   9.336   9.454 -0.0362 -0.0038  0.3324
  288loPI   GL2 4598   9.024   9.308   9.374 -0.1296 -0.1820 -0.0683
  288loPI   C1A 4599   8.586   9.001   9.195 -0.0576  0.1434 -0.1417
  288loPI   C2A 4600   8.683   9.191   8.878  0.0029 -0.4029  0.0168
  288loPI   C3A 4601   8.420   9.102   8.485  0.0334 -0.0684  0.5209
  288loPI   C4A 4602   8.267   8.822   8.175  0.0023 -0.4326 -0.0529
  288loPI   C5A 4603   8.024   8.795   7.797  0.2602  0.2625  0.0033
  288loPI   C6A 4604   7.574   8.968   7.679  0.0497  0.1005  0.1187
  288loPI   C1B 4605   8.967   9.642   9.059 -0.0174 -0.1867  0.0397
  288loPI   C2B 4606   8.964   9.718   8.671  0.1833 -0.1383 -0.0193
  288loPI   C3B 4607   9.141   9.737   8.210 -0.0550  0.1256  0.0299
  288loPI   C4B 4608   9.111   9.897   7.765  0.3611 -0.3208 -0.2180
  289loPI    C1 4609   3.053  11.126  10.251 -0.0332  0.3108  0.1800
  289loPI    C2 4610   3.103  10.766  10.418  0.0417  0.0969 -0.2854
  289loPI    C3 4611   2.884  11.044  10.604 -0.1311 -0.2328  0.0179
  289loPI   PO4 4612   2.880  11.075  10.004 -0.1670  0.2405  0.0757
  289loPI   GL1 4613   2.687  10.749   9.735  0.2009 -0.0059 -0.1545
  289loPI   GL2 4614   2.367  10.757   9.763 -0.1433 -0.1847 -0.0486
  289loPI   C1A 4615   2.653  10.687   9.318 -0.1360 -0.1416  0.1467
  289loPI   C2A 4616   2.630  10.755   8.968 -0.3129 -0.3411  0.2065
  289loPI   C3A 4617   2.720  10.723   8.567 -0.1745  0.0773 -0.2248
  289loPI   C4A 4618   2.524  10.735   8.195 -0.1868  0.1191  0.3099
  289loPI   C5A 4619   2.266  10.921   7.897  0.1768 -0.0304  0.2198
  289loPI   C6A 4620   1.904  10.927   8.092  0.0342  0.3222 -0.0818
  289loPI   C1B 4621   2.310  11.026   9.339  0.0055 -0.2021  0.1022
  289loPI   C2B 4622   2.200  11.291   9.044 -0.0768  0.3064 -0.0925
  289loPI   C3B 4623   2.024  11.435   8.715 -0.0234  0.0881 -0.1784
  289loPI   C4B 4624   1.856  11.330   8.394  0.0273  0.1318  0.0553
  290loPI    C1 4625   8.508  16.084   9.952 -0.0876  0.1867 -0.2788
  290loPI    C2 4626   8.535  16.380  10.220 -0.2821  0.1244 -0.1882
  290loPI    C3 4627   8.296  16.067  10.291  0.1453 -0.2026 -0.1452
  290loPI   PO4 4628   8.815  16.058   9.874 -0.0090 -0.2369 -0.0664
  290loPI   GL1 4629   8.986  15.918   9.481 -0.3572 -0.2313  0.1328
  290loPI   GL2 4630   9.067  16.252   9.445 -0.0536  0.1808  0.0055
  290loPI   C1A 4631   9.231  15.824   9.113 -0.2082 -0.2278 -0.1291
  290loPI   C2A 4632   9.224  15.836   8.655  0.1822  0.3579  0.0129
  290loPI   C3A 4633   9.361  15.922   8.248 -0.0268 -0.1524  0.4113
  290loPI   C4A 4634   9.620  15.897   7.808 -0.0516  0.1069 -0.1393
  290loPI   C5A 4635   9.369  15.718   7.516 -0.0709 -0.2874 -0.1634
  290loPI   C6A 4636   9.109  15.326   7.618 -0.0279 -0.1070  0.3454
  290loPI   C1B 4637   8.997  16.264   8.995  0.0398  0.2467  0.1711
  290loPI   C2B 4638   9.104  16.348   8.624 -0.0237 -0.2818 -0.4489
  290loPI   C3B 4639   9.090  16.317   8.258  0.0157  0.1911 -0.2007
  290loPI   C4B 4640   9.014  16.483   7.958  0.2462 -0.0406  0.1100
  291loPI    C1 4641  11.464   2.521  10.585 -0.1364  0.0580 -0.0559
  291loPI    C2 4642  11.506   2.830  10.835  0.2449 -0.1111  0.0961
  291loPI    C3 4643  11.322   2.496  10.958  0.2483 -0.1176  0.0836
  291loPI   PO4 4644  11.363   2.645  10.361  0.0775 -0.0684 -0.2590
  291loPI   GL1 4645  11.371   2.692   9.949  0.0983 -0.4507 -0.1352
  291loPI   GL2 4646  11.431   3.052  10.047 -0.1434  0.1837 -0.1611
  291loPI   C1A 4647  11.333   2.600   9.521  0.0967  0.1754 -0.1617
  291loPI   C2A 4648  11.509   2.528   9.157  0.3442  0.1672 -0.3520
  291loPI   C3A 4649  11.766   2.155   8.978  0.1279  0.1550 -0.2852
  291loPI   C4A 4650  12.016   2.100   8.649  0.1758 -0.1650 -0.2730
  291loPI   C5A 4651  12.074   2.531   8.325  0.0395 -0.1292  0.1029
  291loPI   C6A 4652  12.069   2.961   8.411  0.0451 -0.2312 -0.0428
  291loPI   C1B 4653  11.466   3.124   9.687  0.3326  0.1840 -0.1500
  291loPI   C2B 4654  11.420   3.063   9.275 -0.3015 -0.3933 -0.3295
  291loPI   C3B 4655  11.475   3.001   8.841  0.2684  0.2046 -0.0610
  291loPI   C4B 4656  11.426   3.115   8.491 -0.2813  0.1355  0.0002
  292loPI    C1 4657   3.114  17.188  10.044  0.1561  0.1589  0.0617
  292loPI    C2 4658   3.366  16.954  10.249  0.0401  0.1096  0.1495
  292loPI    C3 4659   2.993  16.830  10.177  0.1612  0.0060 -0.3336
  292loPI   PO4 4660   3.258  17.270   9.887 -0.0066  0.3634  0.2206
  292loPI   GL1 4661   3.418  17.318   9.404 -0.1362 -0.0292  0.0738
  292loPI   GL2 4662   3.228  17.585   9.508  0.3642 -0.0103  0.1041
  292loPI   C1A 4663   3.398  17.167   9.025  0.1133  0.0124  0.1560
  292loPI   C2A 4664   3.302  17.151   8.645  0.0145 -0.3197 -0.2406
  292loPI   C3A 4665   3.226  17.335   8.280  0.4711  0.0984 -0.2049
  292loPI   C4A 4666   3.073  17.687   7.930  0.1098 -0.0540 -0.1153
  292loPI   C5A 4667   3.036  18.123   7.974  0.2733  0.1808 -0.2751
  292loPI   C6A 4668   3.183  18.489   7.691  0.4250 -0.1166  0.0748
  292loPI   C1B 4669   3.080  17.492   9.015 -0.1231  0.1979  0.4603
  292loPI   C2B 4670   2.825  17.311   8.688  0.2208  0.0108  0.0546
  292loPI   C3B 4671   2.887  16.939   8.287  0.2370 -0.1588 -0.1280
  292loPI   C4B 4672   3.052  16.931   7.924  0.0337  0.1855  0.1218
  293loPI    C1 4673  16.951  15.772  11.219  0.0777  0.0396  0.0411
  293loPI    C2 4674  16.923  15.730  11.616 -0.1771 -0.0853  0.0127
  293loPI    C3 4675  16.598  15.820  11.402 -0.0456 -0.0425 -0.1715
  293loPI   PO4 4676  17.066  15.530  11.168  0.1561 -0.2267 -0.3048
  293loPI   GL1 4677  17.058  15.357  10.821  0.2458  0.2703  0.0415
  293loPI   GL2 4678  17.064  15.593  10.683 -0.0761 -0.3438  0.0710
  293loPI   C1A 4679  16.958  15.122  10.440  0.1700 -0.1078  0.2820
  293loPI   C2A 4680  16.856  15.088  10.073 -0.4469  0.1140 -0.1859
  293loPI   C3A 4681  16.842  15.122   9.598 -0.2662  0.1525  0.0048
  293loPI   C4A 4682  16.916  15.186   9.198  0.0752 -0.1908  0.0767
  293loPI   C5A 4683  16.822  15.074   8.828 -0.0956  0.1261 -0.4419
  293loPI   C6A 4684  16.492  15.185   8.546 -0.1253  0.0836 -0.1285
  293loPI   C1B 4685  16.626  15.507  10.386 -0.0479  0.1870  0.1901
  293loPI   C2B 4686  16.582  15.441   9.907  0.1188 -0.3277 -0.2925
  293loPI   C3B 4687  16.560  15.497   9.354 -0.2508 -0.0210  0.1411
  293loPI   C4B 4688  16.579  15.581   8.913 -0.0543  0.1057 -0.2298
  294loPI    C1 4689   2.570   4.961   9.719 -0.2155  0.0523  0.0742
  294loPI    C2 4690   2.464   4.995  10.103 -0.0534 -0.3012  0.1545
  294loPI    C3 4691   2.340   4.681   9.888 -0.0835 -0.1423 -0.0632
  294loPI   PO4 4692   2.808   5.094   9.721 -0.3458  0.0129 -0.2697
  294loPI   GL1 4693   2.969   4.775   9.445  0.2028 -0.2474  0.0039
  294loPI   GL2 4694   2.819   5.013   9.219  0.0978 -0.2311 -0.0316
  294loPI   C1A 4695   3.119   4.442   9.184  0.2625  0.1189  0.1083
  294loPI   C2A 4696   3.053   4.127   8.684  0.1633 -0.1124 -0.2184
  294loPI   C3A 4697   3.045   3.968   8.252 -0.1036 -0.0078 -0.0526
  294loPI   C4A 4698   3.019   3.830   7.872 -0.0651 -0.1437 -0.4231
  294loPI   C5A 4699   3.235   3.876   7.562  0.1185 -0.4041  0.0620
  294loPI   C6A 4700   3.318   3.598   7.149  0.1851  0.1304  0.0858
  294loPI   C1B 4701   3.170   4.914   8.972  0.0855 -0.0727  0.1247
  294loPI   C2B 4702   3.184   4.580   8.687  0.0151 -0.1500  0.0045
  294loPI   C3B 4703   3.008   4.462   8.285  0.0932 -0.1280  0.1428
  294loPI   C4B 4704   2.706   4.726   8.184 -0.1796  0.3425  0.1486
  295loPI    C1 4705   3.860   3.243  10.087  0.0858 -0.1286 -0.0227
  295loPI    C2 4706   3.890   3.400  10.453  0.0846 -0.0053 -0.0749
  295loPI    C3 4707   3.922   3.005  10.402  0.0692 -0.0247  0.0599
  295loPI   PO4 4708   3.609   3.355   9.900 -0.2307  0.3016 -0.0062
  295loPI   GL1 4709   3.439   3.223   9.589 -0.0773 -0.3402  0.2279
  295loPI   GL2 4710   3.380   2.904   9.451 -0.1096  0.0339  0.0262
  295loPI   C1A 4711   3.562   3.320   9.202  0.0853 -0.2341  0.0359
  295loPI   C2A 4712   3.535   3.232   8.733  0.2551 -0.2262 -0.1694
  295loPI   C3A 4713   3.690   3.189   8.409 -0.3868 -0.1488 -0.0578
  295loPI   C4A 4714   3.741   3.067   8.083 -0.2666  0.0373  0.3958
  295loPI   C5A 4715   3.882   2.963   7.716  0.0498 -0.1510 -0.0963
  295loPI   C6A 4716   4.145   2.571   7.636  0.2389 -0.1324  0.0033
  295loPI   C1B 4717   3.329   2.739   9.083  0.2527 -0.1239  0.1476
  295loPI   C2B 4718   3.376   2.719   8.651  0.1418 -0.0790 -0.0449
  295loPI   C3B 4719   3.410   2.753   8.273 -0.1006  0.3551 -0.1127
  295loPI   C4B 4720   3.415   2.829   7.811 -0.1921  0.0637 -0.1478
  296loPI    C1 4721   8.901   2.185  10.589 -0.0272 -0.3437 -0.1618
  296loPI    C2 4722   9.278   2.277  10.685 -0.1610 -0.0495  0.0997
  296loPI    C3 4723   9.101   1.958  10.851 -0.0707 -0.1130  0.0750
  296loPI   PO4 4724   8.842   2.175  10.332  0.0621  0.1522  0.0475
  296loPI   GL1 4725   8.864   2.371   9.903  0.1607  0.0701 -0.2955
  296loPI   GL2 4726   8.918   2.704  10.004 -0.3937 -0.3240  0.0261
  296loPI   C1A 4727   8.839   2.153   9.605 -0.1422 -0.1846  0.1515
  296loPI   C2A 4728   8.970   2.105   9.155 -0.0085 -0.2486  0.0254
  296loPI   C3A 4729   9.107   2.061   8.694  0.0131  0.0133 -0.0548
  296loPI   C4A 4730   8.916   2.005   8.322 -0.0957 -0.0631  0.3819
  296loPI   C5A 4731   8.740   1.625   8.148  0.0697 -0.1787 -0.2578
  296loPI   C6A 4732   8.662   1.488   7.714  0.0676 -0.0016 -0.2188
  296loPI   C1B 4733   9.208   2.535   9.649 -0.2872 -0.2849 -0.0572
  296loPI   C2B 4734   9.286   2.546   9.182 -0.0389  0.0011 -0.0787
  296loPI   C3B 4735   9.156   2.540   8.803 -0.1136 -0.3980  0.0683
  296loPI   C4B 4736   9.150   2.516   8.420  0.1267 -0.0723  0.2043
  297loPI    C1 4737   1.402   7.753  10.328  0.1007 -0.1747  0.0136
  297loPI    C2 4738   1.162   7.976  10.557  0.3082 -0.0025  0.0664
  297loPI    C3 4739   1.204   7.585  10.632  0.0916 -0.0218  0.0926
  297loPI   PO4 4740   1.298   7.810  10.104 -0.2903  0.2083  0.1813
  297loPI   GL1 4741   1.481   7.824   9.613  0.1323  0.1835  0.1213
  297loPI   GL2 4742   1.778   7.781   9.738 -0.0697 -0.0167 -0.2584
  297loPI   C1A 4743   1.632   7.936   9.233  0.0003  0.0145  0.1327
  297loPI   C2A 4744   1.698   8.088   8.813 -0.1028  0.1482  0.0506
  297loPI   C3A 4745   1.714   8.055   8.422  0.0846 -0.1997  0.1216
  297loPI   C4A 4746   1.903   7.828   8.124 -0.0411 -0.1255  0.0542
  297loPI   C5A 4747   2.168   7.443   8.019  0.0926  0.2176  0.2849
  297loPI   C6A 4748   2.547   7.305   8.195 -0.1144  0.1106 -0.2487
  297loPI   C1B 4749   2.077   7.787   9.445 -0.0096  0.0540  0.0156
  297loPI   C2B 4750   2.288   8.078   9.203 -0.3562 -0.0092 -0.3348
  297loPI   C3B 4751   2.577   8.403   9.178 -0.4275  0.2232 -0.0387
  297loPI   C4B 4752   2.883   8.401   8.834 -0.0708 -0.1737 -0.0896
  298loPI    C1 4753   2.828  18.044  10.600  0.1637  0.1122 -0.0018
  298loPI    C2 4754   2.974  18.358  10.799  0.2269  0.1239 -0.0665
  298loPI    C3 4755   2.582  18.280  10.808  0.2667 -0.0538  0.3150
  298loPI   PO4 4756   2.926  18.125  10.292 -0.1230 -0.1416  0.2280
  298loPI   GL1 4757   2.851  18.216   9.907 -0.1331  0.0707  0.1923
  298loPI   GL2 4758   3.153  18.358   9.830  0.1317 -0.0484  0.0423
  298loPI   C1A 4759   2.581  18.496   9.739  0.0938  0.1385 -0.1001
  298loPI   C2A 4760   2.558  18.815   9.480 -0.2194  0.1347 -0.0192
  298loPI   C3A 4761   2.483  19.057   9.098 -0.0445 -0.1128  0.2203
  298loPI   C4A 4762   2.441  19.040   8.579  0.0324  0.0803  0.0880
  298loPI   C5A 4763   2.548  18.797   8.288  0.3711 -0.1134  0.1971
  298loPI   C6A 4764   2.656  18.394   8.106  0.0012  0.0842  0.4945
  298loPI   C1B 4765   3.001  18.567   9.531 -0.2087 -0.0063 -0.0230
  298loPI   C2B 4766   2.706  18.370   9.209 -0.2354 -0.0014 -0.2081
  298loPI   C3B 4767   2.338  18.479   9.132 -0.0192 -0.0572 -0.1839
  298loPI   C4B 4768   1.964  18.342   9.116  0.0942  0.0622 -0.3106
  299loPI    C1 4769   7.522  11.022  10.174  0.0666  0.2522  0.1190
  299loPI    C2 4770   7.907  10.917  10.159  0.0700  0.2834 -0.0331
  299loPI    C3 4771   7.715  10.925  10.510  0.0878 -0.1597 -0.0077
  299loPI   PO4 4772   7.289  10.863  10.036  0.2030 -0.0251  0.2142
  299loPI   GL1 4773   7.088  11.055   9.632  0.0304  0.3366  0.1078
  299loPI   GL2 4774   7.299  11.286   9.799 -0.0170 -0.0590  0.0486
  299loPI   C1A 4775   6.779  10.793   9.334  0.1321 -0.0981  0.0962
  299loPI   C2A 4776   6.646  10.754   9.028 -0.2447 -0.0105  0.0660
  299loPI   C3A 4777   6.674  10.754   8.638 -0.0703 -0.0337  0.1417
  299loPI   C4A 4778   6.483  10.704   8.195 -0.0158  0.0519 -0.1196
  299loPI   C5A 4779   6.326  10.320   7.881  0.1318 -0.1298 -0.1466
  299loPI   C6A 4780   6.243   9.867   7.673  0.1175  0.0382  0.1124
  299loPI   C1B 4781   7.356  11.454   9.424 -0.2217  0.2169 -0.1374
  299loPI   C2B 4782   7.499  11.300   8.955  0.1808 -0.1862 -0.1535
  299loPI   C3B 4783   7.640  11.141   8.548 -0.0375  0.0542 -0.0146
  299loPI   C4B 4784   7.425  11.068   8.124  0.2813 -0.2174 -0.0469
  300loPI    C1 4785   3.798   2.474  10.289 -0.1535 -0.3697 -0.0428
  300loPI    C2 4786   3.855   2.089  10.381  0.0247 -0.2749  0.2578
  300loPI    C3 4787   3.819   2.361  10.672  0.2063 -0.0209  0.0473
  300loPI   PO4 4788   3.652   2.465  10.132  0.4258  0.2707  0.1264
  300loPI   GL1 4789   3.712   2.499   9.699  0.0707 -0.2863  0.0479
  300loPI   GL2 4790   3.387   2.403   9.623 -0.4250  0.1930 -0.0161
  300loPI   C1A 4791   3.806   2.699   9.359  0.0677  0.0520 -0.3138
  300loPI   C2A 4792   3.808   2.815   8.953  0.1815 -0.0129 -0.2005
  300loPI   C3A 4793   3.934   2.797   8.540  0.2818 -0.0500 -0.0711
  300loPI   C4A 4794   3.941   2.630   8.175  0.1866  0.0788 -0.1484
  300loPI   C5A 4795   3.621   2.382   7.873  0.3405  0.0494  0.1531
  300loPI   C6A 4796   3.403   2.019   7.710  0.0989 -0.1803 -0.1300
  300loPI   C1B 4797   3.283   2.261   9.250  0.3188 -0.0137  0.2592
  300loPI   C2B 4798   3.155   2.210   8.859  0.0502  0.1635 -0.2920
  300loPI   C3B 4799   3.155   2.226   8.478  0.3062  0.0691  0.0503
  300loPI   C4B 4800   3.254   2.244   8.106  0.1009 -0.3552  0.0052
  301loPI    C1 4801   1.633   3.920  10.199  0.1286  0.1903  0.0964
  301loPI    C2 4802   1.550   3.827  10.579 -0.0047  0.0379  0.0316
  301loPI    C3 4803   1.822   3.615  10.376  0.0093  0.0693  0.0172
  301loPI   PO4 4804   1.343   4.113  10.210 -0.1453  0.0854  0.3165
  301loPI   GL1 4805   0.923   4.040  10.007  0.2391 -0.0328 -0.0864
  301loPI   GL2 4806   1.062   4.274   9.762  0.2955 -0.0814  0.2295
  301loPI   C1A 4807   0.785   3.802   9.599  0.2130 -0.1315  0.0663
  301loPI   C2A 4808   0.679   3.951   9.082 -0.0716 -0.1031  0.1877
  301loPI   C3A 4809   0.692   4.115   8.739  0.1966  0.0201  0.2151
  301loPI   C4A 4810   0.522   4.314   8.366 -0.3091 -0.1348  0.1018
  301loPI   C5A 4811   0.531   4.785   8.215  0.0356 -0.1236  0.1424
  301loPI   C6A 4812   0.713   5.186   7.980  0.1351 -0.2980 -0.4314
  301loPI   C1B 4813   0.908   4.270   9.347  0.0156 -0.4298 -0.0327
  301loPI   C2B 4814   0.946   4.475   8.981  0.0663  0.0493  0.0550
  301loPI   C3B 4815   0.857   4.595   8.600  0.2494 -0.0084  0.3051
  301loPI   C4B 4816   1.036   4.905   8.259  0.1928  0.0676 -0.1700
  302loPI    C1 4817   1.879  13.604  10.378  0.0212  0.1314 -0.0181
  302loPI    C2 4818   1.634  13.662  10.689  0.1078 -0.2310  0.1219
  302loPI    C3 4819   1.490  13.518  10.345  0.0677 -0.1303  0.0962
  302loPI   PO4 4820   2.150  13.806  10.260  0.0686  0.0945 -0.1081
  302loPI   GL1 4821   2.260  14.216  10.064  0.3234  0.1071  0.2097
  302loPI   GL2 4822   2.130  14.546  10.033  0.0639  0.0012 -0.1697
  302loPI   C1A 4823   2.288  14.390   9.625  0.1677 -0.0989  0.1242
  302loPI   C2A 4824   2.148  14.490   9.250 -0.1345 -0.1077  0.1315
  302loPI   C3A 4825   2.314  14.646   8.778 -0.1978  0.0463  0.0165
  302loPI   C4A 4826   2.324  14.793   8.374  0.1115  0.1725 -0.1689
  302loPI   C5A 4827   2.500  14.664   8.060 -0.2748  0.2634 -0.1039
  302loPI   C6A 4828   2.817  14.563   7.731 -0.0277 -0.3395 -0.1224
  302loPI   C1B 4829   2.089  14.858   9.673 -0.1010  0.1343  0.2950
  302loPI   C2B 4830   2.064  15.022   9.253  0.1332  0.2425 -0.0582
  302loPI   C3B 4831   1.961  15.067   8.850  0.1929  0.2002  0.2442
  302loPI   C4B 4832   1.871  15.115   8.462  0.0691  0.0368  0.0551
  303loPI    C1 4833  17.246   4.012  10.532  0.0363  0.0192 -0.3028
  303loPI    C2 4834  16.993   3.880  10.813  0.3216  0.2102  0.0528
  303loPI    C3 4835  17.377   3.766  10.820  0.3203  0.1736 -0.2968
  303loPI   PO4 4836  17.285   4.244  10.565 -0.0268  0.1924 -0.1151
  303loPI   GL1 4837  17.272   4.392  10.168  0.0998  0.1925 -0.0415
  303loPI   GL2 4838  17.084   4.164  10.100  0.5147  0.1763  0.1424
  303loPI   C1A 4839  17.417   4.356   9.703 -0.1815  0.1180 -0.0797
  303loPI   C2A 4840  17.398   4.368   9.318  0.1090 -0.1348 -0.2859
  303loPI   C3A 4841  17.422   4.276   8.886 -0.3906 -0.0020  0.1188
  303loPI   C4A 4842  17.317   4.442   8.487  0.2144 -0.0266 -0.0113
  303loPI   C5A 4843  17.419   4.411   8.082 -0.1763 -0.2378 -0.0452
  303loPI   C6A 4844  17.496   4.282   7.764 -0.1320  0.0844 -0.0787
  303loPI   C1B 4845  17.086   3.976   9.673 -0.1816 -0.0600  0.2048
  303loPI   C2B 4846  17.087   4.005   9.233 -0.2132  0.2348 -0.0283
  303loPI   C3B 4847  17.020   3.883   8.814  0.1352 -0.4304 -0.1399
  303loPI   C4B 4848  16.628   3.857   8.572  0.1323 -0.0648 -0.1520
  304loPI    C1 4849  13.966   4.590  10.830  0.2088 -0.1537 -0.1404
  304loPI    C2 4850  14.272   4.844  10.783  0.0736  0.0391  0.0059
  304loPI    C3 4851  14.320   4.511  10.999  0.1451  0.1346  0.1391
  304loPI   PO4 4852  13.810   4.612  10.543 -0.2285  0.0998  0.2902
  304loPI   GL1 4853  14.046   4.533  10.166 -0.1191  0.0654  0.0702
  304loPI   GL2 4854  14.161   4.846  10.271  0.0457 -0.0746  0.1320
  304loPI   C1A 4855  14.024   4.305   9.719  0.0776 -0.1212  0.1198
  304loPI   C2A 4856  14.041   4.027   9.581  0.3147  0.2514  0.1957
  304loPI   C3A 4857  14.059   4.265   9.206  0.0671 -0.0933 -0.2567
  304loPI   C4A 4858  14.123   4.544   8.866  0.2963 -0.3215 -0.1722
  304loPI   C5A 4859  14.447   4.689   8.705 -0.0443  0.1207 -0.2176
  304loPI   C6A 4860  14.662   4.944   8.413 -0.1180  0.0113 -0.1140
  304loPI   C1B 4861  14.121   4.786   9.750  0.0601 -0.1721 -0.2042
  304loPI   C2B 4862  14.236   4.815   9.276 -0.0862 -0.1713  0.0852
  304loPI   C3B 4863  14.020   5.019   8.928 -0.0229 -0.1036 -0.0180
  304loPI   C4B 4864  14.172   5.121   8.427  0.0709 -0.0190 -0.0250
  305loPI    C1 4865  17.387  12.009  10.750  0.2715  0.1105 -0.0577
  305loPI    C2 4866  17.250  12.205  11.071  0.3011 -0.1457  0.1143
  305loPI    C3 4867  17.283  12.394  10.720  0.0411  0.0719  0.2039
  305loPI   PO4 4868  17.567  11.928  10.736 -0.0889 -0.0369 -0.4525
  305loPI   GL1 4869  17.645  12.137  10.266 -0.1210  0.3044  0.0373
  305loPI   GL2 4870  17.435  11.957  10.267 -0.0742 -0.4749  0.2927
  305loPI   C1A 4871  17.890  12.248   9.887  0.1438 -0.0461  0.0352
  305loPI   C2A 4872  18.344  12.099   9.746 -0.0220 -0.1585  0.1462
  305loPI   C3A 4873  18.655  12.303   9.474 -0.1176 -0.1355 -0.0454
  305loPI   C4A 4874  18.632  12.466   9.041 -0.1191  0.1578  0.0469
  305loPI   C5A 4875  18.580  12.484   8.595 -0.3827  0.4058  0.1729
  305loPI   C6A 4876  18.630  12.252   8.267  0.2134  0.0980 -0.1784
  305loPI   C1B 4877  17.049  12.024  10.095  0.0545  0.0929 -0.1202
  305loPI   C2B 4878  16.682  12.074   9.890 -0.2448 -0.3235  0.1208
  305loPI   C3B 4879  16.502  11.900   9.636 -0.0742  0.2705  0.2900
  305loPI   C4B 4880  16.375  12.207   9.358 -0.2304 -0.0904 -0.0241
  306loPI    C1 4881   3.789   7.425  10.300 -0.2217  0.1301 -0.1391
  306loPI    C2 4882   3.658   7.758  10.480 -0.1058  0.1343 -0.0616
  306loPI    C3 4883   4.049   7.707  10.412 -0.0888 -0.1247  0.2118
  306loPI   PO4 4884   3.552   7.396  10.047  0.1355  0.0859  0.1720
  306loPI   GL1 4885   3.375   7.635   9.739  0.1987 -0.1132  0.0216
  306loPI   GL2 4886   3.135   7.459   9.709 -0.2210 -0.0110  0.1017
  306loPI   C1A 4887   3.241   7.721   9.301  0.1862 -0.0056  0.1216
  306loPI   C2A 4888   3.198   7.613   8.985 -0.3098  0.1105  0.1024
  306loPI   C3A 4889   3.191   7.498   8.528  0.1145  0.2021  0.0151
  306loPI   C4A 4890   3.106   7.495   8.141  0.4056  0.3737 -0.0398
  306loPI   C5A 4891   3.059   7.715   7.723 -0.0417  0.0677  0.0436
  306loPI   C6A 4892   3.178   7.929   7.311 -0.1149 -0.2558 -0.2201
  306loPI   C1B 4893   3.004   7.272   9.324 -0.0054 -0.1767  0.0684
  306loPI   C2B 4894   2.970   7.133   8.902  0.0821 -0.0950 -0.0264
  306loPI   C3B 4895   2.965   7.065   8.444 -0.2933 -0.1992  0.0428
  306loPI   C4B 4896   3.015   6.794   8.116 -0.2365  0.0591 -0.0147
  307loPI    C1 4897  13.393  15.629  10.392  0.1881 -0.2054 -0.0359
  307loPI    C2 4898  13.553  15.973  10.517 -0.0452 -0.0357 -0.1941
  307loPI    C3 4899  13.458  15.689  10.782 -0.2506  0.1957 -0.0150
  307loPI   PO4 4900  13.232  15.663  10.282  0.1877  0.0715  0.1226
  307loPI   GL1 4901  12.951  15.613  10.006  0.1331  0.1525  0.0745
  307loPI   GL2 4902  12.869  15.314   9.968 -0.0192 -0.1189  0.4443
  307loPI   C1A 4903  13.073  15.835   9.565  0.0138  0.4191 -0.0742
  307loPI   C2A 4904  13.346  15.777   9.236  0.0506  0.2743  0.0180
  307loPI   C3A 4905  13.474  15.782   8.898  0.0755 -0.1696  0.2696
  307loPI   C4A 4906  13.644  15.680   8.578  0.3257  0.1457  0.0419
  307loPI   C5A 4907  13.847  15.362   8.459  0.3617  0.0853 -0.0830
  307loPI   C6A 4908  14.144  14.982   8.438 -0.0689  0.0123  0.1696
  307loPI   C1B 4909  13.063  15.274   9.649  0.1098 -0.0342 -0.0981
  307loPI   C2B 4910  13.240  15.209   9.245 -0.2077  0.2097  0.0244
  307loPI   C3B 4911  13.443  15.271   8.873 -0.1545  0.1068 -0.0578
  307loPI   C4B 4912  13.456  15.060   8.496 -0.1355 -0.0539 -0.0081
  308loPI    C1 4913   7.071  14.480   9.855  0.0444 -0.1990  0.2623
  308loPI    C2 4914   7.360  14.704  10.018 -0.0602  0.0902  0.0580
  308loPI    C3 4915   7.321  14.320  10.124  0.0976  0.1749  0.4415
  308loPI   PO4 4916   7.131  14.512   9.596  0.0373 -0.1165 -0.1241
  308loPI   GL1 4917   6.939  14.403   9.280  0.0807  0.0215 -0.0190
  308loPI   GL2 4918   7.092  14.003   9.129 -0.0874 -0.0167  0.2848
  308loPI   C1A 4919   6.978  14.477   8.869  0.1672  0.3620  0.1220
  308loPI   C2A 4920   6.960  14.482   8.479  0.1821 -0.0020 -0.0333
  308loPI   C3A 4921   6.895  14.610   8.098  0.0699  0.0427 -0.0996
  308loPI   C4A 4922   7.040  14.916   7.814  0.0437 -0.2020  0.0938
  308loPI   C5A 4923   7.306  15.083   7.420  0.1013  0.0451 -0.2486
  308loPI   C6A 4924   7.641  14.850   7.281 -0.1999 -0.0503 -0.0129
  308loPI   C1B 4925   7.062  14.018   8.723  0.2196 -0.1414  0.3963
  308loPI   C2B 4926   6.978  13.896   8.305  0.3403  0.0134  0.1472
  308loPI   C3B 4927   7.252  13.661   7.963  0.2201 -0.1612 -0.1369
  308loPI   C4B 4928   7.603  13.455   7.789 -0.0262  0.0022  0.2288
  309loPI    C1 4929  17.371   6.168  10.509 -0.2486 -0.0702  0.0301
  309loPI    C2 4930  17.407   6.513  10.707  0.0949 -0.0151 -0.1208
  309loPI    C3 4931  17.123   6.471  10.428 -0.1262  0.0470  0.0912
  309loPI   PO4 4932  17.624   6.145  10.385  0.3310 -0.1485  0.2291
  309loPI   GL1 4933  17.693   6.070   9.992 -0.1605  0.2661 -0.0796
  309loPI   GL2 4934  17.426   5.871   9.985  0.1603 -0.0626 -0.0919
  309loPI   C1A 4935  17.838   6.214   9.472  0.2710 -0.0708 -0.0552
  309loPI   C2A 4936  17.660   6.510   9.251 -0.1370 -0.2144 -0.1556
  309loPI   C3A 4937  17.708   6.453   8.812 -0.1918  0.1166  0.0688
  309loPI   C4A 4938  17.575   6.326   8.363  0.0198  0.0997  0.0670
  309loPI   C5A 4939  17.247   6.250   8.186  0.3974  0.2445  0.1183
  309loPI   C6A 4940  16.817   6.016   8.191  0.3004 -0.0133  0.0672
  309loPI   C1B 4941  17.334   6.169   9.572 -0.1626  0.1294 -0.5132
  309loPI   C2B 4942  17.319   6.148   9.044  0.0012 -0.1133  0.1960
  309loPI   C3B 4943  17.201   6.102   8.651 -0.4221 -0.3220 -0.1917
  309loPI   C4B 4944  17.226   5.756   8.417  0.1183 -0.3849  0.2168
  310loPI    C1 4945   0.434  11.234  10.702 -0.1613 -0.0769  0.2601
  310loPI    C2 4946   0.799  11.090  10.782 -0.0697  0.0709  0.1150
  310loPI    C3 4947   0.669  11.418  10.970 -0.0952  0.0663  0.1056
  310loPI   PO4 4948   0.413  11.171  10.396 -0.0198  0.0477 -0.2411
  310loPI   GL1 4949   0.234  11.399  10.118 -0.2413  0.5402  0.0847
  310loPI   GL2 4950  -0.092  11.395  10.072  0.2150 -0.0896 -0.2232
  310loPI   C1A 4951   0.414  11.547   9.671 -0.0350  0.2722 -0.1013
  310loPI   C2A 4952   0.230  11.790   9.309 -0.1479 -0.1169 -0.0862
  310loPI   C3A 4953   0.164  12.017   8.973 -0.0332 -0.1929  0.0455
  310loPI   C4A 4954   0.042  12.114   8.558  0.2268  0.0682  0.0732
  310loPI   C5A 4955  -0.285  12.353   8.392 -0.0548 -0.1124  0.1815
  310loPI   C6A 4956  -0.768  12.351   8.348 -0.1921  0.0648  0.0355
  310loPI   C1B 4957  -0.049  11.657   9.675 -0.2282  0.2581  0.0703
  310loPI   C2B 4958  -0.251  11.975   9.417  0.0758  0.0185  0.1832
  310loPI   C3B 4959  -0.342  12.055   8.944 -0.2222  0.1960 -0.1193
  310loPI   C4B 4960  -0.396  11.856   8.587  0.4927  0.0446 -0.0154
  311loPI    C1 4961   5.261  10.088  10.115 -0.1026  0.0113  0.0715
  311loPI    C2 4962   4.935   9.917  10.273 -0.2079  0.0632 -0.0871
  311loPI    C3 4963   5.053  10.277  10.400 -0.0612 -0.0672  0.1546
  311loPI   PO4 4964   5.193  10.051   9.760  0.2151  0.0139 -0.0216
  311loPI   GL1 4965   4.949  10.281   9.409 -0.0471 -0.0140 -0.0108
  311loPI   GL2 4966   5.196  10.586   9.514  0.0953 -0.2197  0.1455
  311loPI   C1A 4967   4.806  10.343   8.998  0.1955 -0.0995 -0.0310
  311loPI   C2A 4968   4.736  10.318   8.547 -0.1291  0.1247  0.1511
  311loPI   C3A 4969   4.445  10.626   8.332 -0.0832  0.1415 -0.1340
  311loPI   C4A 4970   4.362  10.842   7.951  0.0362  0.0736 -0.1578
  311loPI   C5A 4971   4.317  11.046   7.619  0.0517  0.1289  0.0278
  311loPI   C6A 4972   3.958  11.407   7.587  0.1183  0.1830  0.0972
  311loPI   C1B 4973   5.089  10.817   9.032 -0.0872  0.0177  0.0130
  311loPI   C2B 4974   4.979  10.901   8.608 -0.2278 -0.1022  0.0818
  311loPI   C3B 4975   4.850  11.097   8.266  0.3158  0.1515 -0.0373
  311loPI   C4B 4976   4.564  11.321   7.974 -0.0985  0.1800 -0.0085
  312loPI    C1 4977   4.637   2.251  10.408 -0.0699 -0.0189  0.0340
  312loPI    C2 4978   4.286   2.150  10.571 -0.0587  0.0798  0.1202
  312loPI    C3 4979   4.326   2.502  10.385 -0.1155 -0.0960 -0.2342
  312loPI   PO4 4980   4.710   2.030  10.224  0.2281 -0.0081  0.1078
  312loPI   GL1 4981   4.740   2.284   9.789 -0.1081 -0.1133  0.1191
  312loPI   GL2 4982   4.597   2.520   9.974 -0.2764  0.0040  0.0575
  312loPI   C1A 4983   4.810   2.437   9.403 -0.2966  0.1467  0.1747
  312loPI   C2A 4984   4.835   2.709   9.078 -0.0221  0.2058  0.2546
  312loPI   C3A 4985   4.860   3.024   8.747  0.0477 -0.2513 -0.3391
  312loPI   C4A 4986   4.873   2.865   8.408  0.0000 -0.0000 -0.1561
  312loPI   C5A 4987   4.882   2.437   8.130  0.2486  0.1568 -0.0307
  312loPI   C6A 4988   4.692   2.040   8.267  0.1208 -0.1214 -0.0855
  312loPI   C1B 4989   4.681   2.825   9.693 -0.0313 -0.2525 -0.1207
  312loPI   C2B 4990   4.819   3.176   9.436 -0.0168 -0.2665 -0.1153
  312loPI   C3B 4991   4.659   3.413   9.059 -0.0676  0.2385  0.1879
  312loPI   C4B 4992   4.381   3.690   8.846 -0.0683  0.3281 -0.1346
  313loPI    C1 4993  13.051   6.065  10.902 -0.1258  0.0707 -0.0817
  313loPI    C2 4994  13.037   5.951  11.286 -0.3901 -0.3471 -0.2086
  313loPI    C3 4995  12.845   6.282  11.168 -0.1795 -0.1309  0.0436
  313loPI   PO4 4996  13.369   5.997  10.827 -0.1880 -0.0628 -0.0564
  313loPI   GL1 4997  13.670   6.130  10.568 -0.1232  0.2206 -0.0689
  313loPI   GL2 4998  13.936   6.266  10.416  0.0523  0.1248  0.0478
  313loPI   C1A 4999  13.632   5.803  10.230 -0.2293 -0.1017 -0.0880
  313loPI   C2A 5000  13.734   5.696   9.872  0.0606 -0.1695 -0.1013
  313loPI   C3A 5001  13.741   5.765   9.500  0.1481  0.1451  0.0791
  313loPI   C4A 5002  13.627   5.828   9.117 -0.0597  0.1400 -0.0825
  313loPI   C5A 5003  13.368   5.815   8.704  0.0365 -0.4514 -0.0682
  313loPI   C6A 5004  13.098   5.690   8.521 -0.0485 -0.1476 -0.1034
  313loPI   C1B 5005  13.994   6.215  10.009 -0.2205  0.2651 -0.0159
  313loPI   C2B 5006  14.103   6.009   9.611 -0.3036 -0.3381 -0.1581
  313loPI   C3B 5007  14.110   6.029   9.125 -0.0850 -0.3572 -0.0617
  313loPI   C4B 5008  13.882   6.036   8.617  0.3187  0.0855  0.1522
  314loPI    C1 5009  17.074   7.462  10.958  0.1289  0.0151 -0.1476
  314loPI    C2 5010  17.416   7.629  11.079  0.0996 -0.0381  0.0112
  314loPI    C3 5011  17.421   7.274  10.896  0.1240 -0.0686  0.0708
  314loPI   PO4 5012  16.952   7.670  10.871  0.3763 -0.0614 -0.1335
  314loPI   GL1 5013  16.770   7.707  10.401  0.1587  0.2787  0.0099
  314loPI   GL2 5014  16.674   7.391  10.204 -0.1724  0.1900  0.1238
  314loPI   C1A 5015  16.589   7.828   9.959 -0.1688 -0.0959 -0.1898
  314loPI   C2A 5016  16.199   7.822   9.752  0.0513 -0.0197 -0.1129
  314loPI   C3A 5017  15.849   7.799   9.515 -0.0880  0.1146 -0.0857
  314loPI   C4A 5018  15.656   7.771   9.141 -0.0272  0.1710 -0.0355
  314loPI   C5A 5019  15.888   7.830   8.825 -0.0894  0.0007 -0.0840
  314loPI   C6A 5020  16.319   7.813   8.749  0.1653 -0.1102 -0.0543
  314loPI   C1B 5021  16.958   7.478   9.867  0.0610  0.1361 -0.1742
  314loPI   C2B 5022  17.198   7.650   9.591  0.1781 -0.2203  0.0556
  314loPI   C3B 5023  17.169   7.707   9.142 -0.3176 -0.2057 -0.1021
  314loPI   C4B 5024  16.908   7.591   8.732 -0.0663 -0.2320 -0.0829
  315loPI    C1 5025  12.030  13.234   9.936  0.0951  0.0906 -0.0502
  315loPI    C2 5026  12.364  13.101  10.112 -0.1422 -0.3134  0.1089
  315loPI    C3 5027  12.226  13.468  10.195  0.3387 -0.0829 -0.0747
  315loPI   PO4 5028  12.023  12.968   9.785  0.1654  0.1800 -0.2232
  315loPI   GL1 5029  11.838  12.689   9.564 -0.1328  0.0731  0.1431
  315loPI   GL2 5030  11.569  12.570   9.399  0.1056  0.2248  0.0839
  315loPI   C1A 5031  11.949  12.726   9.152  0.1568  0.2170 -0.2024
  315loPI   C2A 5032  12.032  12.645   8.793  0.0062 -0.1178  0.0518
  315loPI   C3A 5033  12.176  12.604   8.466 -0.0376 -0.0302  0.0317
  315loPI   C4A 5034  12.546  12.648   8.330 -0.1541  0.0430 -0.0358
  315loPI   C5A 5035  12.720  12.328   8.043 -0.3231  0.0503  0.1165
  315loPI   C6A 5036  12.466  12.157   7.691  0.0587  0.1978 -0.1123
  315loPI   C1B 5037  11.581  12.435   8.965  0.0412 -0.0741 -0.0660
  315loPI   C2B 5038  11.571  12.465   8.489 -0.1129 -0.1133  0.1733
  315loPI   C3B 5039  11.647  12.448   8.036 -0.0536 -0.4760  0.0171
  315loPI   C4B 5040  11.919  12.218   7.792 -0.0851  0.0547 -0.2151
  316loPI    C1 5041   7.788  14.323   9.878  0.1441 -0.1955 -0.2107
  316loPI    C2 5042   7.810  14.481  10.245  0.0939 -0.1027 -0.2474
  316loPI    C3 5043   7.718  14.095  10.199  0.3288 -0.1718 -0.1524
  316loPI   PO4 5044   7.690  14.537   9.702  0.1025  0.1203  0.0953
  316loPI   GL1 5045   7.696  14.714   9.160 -0.0246  0.1402 -0.0156
  316loPI   GL2 5046   7.351  14.709   9.186 -0.2273 -0.2670  0.0943
  316loPI   C1A 5047   7.767  14.872   8.857 -0.1465 -0.0021  0.0616
  316loPI   C2A 5048   7.852  14.838   8.462  0.1631 -0.0226 -0.2013
  316loPI   C3A 5049   7.961  14.697   8.074 -0.1614 -0.1143  0.0834
  316loPI   C4A 5050   8.103  14.662   7.594 -0.1048  0.0317 -0.2804
  316loPI   C5A 5051   8.070  14.507   7.191  0.0603 -0.3482  0.1332
  316loPI   C6A 5052   7.852  14.443   6.782  0.1949 -0.1077  0.0401
  316loPI   C1B 5053   7.312  14.768   8.667  0.2110 -0.1773 -0.1040
  316loPI   C2B 5054   7.361  14.754   8.197  0.1771  0.0054  0.3930
  316loPI   C3B 5055   7.463  14.586   7.892  0.1839  0.1165 -0.1639
  316loPI   C4B 5056   7.684  14.399   7.524  0.0003 -0.0664  0.1485
  317loPI    C1 5057  12.750   1.814  10.766  0.1480  0.0226  0.0913
  317loPI    C2 5058  12.978   1.610  10.509  0.1119  0.1318 -0.0281
  317loPI    C3 5059  13.047   1.583  10.902  0.3107  0.1395 -0.0612
  317loPI   PO4 5060  12.716   2.083  10.621 -0.1814  0.0428  0.0542
  317loPI   GL1 5061  12.794   2.331  10.328 -0.4001  0.3525  0.1549
  317loPI   GL2 5062  12.750   2.618  10.303  0.0222  0.2758 -0.2419
  317loPI   C1A 5063  13.121   2.255  10.075  0.0046  0.0846  0.2303
  317loPI   C2A 5064  13.248   2.329   9.687 -0.1962  0.1032  0.0348
  317loPI   C3A 5065  13.256   2.491   9.215  0.3109  0.1476  0.2029
  317loPI   C4A 5066  13.116   2.650   8.858  0.2547 -0.0605  0.0750
  317loPI   C5A 5067  13.008   2.940   8.674  0.0762 -0.1511  0.1232
  317loPI   C6A 5068  13.294   3.111   8.460 -0.4091  0.0156 -0.1964
  317loPI   C1B 5069  12.723   2.555   9.783 -0.0017 -0.0653  0.2179
  317loPI   C2B 5070  12.739   2.756   9.301 -0.0630 -0.3053  0.0768
  317loPI   C3B 5071  12.582   2.727   8.850 -0.1033  0.1664 -0.0242
  317loPI   C4B 5072  12.523   2.784   8.475 -0.2589 -0.1221  0.3106
  318loPI    C1 5073   2.531  12.047  10.132 -0.0570  0.2005  0.0294
  318loPI    C2 5074   2.719  11.965  10.476 -0.1190  0.0849  0.0363
  318loPI    C3 5075   2.352  12.124  10.481 -0.1288  0.0627  0.0237
  318loPI   PO4 5076   2.668  12.025   9.991  0.0357  0.0101  0.1027
  318loPI   GL1 5077   2.766  11.852   9.713 -0.1055 -0.1128  0.6372
  318loPI   GL2 5078   3.105  11.906   9.710  0.1425 -0.0949 -0.1992
  318loPI   C1A 5079   2.834  11.701   9.330  0.0223 -0.0794 -0.0318
  318loPI   C2A 5080   2.982  11.661   9.003  0.0102  0.0042  0.2342
  318loPI   C3A 5081   3.324  11.929   8.844 -0.3001 -0.1118 -0.0627
  318loPI   C4A 5082   3.634  12.026   8.573 -0.0497 -0.1583 -0.0916
  318loPI   C5A 5083   4.012  12.080   8.279 -0.0220  0.1374  0.0553
  318loPI   C6A 5084   4.121  12.254   7.841 -0.2280  0.2309 -0.4457
  318loPI   C1B 5085   3.157  12.108   9.280  0.1335  0.0560 -0.0236
  318loPI   C2B 5086   3.305  12.421   9.099  0.1945  0.0322  0.4773
  318loPI   C3B 5087   3.338  12.527   8.654  0.3945  0.0882  0.1741
  318loPI   C4B 5088   3.389  12.769   8.228 -0.1966 -0.0572 -0.2125
  319loPI    C1 5089  12.225  10.807  10.221 -0.0631 -0.1929  0.0007
  319loPI    C2 5090  12.206  10.546  10.523  0.1587 -0.1034  0.0947
  319loPI    C3 5091  12.546  10.590  10.318  0.1680  0.2141  0.1733
  319loPI   PO4 5092  11.865  10.902  10.197 -0.1033  0.0228 -0.1851
  319loPI   GL1 5093  11.465  10.707   9.936 -0.3069 -0.0225 -0.0072
  319loPI   GL2 5094  11.458  10.367   9.903  0.2208  0.0907  0.0552
  319loPI   C1A 5095  11.648  10.655   9.559  0.1828 -0.1341 -0.0579
  319loPI   C2A 5096  11.472  10.567   9.199 -0.0846  0.0724 -0.0393
  319loPI   C3A 5097  11.304  10.707   8.973  0.3200 -0.0134  0.1533
  319loPI   C4A 5098  11.140  10.579   8.536  0.2515  0.1133  0.0132
  319loPI   C5A 5099  11.334  10.483   8.109 -0.0641 -0.3044 -0.0386
  319loPI   C6A 5100  11.694  10.250   8.060  0.1683 -0.1775 -0.0783
  319loPI   C1B 5101  11.330  10.160   9.628  0.2588 -0.0980  0.0315
  319loPI   C2B 5102  11.333  10.033   9.210 -0.0080 -0.2968 -0.0680
  319loPI   C3B 5103  11.483   9.887   8.831 -0.3462  0.0768  0.1265
  319loPI   C4B 5104  11.750   9.829   8.452  0.1754  0.1390  0.2539
  320loPI    C1 5105  17.558   9.435  10.601  0.0882  0.0956  0.1836
  320loPI    C2 5106  17.172   9.517  10.667 -0.0093 -0.0814 -0.1437
  320loPI    C3 5107  17.448   9.803  10.713 -0.1896  0.0731 -0.0035
  320loPI   PO4 5108  17.567   9.297  10.303 -0.1911  0.1638  0.0328
  320loPI   GL1 5109  17.609   9.443   9.956 -0.2113  0.3393 -0.2445
  320loPI   GL2 5110  17.637   9.805   9.789 -0.2627  0.0841  0.1533
  320loPI   C1A 5111  17.379   9.424   9.667 -0.3445 -0.0015  0.0877
  320loPI   C2A 5112  17.335   9.419   9.192 -0.1343  0.1085  0.2361
  320loPI   C3A 5113  17.435   9.684   8.957  0.2253  0.0834  0.0025
  320loPI   C4A 5114  17.378  10.031   8.766  0.1370  0.0559 -0.3394
  320loPI   C5A 5115  17.104  10.246   8.495  0.1060 -0.0696 -0.2724
  320loPI   C6A 5116  16.677  10.238   8.402 -0.0644 -0.0553  0.1163
  320loPI   C1B 5117  17.841   9.861   9.387  0.2461  0.2517  0.2295
  320loPI   C2B 5118  18.000   9.769   9.072  0.2098 -0.0131  0.0387
  320loPI   C3B 5119  17.800   9.783   8.654  0.1981 -0.2539  0.0156
  320loPI   C4B 5120  17.942  10.108   8.503  0.0306  0.0384  0.1733
  321loPI    C1 5121  16.077   9.423  10.497 -0.1054 -0.1273  0.0323
  321loPI    C2 5122  15.996   9.169  10.795  0.0222 -0.2272 -0.0173
  321loPI    C3 5123  16.075   9.553  10.876  0.1056 -0.2646  0.0826
  321loPI   PO4 5124  15.829   9.357  10.365 -0.1163  0.0737  0.1477
  321loPI   GL1 5125  15.492   9.128  10.065  0.0520 -0.0993  0.2095
  321loPI   GL2 5126  15.713   8.949  10.017 -0.0769 -0.0971 -0.0896
  321loPI   C1A 5127  15.351   9.165   9.622 -0.1818  0.1002 -0.1208
  321loPI   C2A 5128  15.401   9.318   9.119 -0.1032  0.1171 -0.2166
  321loPI   C3A 5129  15.342   8.987   8.801  0.0351  0.1642  0.1503
  321loPI   C4A 5130  15.284   8.481   8.855  0.1679  0.3509  0.1629
  321loPI   C5A 5131  15.150   8.210   8.544  0.2431  0.0697  0.0424
  321loPI   C6A 5132  15.122   7.854   8.278  0.2249  0.2149  0.1382
  321loPI   C1B 5133  15.724   8.705   9.626 -0.1868 -0.0574 -0.2335
  321loPI   C2B 5134  15.557   8.729   9.188 -0.0982 -0.0259  0.1542
  321loPI   C3B 5135  15.720   8.714   8.742 -0.3230  0.1263  0.1618
  321loPI   C4B 5136  15.910   8.653   8.345 -0.1034  0.0750  0.4673
  322loPI    C1 5137   1.174  10.939  10.298  0.0654  0.1765 -0.2152
  322loPI    C2 5138   1.289  11.080  10.655 -0.0867  0.2642 -0.2002
  322loPI    C3 5139   1.563  10.951  10.393  0.0141  0.0085  0.0261
  322loPI   PO4 5140   0.910  11.101  10.291 -0.2863  0.2276  0.2226
  322loPI   GL1 5141   0.673  11.104   9.925  0.0865  0.4383 -0.0514
  322loPI   GL2 5142   0.720  10.747   9.942  0.1575  0.2192 -0.0785
  322loPI   C1A 5143   0.948  11.457   9.653  0.0446  0.0909  0.2101
  322loPI   C2A 5144   1.102  11.787   9.372  0.4072  0.0202 -0.1982
  322loPI   C3A 5145   1.145  11.730   8.865  0.0174 -0.2300 -0.0904
  322loPI   C4A 5146   1.088  11.879   8.466  0.1075  0.3128  0.2825
  322loPI   C5A 5147   1.169  11.798   7.953 -0.1280 -0.0427  0.1320
  322loPI   C6A 5148   1.490  11.691   7.618  0.0740  0.0209 -0.1171
  322loPI   C1B 5149   0.851  10.492   9.600 -0.0197 -0.1722  0.1676
  322loPI   C2B 5150   0.726  10.447   9.230  0.1774 -0.0632  0.4910
  322loPI   C3B 5151   0.803  10.375   8.780  0.3272  0.0333 -0.0804
  322loPI   C4B 5152   1.009  10.542   8.380 -0.0225 -0.1192 -0.3221
  323loPI    C1 5153  16.640   1.486  10.431 -0.2365  0.0694  0.0827
  323loPI    C2 5154  16.954   1.371  10.649 -0.0520  0.1136 -0.1556
  323loPI    C3 5155  16.624   1.505  10.830  0.0377 -0.0026  0.0990
  323loPI   PO4 5156  16.601   1.251  10.285  0.0494 -0.3209  0.0579
  323loPI   GL1 5157  16.382   1.113  10.065 -0.1559 -0.0934  0.2652
  323loPI   GL2 5158  16.315   0.771   9.954 -0.0116  0.1537  0.2283
  323loPI   C1A 5159  16.223   1.367   9.691 -0.0895  0.2790  0.1905
  323loPI   C2A 5160  15.855   1.573   9.529  0.0721  0.1052  0.2277
  323loPI   C3A 5161  15.577   1.441   9.216 -0.1082  0.2553  0.2027
  323loPI   C4A 5162  15.562   1.270   8.837 -0.0680  0.0765 -0.0483
  323loPI   C5A 5163  15.341   1.006   8.528 -0.0274 -0.1962 -0.3788
  323loPI   C6A 5164  15.184   0.499   8.561  0.0738 -0.1790 -0.3779
  323loPI   C1B 5165  16.264   0.789   9.588 -0.1058 -0.0315  0.5118
  323loPI   C2B 5166  16.478   0.800   9.176  0.2712  0.1646 -0.0271
  323loPI   C3B 5167  16.639   0.693   8.805  0.0369  0.0866 -0.1383
  323loPI   C4B 5168  16.872   0.544   8.456 -0.0180  0.1989 -0.1504
  324loPI    C1 5169  15.233   5.555  11.263  0.0243  0.0642 -0.1318
  324loPI    C2 5170  15.467   5.842  11.415 -0.3401  0.1619  0.2651
  324loPI    C3 5171  15.363   5.529  11.640 -0.0147 -0.2494 -0.1376
  324loPI   PO4 5172  15.231   5.763  10.958 -0.0673  0.2136  0.0383
  324loPI   GL1 5173  15.267   5.601  10.473 -0.1246  0.0240  0.0251
  324loPI   GL2 5174  15.022   5.400  10.395 -0.4309 -0.0226  0.2759
  324loPI   C1A 5175  15.156   5.624   9.963 -0.0859 -0.1716  0.0330
  324loPI   C2A 5176  15.167   5.600   9.508  0.2998  0.0003  0.2159
  324loPI   C3A 5177  15.297   5.695   9.139 -0.0935 -0.1261  0.0077
  324loPI   C4A 5178  15.493   6.022   8.932  0.4245  0.4033  0.0334
  324loPI   C5A 5179  15.503   6.375   8.688 -0.1116 -0.1485 -0.0942
  324loPI   C6A 5180  15.306   6.670   8.376 -0.0311 -0.2411 -0.0389
  324loPI   C1B 5181  14.964   5.185  10.023 -0.1722 -0.0177  0.0602
  324loPI   C2B 5182  15.055   5.097   9.680 -0.2112  0.1288  0.1103
  324loPI   C3B 5183  15.013   5.188   9.250 -0.3368  0.3225  0.1222
  324loPI   C4B 5184  15.020   5.355   8.825 -0.0930 -0.2561 -0.2239
  325loPI    C1 5185  15.414   3.524  10.806  0.2311 -0.0439  0.2472
  325loPI    C2 5186  15.299   3.849  10.603  0.0295 -0.3321 -0.1117
  325loPI    C3 5187  15.533   3.887  10.925 -0.0746  0.1731 -0.0876
  325loPI   PO4 5188  15.417   3.300  10.569  0.1721  0.2110  0.0212
  325loPI   GL1 5189  15.121   2.889  10.350 -0.0788 -0.2238  0.0753
  325loPI   GL2 5190  14.870   2.956  10.266  0.0464 -0.1494  0.2757
  325loPI   C1A 5191  15.230   2.951   9.837 -0.0341 -0.0479 -0.3857
  325loPI   C2A 5192  15.139   2.891   9.433 -0.1932  0.3183 -0.0438
  325loPI   C3A 5193  15.249   3.007   9.034 -0.0975  0.2332  0.0274
  325loPI   C4A 5194  15.637   3.055   8.818  0.2970  0.0578 -0.2426
  325loPI   C5A 5195  16.041   2.920   8.722 -0.2252 -0.3179 -0.2464
  325loPI   C6A 5196  16.437   2.826   8.579  0.0484  0.1228 -0.2600
  325loPI   C1B 5197  14.707   3.003   9.782 -0.0484 -0.0472  0.2769
  325loPI   C2B 5198  14.572   3.248   9.506 -0.2525  0.0318 -0.2085
  325loPI   C3B 5199  14.463   3.220   9.101 -0.1132 -0.0136  0.2204
  325loPI   C4B 5200  14.678   3.095   8.795 -0.1998 -0.2667  0.0218
  326loPI    C1 5201  14.111   6.959  10.859  0.4178  0.1001 -0.1799
  326loPI    C2 5202  14.192   6.829  11.229 -0.2359 -0.2358 -0.1387
  326loPI    C3 5203  13.947   7.141  11.175  0.0501 -0.0317 -0.2892
  326loPI   PO4 5204  14.424   7.046  10.702 -0.0052 -0.0449  0.0971
  326loPI   GL1 5205  14.620   6.990  10.256  0.0468  0.0328 -0.0092
  326loPI   GL2 5206  14.687   7.266  10.120  0.3232 -0.0104 -0.0422
  326loPI   C1A 5207  14.372   6.630   9.994  0.0285  0.1675  0.1600
  326loPI   C2A 5208  14.203   6.531   9.611  0.0543 -0.2315 -0.1153
  326loPI   C3A 5209  14.221   6.610   9.118 -0.0874 -0.0022  0.1646
  326loPI   C4A 5210  14.188   6.430   8.691 -0.0340  0.0041  0.2172
  326loPI   C5A 5211  13.938   6.438   8.320 -0.2944 -0.3357  0.2414
  326loPI   C6A 5212  13.506   6.254   8.310  0.1648 -0.3862  0.0597
  326loPI   C1B 5213  14.606   7.055   9.733 -0.0710  0.0642  0.0738
  326loPI   C2B 5214  14.638   7.145   9.331  0.2486 -0.0525  0.0636
  326loPI   C3B 5215  14.807   7.278   8.997  0.1118  0.0314 -0.1070
  326loPI   C4B 5216  14.963   7.001   8.615  0.3271  0.2120 -0.3031
  327loPI    C1 5217  10.535   4.135  10.689 -0.0377 -0.2094 -0.0808
  327loPI    C2 5218  10.307   4.261  10.994  0.2823  0.1498  0.0171
  327loPI    C3 5219  10.159   4.256  10.622 -0.0002  0.0334  0.1288
  327loPI   PO4 5220  10.691   4.242  10.563  0.0694  0.2434  0.1168
  327loPI   GL1 5221  10.839   4.383  10.090 -0.0782 -0.0238  0.0747
  327loPI   GL2 5222  10.889   4.678  10.231  0.0141 -0.0566 -0.0675
  327loPI   C1A 5223  10.694   4.380   9.733 -0.3050 -0.2436  0.3432
  327loPI   C2A 5224  10.835   4.329   9.361 -0.3200  0.2520  0.0809
  327loPI   C3A 5225  10.881   4.170   8.941  0.0187 -0.1143  0.0546
  327loPI   C4A 5226  11.065   3.998   8.530  0.2659  0.2273  0.0566
  327loPI   C5A 5227  11.342   3.723   8.491 -0.0837 -0.2331 -0.1095
  327loPI   C6A 5228  11.701   3.600   8.421  0.3500 -0.2196 -0.0889
  327loPI   C1B 5229  11.080   4.784   9.972 -0.0870 -0.1214 -0.0138
  327loPI   C2B 5230  11.064   4.822   9.546  0.1013  0.2673  0.1026
  327loPI   C3B 5231  10.931   4.703   9.103  0.1696  0.2687 -0.0129
  327loPI   C4B 5232  10.865   4.564   8.699  0.0185  0.1817 -0.0269
  328loPI    C1 5233   2.820   1.711   9.934  0.0801 -0.3321 -0.1728
  328loPI    C2 5234   2.756   1.612  10.316 -0.0933  0.2429 -0.0434
  328loPI    C3 5235   3.095   1.795  10.211 -0.0082  0.0086 -0.1841
  328loPI   PO4 5236   2.626   1.583   9.821 -0.2373 -0.0883 -0.0324
  328loPI   GL1 5237   2.491   1.411   9.422 -0.1039  0.2607 -0.2075
  328loPI   GL2 5238   2.236   1.697   9.529  0.4654  0.0204  0.1035
  328loPI   C1A 5239   2.486   1.459   8.985  0.2023 -0.1221  0.0767
  328loPI   C2A 5240   2.393   1.406   8.552  0.1137  0.2055  0.0048
  328loPI   C3A 5241   2.165   1.154   8.215 -0.3294  0.0001  0.3231
  328loPI   C4A 5242   2.124   0.792   8.135  0.1278 -0.0380 -0.1006
  328loPI   C5A 5243   2.196   0.402   7.906  0.1333  0.0562  0.2036
  328loPI   C6A 5244   2.299   0.095   7.802  0.3751 -0.3346  0.3520
  328loPI   C1B 5245   1.955   1.569   9.285  0.0419 -0.3207  0.0058
  328loPI   C2B 5246   1.970   1.584   8.869 -0.2448 -0.0978  0.0800
  328loPI   C3B 5247   1.910   1.548   8.454  0.2621  0.0640  0.3812
  328loPI   C4B 5248   1.934   1.575   8.033  0.1195  0.0295 -0.0608
  329loPI    C1 5249  16.746  13.086  10.860 -0.0793  0.0348 -0.1202
  329loPI    C2 5250  16.446  13.045  11.121 -0.1417  0.1220 -0.1778
  329loPI    C3 5251  16.823  12.980  11.238 -0.1691  0.1625 -0.0655
  329loPI   PO4 5252  16.574  12.965  10.606  0.0184 -0.1250  0.1508
  329loPI   GL1 5253  16.757  12.735  10.284  0.0141 -0.1475 -0.0213
  329loPI   GL2 5254  16.745  12.384  10.234 -0.1639 -0.0193  0.2005
  329loPI   C1A 5255  16.463  12.800   9.963  0.1485  0.1026  0.1249
  329loPI   C2A 5256  16.116  13.062   9.848 -0.0066  0.3106  0.3006
  329loPI   C3A 5257  16.145  13.168   9.418 -0.1183  0.0671 -0.1268
  329loPI   C4A 5258  16.417  13.186   9.006 -0.0224 -0.1642 -0.2112
  329loPI   C5A 5259  16.885  12.971   8.900  0.0484 -0.0721 -0.1946
  329loPI   C6A 5260  17.084  12.532   8.739 -0.0458 -0.2037 -0.0951
  329loPI   C1B 5261  16.835  12.518   9.723 -0.0082  0.1081 -0.2192
  329loPI   C2B 5262  16.852  12.332   9.356  0.1024 -0.0298  0.0546
  329loPI   C3B 5263  17.097  12.197   9.053  0.1757 -0.1401 -0.0667
  329loPI   C4B 5264  17.371  12.047   8.747 -0.2324 -0.0265 -0.0391
  330loPI    C1 5265  12.235  14.574  10.813  0.1246 -0.0264 -0.3454
  330loPI    C2 5266  11.839  14.623  10.790  0.1049  0.1664  0.2360
  330loPI    C3 5267  11.991  14.263  10.872  0.0306  0.1647  0.3689
  330loPI   PO4 5268  12.334  14.682  10.567 -0.1328  0.1924  0.0135
  330loPI   GL1 5269  12.628  14.655  10.141 -0.0852 -0.1183 -0.0366
  330loPI   GL2 5270  12.523  14.376   9.898  0.0894 -0.0988  0.1868
  330loPI   C1A 5271  12.698  14.869   9.766 -0.1119  0.2778  0.0773
  330loPI   C2A 5272  12.780  14.907   9.338 -0.2068  0.0380 -0.1987
  330loPI   C3A 5273  12.968  14.891   8.945 -0.0788 -0.4609 -0.0985
  330loPI   C4A 5274  12.924  14.916   8.516  0.1036  0.1829  0.1202
  330loPI   C5A 5275  13.112  15.222   8.153 -0.1464  0.1150  0.0984
  330loPI   C6A 5276  12.929  15.291   7.657 -0.1660 -0.1030  0.0550
  330loPI   C1B 5277  12.523  14.517   9.487  0.4315 -0.3412  0.1027
  330loPI   C2B 5278  12.511  14.545   8.996 -0.3178  0.0767 -0.1912
  330loPI   C3B 5279  12.612  14.510   8.562 -0.0971 -0.2619 -0.0808
  330loPI   C4B 5280  12.957  14.281   8.289 -0.1321 -0.0103  0.3356
  331loPI    C1 5281   6.573   6.459  10.110  0.0002 -0.1334 -0.0999
  331loPI    C2 5282   6.330   6.295   9.837  0.0472 -0.2609 -0.0655
  331loPI    C3 5283   6.223   6.302  10.222 -0.1582  0.1933 -0.1250
  331loPI   PO4 5284   6.679   6.636  10.035 -0.2080  0.2938 -0.2565
  331loPI   GL1 5285   6.884   6.437   9.672  0.3198 -0.1452  0.1902
  331loPI   GL2 5286   6.932   6.138   9.858 -0.0957  0.0714  0.2185
  331loPI   C1A 5287   6.607   6.437   9.377  0.1758 -0.1042 -0.3091
  331loPI   C2A 5288   6.656   6.444   8.908 -0.0667 -0.0394  0.1153
  331loPI   C3A 5289   6.531   6.139   8.542  0.1215  0.0636  0.0237
  331loPI   C4A 5290   6.626   5.828   8.189 -0.2189 -0.0767 -0.0944
  331loPI   C5A 5291   6.880   5.740   7.894  0.3021 -0.0178  0.3051
  331loPI   C6A 5292   7.041   5.510   7.518 -0.0027 -0.2464 -0.0581
  331loPI   C1B 5293   6.726   5.998   9.469  0.0766  0.1497  0.0963
  331loPI   C2B 5294   6.867   6.030   9.029  0.0791  0.0889  0.0081
  331loPI   C3B 5295   6.988   6.023   8.606 -0.1445  0.1248  0.2541
  331loPI   C4B 5296   6.995   6.145   8.183  0.0365  0.1326 -0.1790
  332loPI    C1 5297   4.633   8.747  10.503 -0.0018 -0.1387 -0.0436
  332loPI    C2 5298   4.595   9.105  10.678  0.0537 -0.0859 -0.1384
  332loPI    C3 5299   4.270   8.891  10.588  0.0328 -0.2610  0.3261
  332loPI   PO4 5300   4.771   8.687  10.242  0.0439 -0.1363 -0.1564
  332loPI   GL1 5301   4.702   8.618   9.872  0.1433 -0.1091 -0.4065
  332loPI   GL2 5302   4.516   8.423   9.872 -0.0514  0.0179  0.1047
  332loPI   C1A 5303   4.610   8.745   9.511 -0.1175  0.0581  0.0851
  332loPI   C2A 5304   4.751   8.583   9.179 -0.2885 -0.0578  0.0014
  332loPI   C3A 5305   5.003   8.146   9.136 -0.1370 -0.4036 -0.0854
  332loPI   C4A 5306   5.167   7.864   8.866 -0.3722  0.3418 -0.1378
  332loPI   C5A 5307   5.196   7.831   8.470  0.1181  0.0768 -0.1110
  332loPI   C6A 5308   5.445   7.629   8.092 -0.0889 -0.0984 -0.0980
  332loPI   C1B 5309   4.542   8.261   9.481  0.0837 -0.1751 -0.1962
  332loPI   C2B 5310   4.466   8.056   9.071 -0.0280  0.0394 -0.0159
  332loPI   C3B 5311   4.566   8.144   8.779  0.1587 -0.2764  0.3833
  332loPI   C4B 5312   4.503   8.134   8.455  0.0243 -0.0974  0.0777
  333loPI    C1 5313   6.898  13.927  10.039  0.0297 -0.0964  0.1682
  333loPI    C2 5314   6.513  14.023  10.090 -0.0637 -0.3461 -0.0433
  333loPI    C3 5315   6.799  14.282  10.195 -0.2917 -0.1029 -0.0118
  333loPI   PO4 5316   6.946  13.871   9.818 -0.3873 -0.0946  0.2245
  333loPI   GL1 5317   6.713  13.772   9.449 -0.0456 -0.2020 -0.1090
  333loPI   GL2 5318   6.464  13.681   9.542 -0.0871 -0.0021 -0.0426
  333loPI   C1A 5319   6.657  13.667   8.925  0.0839 -0.0089  0.1565
  333loPI   C2A 5320   6.604  13.695   8.576  0.1759 -0.1976  0.2052
  333loPI   C3A 5321   6.637  13.571   8.155 -0.1265 -0.4297  0.0828
  333loPI   C4A 5322   6.786  13.843   7.819 -0.2869 -0.0286 -0.0814
  333loPI   C5A 5323   7.059  14.217   7.839 -0.1422 -0.1748  0.2503
  333loPI   C6A 5324   7.142  14.541   7.524  0.0435 -0.2103 -0.1888
  333loPI   C1B 5325   6.507  14.152   9.182  0.0710  0.0245 -0.1507
  333loPI   C2B 5326   6.609  14.163   8.765 -0.0382 -0.0345 -0.0404
  333loPI   C3B 5327   6.450  14.197   8.376  0.1016  0.0819 -0.0371
  333loPI   C4B 5328   6.204  14.481   8.076  0.1599  0.1463 -0.1933
  334loPI    C1 5329   0.708  12.566  10.619 -0.2133  0.1502  0.0494
  334loPI    C2 5330   0.831  12.408  10.965 -0.3315 -0.1079 -0.0239
  334loPI    C3 5331   0.494  12.623  10.952 -0.2202  0.0740  0.0581
  334loPI   PO4 5332   0.879  12.696  10.464  0.1013  0.0789 -0.2544
  334loPI   GL1 5333   0.891  12.924  10.146  0.1231 -0.2658  0.2434
  334loPI   GL2 5334   1.096  12.714  10.072  0.1285 -0.0005 -0.0381
  334loPI   C1A 5335   0.747  12.801   9.706  0.2001 -0.2055  0.0408
  334loPI   C2A 5336   0.801  12.801   9.234  0.2991  0.2015  0.2202
  334loPI   C3A 5337   0.781  12.851   8.727 -0.0835  0.0560 -0.1465
  334loPI   C4A 5338   0.841  13.038   8.321  0.1819 -0.2600 -0.0626
  334loPI   C5A 5339   0.752  13.504   8.245  0.0058  0.2687  0.0311
  334loPI   C6A 5340   0.725  13.872   8.010 -0.0359  0.1835  0.3235
  334loPI   C1B 5341   1.423  12.754   9.632  0.1504 -0.3207  0.2117
  334loPI   C2B 5342   1.353  12.755   9.218  0.1117  0.1779  0.2238
  334loPI   C3B 5343   1.370  12.594   8.798  0.0313 -0.0394 -0.1232
  334loPI   C4B 5344   1.239  12.765   8.338  0.3319 -0.1149 -0.2203
  335loPI    C1 5345  15.346   7.386  10.555 -0.3136 -0.0354 -0.0283
  335loPI    C2 5346  15.717   7.242  10.506 -0.1235  0.3927  0.1068
  335loPI    C3 5347  15.447   7.033  10.714 -0.0605 -0.0735 -0.2638
  335loPI   PO4 5348  15.273   7.538  10.383 -0.0195 -0.0025 -0.0434
  335loPI   GL1 5349  15.383   7.855  10.022 -0.0967  0.1068  0.0137
  335loPI   GL2 5350  15.590   7.583   9.981  0.1464  0.0400 -0.0718
  335loPI   C1A 5351  15.297   8.063   9.672 -0.1142 -0.2214 -0.0401
  335loPI   C2A 5352  15.267   8.067   9.181  0.2003 -0.0745 -0.0223
  335loPI   C3A 5353  15.341   7.868   8.773 -0.1934 -0.0022  0.0704
  335loPI   C4A 5354  15.611   7.714   8.443  0.1831  0.1230  0.0300
  335loPI   C5A 5355  15.998   7.904   8.364 -0.0226 -0.1562 -0.0652
  335loPI   C6A 5356  16.501   7.938   8.298 -0.0239  0.0000  0.1670
  335loPI   C1B 5357  15.411   7.599   9.567 -0.2906  0.0124 -0.3515
  335loPI   C2B 5358  15.105   7.616   9.115  0.0871  0.0699 -0.1061
  335loPI   C3B 5359  15.256   7.385   8.718  0.0869  0.2791 -0.2428
  335loPI   C4B 5360  15.513   7.167   8.363  0.0841 -0.1994 -0.0097
  336loPI    C1 5361   6.479  12.697   9.821  0.1244 -0.1574  0.2058
  336loPI    C2 5362   6.184  12.498   9.640  0.2065 -0.0311 -0.0715
  336loPI    C3 5363   6.450  12.300   9.863  0.0561 -0.1774 -0.0197
  336loPI   PO4 5364   6.457  13.039   9.734  0.3467  0.1663  0.4386
  336loPI   GL1 5365   6.189  13.066   9.361 -0.1531 -0.1206  0.1983
  336loPI   GL2 5366   6.309  12.764   9.242 -0.1279 -0.0775 -0.0742
  336loPI   C1A 5367   5.996  13.307   9.072 -0.1563  0.0258  0.3102
  336loPI   C2A 5368   6.022  13.394   8.667 -0.0853  0.1496  0.1827
  336loPI   C3A 5369   6.199  13.524   8.374 -0.1286  0.0954  0.1098
  336loPI   C4A 5370   6.247  13.823   7.908  0.0129 -0.1171 -0.1948
  336loPI   C5A 5371   6.312  14.204   7.618 -0.0375 -0.0420 -0.0179
  336loPI   C6A 5372   6.578  14.533   7.692 -0.2746 -0.2441 -0.1631
  336loPI   C1B 5373   6.067  12.842   8.889 -0.0713 -0.0193  0.3588
  336loPI   C2B 5374   6.060  12.874   8.497 -0.1219 -0.2705 -0.1371
  336loPI   C3B 5375   6.108  13.143   8.127  0.1031  0.3041 -0.1326
  336loPI   C4B 5376   6.073  13.350   7.764  0.1065  0.2805 -0.0754
  337loPI    C1 5377  16.771  16.902  11.083  0.2364  0.0629 -0.1140
  337loPI    C2 5378  16.951  16.559  11.181  0.1317 -0.0208 -0.2116
  337loPI    C3 5379  17.053  16.898  11.367  0.0755 -0.1431  0.0457
  337loPI   PO4 5380  16.778  16.907  10.842  0.2287 -0.0877 -0.2991
  337loPI   GL1 5381  16.809  16.743  10.454 -0.0357 -0.0439 -0.0170
  337loPI   GL2 5382  16.695  16.493  10.507 -0.3393  0.4483  0.0097
  337loPI   C1A 5383  17.115  16.888  10.115 -0.1299 -0.1973  0.0104
  337loPI   C2A 5384  17.372  16.820   9.781 -0.0525 -0.1096  0.1772
  337loPI   C3A 5385  17.536  16.837   9.332 -0.0064 -0.0870  0.1021
  337loPI   C4A 5386  17.423  17.108   9.023 -0.1470 -0.0220 -0.2074
  337loPI   C5A 5387  17.211  17.107   8.680 -0.1283  0.0809  0.0389
  337loPI   C6A 5388  17.098  16.838   8.514 -0.4272  0.2237  0.3734
  337loPI   C1B 5389  16.645  16.532  10.053 -0.1149  0.3049 -0.1832
  337loPI   C2B 5390  16.899  16.489   9.694 -0.3045  0.0539  0.1177
  337loPI   C3B 5391  16.974  16.292   9.349  0.2104 -0.2767 -0.1356
  337loPI   C4B 5392  17.024  16.073   8.975 -0.1935 -0.0523 -0.2901
  338loPI    C1 5393  14.841  16.471  10.882 -0.0147  0.0531 -0.1295
  338loPI    C2 5394  14.947  16.717  11.180  0.0686  0.0776 -0.1788
  338loPI    C3 5395  14.570  16.584  11.154  0.1113 -0.0967  0.0613
  338loPI   PO4 5396  14.958  16.630  10.681 -0.4498  0.2232 -0.1310
  338loPI   GL1 5397  14.935  16.890  10.349 -0.2924  0.2136 -0.0447
  338loPI   GL2 5398  14.639  16.894  10.235  0.0226 -0.0528 -0.1041
  338loPI   C1A 5399  15.072  16.982   9.997 -0.0266 -0.1131 -0.2576
  338loPI   C2A 5400  15.084  17.112   9.580  0.0525  0.1306 -0.2625
  338loPI   C3A 5401  14.945  16.939   9.217  0.0598  0.1222 -0.1045
  338loPI   C4A 5402  14.768  16.653   8.956 -0.0294  0.1076  0.0552
  338loPI   C5A 5403  14.629  16.511   8.583 -0.1648  0.1071 -0.0204
  338loPI   C6A 5404  14.743  16.494   8.220  0.2054  0.2271  0.1853
  338loPI   C1B 5405  14.325  16.832   9.884  0.1496 -0.3533  0.0242
  338loPI   C2B 5406  13.935  16.947   9.719 -0.0997 -0.0755  0.6294
  338loPI   C3B 5407  13.688  17.106   9.350  0.0751  0.2258  0.2723
  338loPI   C4B 5408  13.318  17.132   9.026 -0.1026  0.2760  0.2252
  339POPI    C1 5409   2.684  17.437  10.375  0.0379 -0.2216 -0.2591
  339POPI    C2 5410   3.046  17.595  10.441 -0.0619 -0.0484 -0.1136
  339POPI    C3 5411   2.979  17.208  10.518  0.0406 -0.0357  0.0439
  339POPI   PO4 5412   2.591  17.723  10.320 -0.0298  0.1574  0.2067
  339POPI   GL1 5413   2.402  18.099  10.138  0.0852 -0.0621 -0.2728
  339POPI   GL2 5414   2.122  18.194  10.028  0.0843 -0.2466 -0.0827
  339POPI   C1A 5415   2.576  17.941   9.643 -0.0768 -0.0512  0.2619
  339POPI   D2A 5416   2.794  17.675   9.351 -0.0103 -0.0051  0.6645
  339POPI   C3A 5417   2.616  17.708   8.886 -0.0958 -0.1611  0.1311
  339POPI   C4A 5418   2.251  17.479   8.648  0.3032  0.5137  0.2403
  339POPI   C1B 5419   2.100  17.798   9.885  0.0140 -0.2266  0.0088
  339POPI   C2B 5420   1.799  17.477   9.538  0.1200 -0.1335 -0.0803
  339POPI   C3B 5421   1.624  17.233   9.238 -0.2096 -0.1519  0.0651
  339POPI   C4B 5422   1.366  17.126   8.815  0.1975 -0.0229 -0.1104
  340POPI    C1 5423   9.636  10.494  10.209  0.0040  0.0733  0.5108
  340POPI    C2 5424   9.255  10.529  10.092  0.1358 -0.1206  0.0003
  340POPI    C3 5425   9.388  10.741  10.404 -0.3354  0.1011  0.0595
  340POPI   PO4 5426   9.791  10.642   9.974 -0.2681 -0.1391  0.2369
  340POPI   GL1 5427   9.875  10.828   9.581 -0.1446 -0.0860  0.2762
  340POPI   GL2 5428  10.049  11.088   9.756 -0.1303 -0.0863  0.0747
  340POPI   C1A 5429  10.002  10.759   9.254  0.0460  0.5154  0.1096
  340POPI   D2A 5430   9.996  10.769   8.869  0.0663  0.0117  0.0243
  340POPI   C3A 5431  10.265  10.719   8.529 -0.1598 -0.0792 -0.2264
  340POPI   C4A 5432  10.265  11.027   8.244  0.0637 -0.2365  0.1087
  340POPI   C1B 5433  10.294  11.164   9.398  0.0819 -0.2431  0.1424
  340POPI   C2B 5434  10.361  11.044   9.072  0.3066 -0.1225 -0.0149
  340POPI   C3B 5435  10.317  11.220   8.682 -0.1075  0.0561  0.2812
  340POPI   C4B 5436  10.318  11.504   8.382  0.0113  0.0099  0.1035
  341POPI    C1 5437   5.684  14.067  10.176 -0.0957 -0.0023 -0.1043
  341POPI    C2 5438   6.066  14.182  10.202 -0.0679 -0.0894 -0.1259
  341POPI    C3 5439   5.903  13.961  10.493 -0.1634  0.1268 -0.0131
  341POPI   PO4 5440   5.642  14.010   9.908 -0.1893 -0.0597  0.1241
  341POPI   GL1 5441   5.681  13.636   9.596  0.0994 -0.1783  0.0503
  341POPI   GL2 5442   5.884  13.492   9.536 -0.0165 -0.2304  0.0823
  341POPI   C1A 5443   5.605  13.770   9.200 -0.0583  0.2897  0.1408
  341POPI   D2A 5444   5.376  14.078   9.129 -0.0676 -0.0153 -0.1617
  341POPI   C3A 5445   5.353  14.290   8.852  0.0817  0.1556 -0.0649
  341POPI   C4A 5446   5.396  14.600   8.594 -0.1668 -0.0862 -0.4188
  341POPI   C1B 5447   6.116  13.799   9.193  0.2207 -0.2169 -0.0417
  341POPI   C2B 5448   6.146  13.920   8.681  0.1302 -0.3301  0.2138
  341POPI   C3B 5449   5.979  13.981   8.277 -0.1867 -0.0593  0.2273
  341POPI   C4B 5450   5.756  14.046   7.915  0.0318 -0.1323 -0.0453
  342POPI    C1 5451   4.201   5.046  10.164 -0.2584 -0.0169  0.1046
  342POPI    C2 5452   4.566   5.075  10.326 -0.0976 -0.1284 -0.2280
  342POPI    C3 5453   4.241   5.101  10.559  0.1195 -0.0107  0.0692
  342POPI   PO4 5454   4.218   4.968   9.936 -0.3672  0.1350  0.0920
  342POPI   GL1 5455   4.342   4.590   9.599  0.1224 -0.2849  0.0761
  342POPI   GL2 5456   4.371   4.242   9.680 -0.0596 -0.3451 -0.4332
  342POPI   C1A 5457   4.140   4.425   9.265 -0.3179  0.0535 -0.0362
  342POPI   D2A 5458   4.012   4.191   8.882 -0.2537 -0.1631  0.1500
  342POPI   C3A 5459   4.020   4.376   8.477  0.0376 -0.0494  0.0660
  342POPI   C4A 5460   3.950   4.384   8.042 -0.2996  0.1709  0.2072
  342POPI   C1B 5461   4.327   3.974   9.315 -0.1083 -0.0551 -0.1615
  342POPI   C2B 5462   4.658   3.871   9.261 -0.0775  0.0004 -0.1385
  342POPI   C3B 5463   4.876   3.874   8.920  0.3249  0.4084  0.4900
  342POPI   C4B 5464   4.921   4.013   8.584 -0.1025  0.0154 -0.0040
  343POPI    C1 5465  18.065  15.678  10.638  0.1092  0.0411 -0.0441
  343POPI    C2 5466  18.001  15.502  10.991  0.0422  0.0125 -0.0705
  343POPI    C3 5467  17.879  15.878  10.931 -0.0931 -0.0379 -0.1171
  343POPI   PO4 5468  18.330  15.593  10.579 -0.1882 -0.1276 -0.1478
  343POPI   GL1 5469  18.365  15.370  10.238  0.0348 -0.1349  0.0531
  343POPI   GL2 5470  18.062  15.475  10.153  0.1171  0.0024  0.0685
  343POPI   C1A 5471  18.774  15.216   9.977 -0.0312 -0.2733  0.0884
  343POPI   D2A 5472  18.915  15.040   9.585 -0.0773 -0.0907  0.2099
  343POPI   C3A 5473  18.827  15.081   9.164  0.0775 -0.0362 -0.3012
  343POPI   C4A 5474  18.998  15.343   8.874  0.0536 -0.2087 -0.0204
  343POPI   C1B 5475  17.824  15.377   9.760  0.2384 -0.0745  0.2299
  343POPI   C2B 5476  18.031  15.412   9.357 -0.0003  0.0803 -0.1079
  343POPI   C3B 5477  17.890  15.579   8.905  0.3173  0.0242  0.2726
  343POPI   C4B 5478  17.677  15.858   8.549  0.0553  0.0090  0.5078
  344POPI    C1 5479  14.196   3.446  10.619  0.0313  0.0420 -0.1208
  344POPI    C2 5480  14.555   3.286  10.691 -0.0083 -0.1000 -0.2328
  344POPI    C3 5481  14.255   3.226  10.948  0.0579  0.0536 -0.1179
  344POPI   PO4 5482  14.245   3.590  10.352 -0.2422  0.2921  0.0539
  344POPI   GL1 5483  14.373   3.473   9.972 -0.0650  0.3089 -0.1944
  344POPI   GL2 5484  14.710   3.373  10.117  0.1123  0.0595  0.0325
  344POPI   C1A 5485  14.119   3.555   9.582  0.3185  0.2170  0.1086
  344POPI   D2A 5486  14.279   3.738   9.220 -0.1570  0.1167 -0.0933
  344POPI   C3A 5487  14.096   3.873   8.811  0.0347  0.0055  0.1945
  344POPI   C4A 5488  13.930   3.736   8.405 -0.1962  0.0940  0.1696
  344POPI   C1B 5489  15.002   3.441   9.785  0.0554 -0.4452 -0.0999
  344POPI   C2B 5490  14.982   3.339   9.264  0.1481  0.2994 -0.0107
  344POPI   C3B 5491  15.062   3.428   8.838  0.0592 -0.3029  0.1250
  344POPI   C4B 5492  15.344   3.500   8.542 -0.0627  0.1133 -0.1261
  345POPI    C1 5493   1.997   5.093  10.296  0.1083  0.1043 -0.1123
  345POPI    C2 5494   1.722   4.932  10.538  0.1377  0.0601 -0.1080
  345POPI    C3 5495   1.762   5.330  10.517  0.0977  0.0656 -0.0819
  345POPI   PO4 5496   1.950   4.880  10.101  0.0448  0.2085  0.0782
  345POPI   GL1 5497   1.770   4.838   9.735  0.0644 -0.1444  0.1884
  345POPI   GL2 5498   1.634   4.980   9.496 -0.0386 -0.1460  0.0340
  345POPI   C1A 5499   1.901   4.549   9.556  0.2882  0.2851 -0.0745
  345POPI   D2A 5500   2.274   4.230   9.572 -0.2433  0.1381  0.0208
  345POPI   C3A 5501   2.564   3.984   9.547  0.2516  0.0739  0.2865
  345POPI   C4A 5502   2.782   3.638   9.483  0.0326  0.1867 -0.1767
  345POPI   C1B 5503   1.677   4.955   9.093 -0.1957 -0.1361  0.2470
  345POPI   C2B 5504   1.911   4.748   8.772  0.1888  0.0943  0.0863
  345POPI   C3B 5505   2.423   4.865   8.662  0.0829 -0.3745  0.0384
  345POPI   C4B 5506   2.763   5.132   8.627  0.2427  0.0491  0.4169
  346POPI    C1 5507   5.722   7.239  10.185 -0.0327  0.1775 -0.1084
  346POPI    C2 5508   5.452   7.514  10.293 -0.0893 -0.0241  0.2810
  346POPI    C3 5509   5.830   7.543  10.422  0.0256  0.1333 -0.0782
  346POPI   PO4 5510   5.731   7.241   9.917 -0.0593  0.0499 -0.2059
  346POPI   GL1 5511   5.542   7.271   9.508 -0.2824  0.0023  0.2510
  346POPI   GL2 5512   5.364   7.029   9.463 -0.0325 -0.1563  0.0148
  346POPI   C1A 5513   5.752   7.206   9.189  0.1202  0.2183 -0.1980
  346POPI   D2A 5514   5.778   7.013   8.813 -0.1617  0.0661  0.2017
  346POPI   C3A 5515   5.378   6.865   8.550  0.2537  0.3838  0.4641
  346POPI   C4A 5516   5.029   6.650   8.380 -0.0338  0.0165 -0.1276
  346POPI   C1B 5517   5.360   6.816   9.048 -0.0195 -0.1558  0.0035
  346POPI   C2B 5518   5.633   6.486   8.883 -0.0760 -0.0558  0.1856
  346POPI   C3B 5519   5.991   6.170   8.944 -0.2033 -0.0569  0.0027
  346POPI   C4B 5520   6.379   6.125   9.061 -0.0366 -0.1470  0.0863
  347POPI    C1 5521  14.744   1.668  10.580  0.2499 -0.0739 -0.2307
  347POPI    C2 5522  14.924   1.374  10.782  0.0679 -0.0248  0.0070
  347POPI    C3 5523  14.536   1.344  10.689  0.1094  0.0298 -0.1875
  347POPI   PO4 5524  14.913   1.704  10.362 -0.2325 -0.0345  0.0824
  347POPI   GL1 5525  15.079   1.737  10.038 -0.3348  0.1377 -0.3313
  347POPI   GL2 5526  15.069   2.122  10.085  0.1012  0.2063  0.0832
  347POPI   C1A 5527  14.857   1.562   9.729  0.0348 -0.2589 -0.0104
  347POPI   D2A 5528  14.597   1.541   9.437  0.1973 -0.4753  0.1064
  347POPI   C3A 5529  14.722   1.712   9.041  0.1413 -0.1808  0.0734
  347POPI   C4A 5530  14.881   1.999   8.703  0.3000  0.0884  0.2172
  347POPI   C1B 5531  15.333   2.002   9.702 -0.2051 -0.0982 -0.0456
  347POPI   C2B 5532  15.587   1.989   9.355 -0.0336 -0.1564  0.2319
  347POPI   C3B 5533  15.777   2.047   8.941 -0.1215 -0.1756 -0.0385
  347POPI   C4B 5534  15.802   1.928   8.481  0.2051  0.2677 -0.0374
  348POPI    C1 5535   8.497  13.619   9.669  0.0254 -0.1078 -0.0502
  348POPI    C2 5536   8.312  13.399   9.946 -0.3681  0.0102 -0.2129
  348POPI    C3 5537   8.582  13.672  10.056  0.1437 -0.5544 -0.0086
  348POPI   PO4 5538   8.175  13.661   9.492  0.0474  0.0396  0.1042
  348POPI   GL1 5539   7.888  14.042   9.431 -0.3333  0.0187 -0.0865
  348POPI   GL2 5540   8.196  14.279   9.523 -0.0357  0.0649 -0.1731
  348POPI   C1A 5541   7.934  13.925   9.002 -0.1341  0.2338 -0.1343
  348POPI   D2A 5542   7.902  13.634   8.660  0.0646  0.2017 -0.1755
  348POPI   C3A 5543   7.899  13.823   8.288  0.0318  0.1892 -0.0556
  348POPI   C4A 5544   8.055  13.739   7.840  0.2694  0.3174  0.0275
  348POPI   C1B 5545   8.090  14.413   9.131  0.1651  0.0832  0.0844
  348POPI   C2B 5546   8.162  14.304   8.699  0.2203 -0.1014  0.2144
  348POPI   C3B 5547   8.153  14.343   8.316  0.3181  0.3101  0.1759
  348POPI   C4B 5548   7.945  14.285   7.919 -0.0620 -0.3203  0.3491
  349POPI    C1 5549   7.038  12.598  10.182 -0.2823 -0.4738 -0.4597
  349POPI    C2 5550   6.666  12.491  10.284 -0.2994  0.0534  0.0878
  349POPI    C3 5551   6.979  12.347  10.488 -0.2208 -0.1186 -0.1491
  349POPI   PO4 5552   7.041  12.585   9.941  0.0066 -0.1906  0.0282
  349POPI   GL1 5553   6.994  12.796   9.563 -0.2130  0.2679 -0.0658
  349POPI   GL2 5554   6.780  12.867   9.364  0.2345  0.0427 -0.0999
  349POPI   C1A 5555   7.294  12.457   9.315  0.3489  0.3437  0.3501
  349POPI   D2A 5556   7.380  11.958   9.304  0.3816  0.0161 -0.2694
  349POPI   C3A 5557   7.260  11.691   8.992 -0.3044 -0.0000  0.1112
  349POPI   C4A 5558   7.130  11.772   8.524 -0.2936 -0.0495 -0.1153
  349POPI   C1B 5559   6.603  12.711   8.887  0.0150  0.1085 -0.3133
  349POPI   C2B 5560   6.603  12.555   8.539 -0.0196  0.1272  0.0254
  349POPI   C3B 5561   6.398  12.728   8.168 -0.0962  0.3094 -0.0243
  349POPI   C4B 5562   6.408  12.961   7.731  0.1954 -0.1793 -0.1221
  350POPI    C1 5563  15.577  15.310  11.053  0.0674  0.0456  0.0166
  350POPI    C2 5564  15.771  15.200  11.385  0.0892 -0.1566 -0.0619
  350POPI    C3 5565  15.415  15.039  11.300 -0.0998  0.1847  0.0625
  350POPI   PO4 5566  15.686  15.560  11.058 -0.1446  0.0917 -0.0468
  350POPI   GL1 5567  15.752  15.484  10.602 -0.5852  0.1029  0.1119
  350POPI   GL2 5568  15.557  15.187  10.461  0.1917  0.1616 -0.0001
  350POPI   C1A 5569  16.092  15.504  10.281  0.0205  0.0475  0.1626
  350POPI   D2A 5570  16.103  15.421   9.875  0.4885 -0.0994  0.1078
  350POPI   C3A 5571  15.958  15.311   9.401 -0.0490 -0.1063 -0.0456
  350POPI   C4A 5572  15.874  15.429   9.001  0.0074 -0.0270 -0.1448
  350POPI   C1B 5573  15.276  15.458  10.227  0.0218  0.2162 -0.2224
  350POPI   C2B 5574  15.234  15.403   9.740 -0.0452  0.2277  0.0659
  350POPI   C3B 5575  15.066  15.348   9.351  0.0987  0.3683  0.1067
  350POPI   C4B 5576  15.373  15.168   9.007 -0.2736  0.2397  0.0726
  351POPI    C1 5577   8.926   4.446  10.907  0.2200  0.0125 -0.2039
  351POPI    C2 5578   8.996   4.074  11.037 -0.0660  0.0120 -0.0424
  351POPI    C3 5579   8.641   4.245  11.104  0.0937  0.3489 -0.0368
  351POPI   PO4 5580   8.992   4.426  10.678 -0.0895 -0.1632 -0.0934
  351POPI   GL1 5581   8.783   4.159  10.308 -0.0029 -0.1861 -0.2593
  351POPI   GL2 5582   8.474   4.274  10.153  0.1277 -0.0223  0.0345
  351POPI   C1A 5583   9.003   4.431  10.037 -0.1120 -0.2960 -0.0685
  351POPI   D2A 5584   9.057   4.750   9.762 -0.1762 -0.0134  0.1891
  351POPI   C3A 5585   8.715   4.585   9.497 -0.0752 -0.0770  0.0970
  351POPI   C4A 5586   8.449   4.706   9.304  0.1076  0.0674 -0.1446
  351POPI   C1B 5587   8.633   4.157   9.708 -0.2902 -0.3021 -0.0319
  351POPI   C2B 5588   8.468   4.125   9.375 -0.1466 -0.0902  0.2176
  351POPI   C3B 5589   8.098   4.386   9.298  0.0353  0.1456 -0.1333
  351POPI   C4B 5590   7.999   4.820   9.476 -0.0702  0.0599  0.1485
  352POPI    C1 5591  13.392  13.368  10.594 -0.1018 -0.1167 -0.0143
  352POPI    C2 5592  13.015  13.500  10.613 -0.0696 -0.0555  0.2471
  352POPI    C3 5593  13.244  13.505  10.940  0.1787 -0.0335  0.0752
  352POPI   PO4 5594  13.454  13.467  10.358  0.1163 -0.0018 -0.2042
  352POPI   GL1 5595  13.642  13.826  10.212 -0.0283  0.0646 -0.3384
  352POPI   GL2 5596  13.581  14.189  10.273  0.1555  0.2464 -0.0027
  352POPI   C1A 5597  13.545  14.137   9.727  0.2806  0.0123  0.1380
  352POPI   D2A 5598  13.528  14.046   9.343 -0.1285  0.2794  0.0689
  352POPI   C3A 5599  13.484  14.313   8.967 -0.1018 -0.2803 -0.0590
  352POPI   C4A 5600  13.710  14.361   8.650 -0.3287 -0.2423 -0.1252
  352POPI   C1B 5601  13.982  14.221  10.000 -0.0383 -0.1622  0.0487
  352POPI   C2B 5602  14.318  14.444   9.820  0.1717  0.0404  0.1653
  352POPI   C3B 5603  14.294  14.715   9.412 -0.1252  0.2688 -0.0151
  352POPI   C4B 5604  14.099  14.576   9.037 -0.1140 -0.2380  0.1336
  353POPI    C1 5605  13.058  14.075  10.515  0.1686  0.0551 -0.0556
  353POPI    C2 5606  12.962  13.976  10.890 -0.0323  0.0133 -0.1167
  353POPI    C3 5607  13.228  14.266  10.822 -0.1054  0.1228  0.0573
  353POPI   PO4 5608  13.149  13.914  10.359 -0.0398 -0.0814 -0.0262
  353POPI   GL1 5609  13.181  13.841  10.025 -0.0260 -0.0964  0.1403
  353POPI   GL2 5610  12.933  13.896   9.794 -0.0860 -0.0189  0.0799
  353POPI   C1A 5611  13.447  13.616   9.735 -0.1804 -0.0987  0.0781
  353POPI   D2A 5612  13.465  13.486   9.286  0.0320 -0.3146 -0.0848
  353POPI   C3A 5613  13.683  13.531   8.965 -0.0156 -0.0565 -0.2236
  353POPI   C4A 5614  13.774  13.786   8.599 -0.4807 -0.3733  0.0282
  353POPI   C1B 5615  13.090  13.786   9.389 -0.0151 -0.0695  0.0720
  353POPI   C2B 5616  13.168  13.873   8.988 -0.2964 -0.0915  0.0682
  353POPI   C3B 5617  13.328  14.030   8.639  0.0868  0.0901  0.1196
  353POPI   C4B 5618  13.439  13.924   8.205 -0.0686  0.2476  0.0482
  354POPI    C1 5619   0.137  13.636  10.642 -0.2022  0.3708  0.2034
  354POPI    C2 5620  -0.114  13.427  10.873  0.0806  0.0784  0.2547
  354POPI    C3 5621   0.251  13.520  11.008  0.2137 -0.0104 -0.0358
  354POPI   PO4 5622  -0.077  13.785  10.537 -0.3038  0.1042  0.0028
  354POPI   GL1 5623  -0.307  13.710  10.137 -0.0196 -0.4408  0.1422
  354POPI   GL2 5624  -0.396  13.516  10.263 -0.3331 -0.0446 -0.0849
  354POPI   C1A 5625  -0.337  13.673   9.736 -0.0785  0.1649 -0.3548
  354POPI   D2A 5626  -0.187  13.904   9.407  0.0806 -0.1018  0.0220
  354POPI   C3A 5627  -0.304  14.357   9.480 -0.0628 -0.0126  0.1477
  354POPI   C4A 5628   0.058  14.573   9.704 -0.3105  0.1665 -0.1503
  354POPI   C1B 5629  -0.197  13.169   9.947  0.1217 -0.0934  0.1090
  354POPI   C2B 5630  -0.211  12.691   9.749  0.1371 -0.0309  0.0580
  354POPI   C3B 5631  -0.040  12.464   9.349  0.3674 -0.0048  0.2394
  354POPI   C4B 5632  -0.066  12.473   8.870 -0.0029  0.2297 -0.0482
  355POPI    C1 5633   0.341   3.201  10.287  0.2881  0.2119  0.0111
  355POPI    C2 5634   0.520   3.184  10.644  0.0918  0.2309  0.1116
  355POPI    C3 5635   0.126   3.125  10.615  0.1304  0.0751 -0.1223
  355POPI   PO4 5636   0.524   2.998  10.105  0.2028 -0.2467  0.2980
  355POPI   GL1 5637   0.643   2.896   9.624 -0.0477  0.0246 -0.0318
  355POPI   GL2 5638   0.549   3.311   9.610 -0.0364  0.3403 -0.3446
  355POPI   C1A 5639   0.542   2.827   9.263 -0.2529 -0.0591  0.2588
  355POPI   D2A 5640   0.446   2.846   8.869  0.3998 -0.2307  0.0250
  355POPI   C3A 5641   0.499   2.572   8.503  0.0486 -0.1914  0.2967
  355POPI   C4A 5642   0.257   2.276   8.194 -0.0982 -0.1956 -0.2223
  355POPI   C1B 5643   0.263   3.298   9.207 -0.0324  0.0459 -0.0650
  355POPI   C2B 5644   0.089   3.255   8.886 -0.1878 -0.1723  0.1215
  355POPI   C3B 5645   0.051   2.911   8.556  0.1419 -0.1824  0.0149
  355POPI   C4B 5646   0.196   2.799   8.136  0.2020 -0.0982 -0.0885
  356POPI    C1 5647  16.209  17.938  10.328  0.0448  0.0480 -0.0725
  356POPI    C2 5648  16.504  17.835  10.577  0.1037 -0.1322 -0.2150
  356POPI    C3 5649  16.128  17.729  10.658  0.1266 -0.2155 -0.2163
  356POPI   PO4 5650  16.259  18.208  10.265  0.0124 -0.1635  0.2381
  356POPI   GL1 5651  16.336  18.488   9.796  0.0341  0.3569  0.2920
  356POPI   GL2 5652  16.475  18.242   9.738 -0.1262  0.1425  0.0942
  356POPI   C1A 5653  16.358  18.548   9.376  0.1042  0.1847  0.1359
  356POPI   D2A 5654  16.315  18.423   8.957  0.0861 -0.0413  0.1624
  356POPI   C3A 5655  16.406  17.950   8.909  0.2617 -0.0803 -0.1363
  356POPI   C4A 5656  16.493  17.545   8.843 -0.1781 -0.3118 -0.2763
  356POPI   C1B 5657  16.489  17.981   9.441 -0.0463  0.0553 -0.1411
  356POPI   C2B 5658  16.748  17.802   9.222  0.0572  0.2027  0.2095
  356POPI   C3B 5659  17.002  17.475   9.186  0.0828  0.1054  0.2418
  356POPI   C4B 5660  17.276  17.249   9.464  0.2763 -0.1719  0.0835
  357POPI    C1 5661  18.010  10.718  10.598  0.1398 -0.0065  0.0107
  357POPI    C2 5662  18.146  11.094  10.596 -0.0437  0.0602 -0.0843
  357POPI    C3 5663  18.383  10.797  10.720  0.1661  0.1824 -0.1874
  357POPI   PO4 5664  17.867  10.711  10.367  0.1347  0.1323  0.1057
  357POPI   GL1 5665  17.752  11.100  10.184 -0.0155  0.4664 -0.0461
  357POPI   GL2 5666  17.359  11.048  10.294  0.0189 -0.1475  0.4693
  357POPI   C1A 5667  17.782  11.274   9.714 -0.1900 -0.0873 -0.2293
  357POPI   D2A 5668  17.773  11.397   9.293  0.0609 -0.4129 -0.2071
  357POPI   C3A 5669  18.079  11.628   8.962 -0.0331  0.1552  0.1587
  357POPI   C4A 5670  18.350  11.620   8.552  0.0060 -0.1137  0.0475
  357POPI   C1B 5671  17.269  11.115   9.824 -0.1362 -0.1782  0.1878
  357POPI   C2B 5672  17.317  11.416   9.526 -0.1319 -0.0034  0.1697
  357POPI   C3B 5673  17.068  11.491   9.124  0.2906  0.1753  0.0356
  357POPI   C4B 5674  17.034  11.706   8.757 -0.1668  0.2156  0.1171
  358POPI    C1 5675  11.313  13.960  10.219  0.0405  0.0004  0.0769
  358POPI    C2 5676  11.257  13.596  10.375 -0.0421  0.0176  0.0881
  358POPI    C3 5677  10.964  13.867  10.390 -0.1147 -0.0372 -0.2516
  358POPI   PO4 5678  11.459  13.962  10.028  0.0266 -0.0223 -0.1110
  358POPI   GL1 5679  11.722  14.101   9.701 -0.0251  0.3494 -0.1815
  358POPI   GL2 5680  12.021  14.159   9.641  0.1165 -0.0782 -0.0664
  358POPI   C1A 5681  11.845  14.045   9.167  0.0069 -0.1876  0.1041
  358POPI   D2A 5682  11.915  14.008   8.759  0.0753 -0.2315 -0.0437
  358POPI   C3A 5683  12.377  14.049   8.740 -0.2023  0.2981  0.0260
  358POPI   C4A 5684  12.861  13.943   8.651  0.1653 -0.0181  0.0381
  358POPI   C1B 5685  12.335  14.081   9.290  0.3280  0.0925 -0.3210
  358POPI   C2B 5686  12.731  14.076   9.154  0.1342  0.1796 -0.0978
  358POPI   C3B 5687  13.017  14.416   8.881 -0.0038  0.1832  0.0040
  358POPI   C4B 5688  13.311  14.600   8.565 -0.1668  0.2043 -0.0803
  359POPI    C1 5689   6.307   0.179  10.538  0.0736 -0.0076 -0.1481
  359POPI    C2 5690   6.564   0.108  10.837 -0.2242 -0.0636  0.1003
  359POPI    C3 5691   6.238   0.330  10.902 -0.1830  0.1042 -0.2412
  359POPI   PO4 5692   6.488   0.207  10.339 -0.1967 -0.0802 -0.2203
  359POPI   GL1 5693   6.507   0.314   9.902 -0.1119  0.2542  0.3348
  359POPI   GL2 5694   6.456   0.584   9.767 -0.0324  0.0065 -0.0942
  359POPI   C1A 5695   6.702   0.220   9.422  0.0705 -0.0606  0.1263
  359POPI   D2A 5696   6.764   0.300   8.953  0.1382  0.2357  0.3171
  359POPI   C3A 5697   6.686   0.721   8.882 -0.0278 -0.2060  0.1459
  359POPI   C4A 5698   6.702   1.087   8.646  0.0901  0.1830 -0.1488
  359POPI   C1B 5699   6.525   0.715   9.374 -0.3481  0.0828  0.2938
  359POPI   C2B 5700   6.778   1.092   9.240 -0.0058 -0.0006  0.0491
  359POPI   C3B 5701   6.821   1.421   9.051  0.3942 -0.2368  0.0042
  359POPI   C4B 5702   6.832   1.755   8.655  0.0904 -0.2019 -0.1998
  360POPI    C1 5703   3.470  13.110   9.978 -0.1000 -0.0010  0.1721
  360POPI    C2 5704   3.406  12.719   9.924  0.0440 -0.0061  0.0306
  360POPI    C3 5705   3.632  12.843  10.229 -0.1204 -0.0237  0.1613
  360POPI   PO4 5706   3.308  13.186   9.823 -0.3092  0.3161 -0.0192
  360POPI   GL1 5707   3.180  13.479   9.544 -0.0528 -0.0928 -0.1103
  360POPI   GL2 5708   2.855  13.521   9.719 -0.0360  0.0110 -0.0601
  360POPI   C1A 5709   3.033  13.461   9.131  0.2384  0.0974 -0.0265
  360POPI   D2A 5710   2.997  13.588   8.846  0.3565  0.0548 -0.0712
  360POPI   C3A 5711   3.103  13.727   8.413 -0.0100 -0.3334  0.2106
  360POPI   C4A 5712   3.290  14.027   8.131 -0.4055  0.0102 -0.0774
  360POPI   C1B 5713   2.434  13.521   9.389  0.0157 -0.1774 -0.1735
  360POPI   C2B 5714   2.188  13.584   8.951  0.2051 -0.1545 -0.0914
  360POPI   C3B 5715   2.094  13.625   8.486  0.2463  0.1138 -0.2058
  360POPI   C4B 5716   2.162  13.443   8.175 -0.1364 -0.2595  0.0677
  361POPI    C1 5717  17.563   5.438  10.918 -0.0748 -0.1709 -0.1256
  361POPI    C2 5718  17.801   5.233  11.166 -0.1450 -0.2317 -0.1083
  361POPI    C3 5719  17.504   5.458  11.313 -0.2475 -0.3441 -0.1412
  361POPI   PO4 5720  17.473   5.275  10.704 -0.2383 -0.1279 -0.1306
  361POPI   GL1 5721  17.790   5.203  10.325  0.0259  0.0093  0.1609
  361POPI   GL2 5722  17.607   4.859  10.262 -0.0826  0.0748 -0.2110
  361POPI   C1A 5723  17.608   5.348   9.959 -0.0685 -0.1324 -0.1547
  361POPI   D2A 5724  17.324   5.342   9.647 -0.0745 -0.0512 -0.1078
  361POPI   C3A 5725  17.358   5.357   9.153 -0.0149  0.1367  0.0571
  361POPI   C4A 5726  17.222   5.300   8.740 -0.1335  0.1455 -0.3421
  361POPI   C1B 5727  17.392   4.829   9.848 -0.1753 -0.1053 -0.0488
  361POPI   C2B 5728  17.365   4.920   9.405 -0.1249 -0.1147  0.0952
  361POPI   C3B 5729  17.329   4.855   8.939  0.1649 -0.0512 -0.2528
  361POPI   C4B 5730  17.153   4.951   8.451  0.2239  0.1045  0.1538
  362POPI    C1 5731   6.701   4.657  10.673 -0.2890  0.0614  0.0485
  362POPI    C2 5732   6.857   4.383  10.920 -0.0286  0.1370 -0.0284
  362POPI    C3 5733   6.520   4.303  10.720 -0.1211 -0.0090  0.1814
  362POPI   PO4 5734   6.882   4.806  10.493  0.3725  0.2245 -0.1509
  362POPI   GL1 5735   6.884   4.535  10.131 -0.0615  0.0138  0.1099
  362POPI   GL2 5736   6.726   4.326  10.268  0.2695  0.2341  0.0860
  362POPI   C1A 5737   7.072   4.524   9.675  0.2037 -0.0613 -0.1547
  362POPI   D2A 5738   7.170   4.544   9.232 -0.1184 -0.1643 -0.2547
  362POPI   C3A 5739   7.183   4.219   8.958 -0.2251  0.2032  0.0071
  362POPI   C4A 5740   7.076   4.027   8.617  0.1379 -0.0054 -0.0193
  362POPI   C1B 5741   6.498   4.405   9.828 -0.2509 -0.1368  0.0071
  362POPI   C2B 5742   6.542   4.431   9.381  0.0109  0.2221 -0.0752
  362POPI   C3B 5743   6.704   4.398   9.019  0.0559 -0.0502  0.2051
  362POPI   C4B 5744   6.958   4.598   8.714  0.1906 -0.2035  0.1729
  363POPI    C1 5745   3.538  10.470  10.319 -0.2354 -0.2148  0.1119
  363POPI    C2 5746   3.630  10.142  10.110  0.1557 -0.1253  0.1365
  363POPI    C3 5747   3.826  10.224  10.449 -0.0006  0.0880  0.1770
  363POPI   PO4 5748   3.532  10.681  10.137 -0.1824  0.1684  0.1131
  363POPI   GL1 5749   3.609  10.810   9.795 -0.0621 -0.3202  0.3237
  363POPI   GL2 5750   3.420  11.019   9.837 -0.1042 -0.1654  0.0428
  363POPI   C1A 5751   3.631  10.701   9.456 -0.2016 -0.0515  0.1466
  363POPI   D2A 5752   3.620  10.704   9.127 -0.2285 -0.1771  0.2127
  363POPI   C3A 5753   3.764  11.087   8.894  0.4715  0.0962  0.1501
  363POPI   C4A 5754   3.732  11.176   8.502  0.2132 -0.0144 -0.2721
  363POPI   C1B 5755   3.445  11.164   9.380  0.0862 -0.2386 -0.4392
  363POPI   C2B 5756   3.234  11.205   9.097  0.0752  0.1593 -0.1952
  363POPI   C3B 5757   3.057  11.212   8.676  0.3211 -0.3595  0.1792
  363POPI   C4B 5758   2.885  11.553   8.524  0.0767 -0.0596  0.1395
  364POPI    C1 5759  12.847  10.882  10.591 -0.0013 -0.0165 -0.0939
  364POPI    C2 5760  12.567  10.707  10.817  0.1060 -0.0727 -0.0035
  364POPI    C3 5761  12.934  10.768  10.965  0.1186  0.0746 -0.0933
  364POPI   PO4 5762  12.697  11.050  10.387  0.1249  0.3639 -0.0050
  364POPI   GL1 5763  12.767  11.070   9.979  0.0621  0.2284 -0.1514
  364POPI   GL2 5764  12.613  10.666   9.848  0.1043 -0.0856  0.1492
  364POPI   C1A 5765  12.877  11.288   9.622  0.3712  0.2106  0.4742
  364POPI   D2A 5766  12.679  11.371   9.232 -0.2646  0.2147 -0.1461
  364POPI   C3A 5767  12.961  11.432   8.916  0.0351  0.0563  0.0782
  364POPI   C4A 5768  13.331  11.374   9.009  0.0078 -0.3002 -0.0362
  364POPI   C1B 5769  12.695  10.833   9.394 -0.0835 -0.2394 -0.1301
  364POPI   C2B 5770  12.696  10.825   9.002 -0.2908 -0.0042  0.0463
  364POPI   C3B 5771  12.566  10.624   8.688 -0.2643 -0.5616  0.0008
  364POPI   C4B 5772  12.519  10.579   8.273 -0.1257  0.2065 -0.0216
  365POPI    C1 5773   2.443   6.002   9.903 -0.1519  0.1454 -0.0777
  365POPI    C2 5774   2.045   5.974   9.878 -0.1411  0.0169 -0.1142
  365POPI    C3 5775   2.226   5.934  10.232 -0.1771  0.3008 -0.0616
  365POPI   PO4 5776   2.536   5.845   9.628 -0.2087 -0.1266  0.0654
  365POPI   GL1 5777   2.773   5.489   9.397  0.3637  0.1080 -0.1700
  365POPI   GL2 5778   2.487   5.352   9.407 -0.1242  0.1007 -0.0402
  365POPI   C1A 5779   2.695   5.773   8.970 -0.2516  0.0507 -0.0232
  365POPI   D2A 5780   2.661   6.118   8.802  0.1157 -0.1228  0.0212
  365POPI   C3A 5781   2.302   6.213   8.637 -0.2453  0.0770 -0.0283
  365POPI   C4A 5782   2.059   6.503   8.313 -0.2662  0.1969 -0.2206
  365POPI   C1B 5783   2.476   5.299   8.996 -0.2243  0.2796 -0.2297
  365POPI   C2B 5784   2.084   5.215   8.740  0.1121  0.2355  0.0207
  365POPI   C3B 5785   2.043   5.266   8.264  0.0098 -0.0344  0.1388
  365POPI   C4B 5786   2.288   4.938   8.133  0.1603  0.1267 -0.2544
  366POPI    C1 5787   2.130  10.837  10.162  0.1098  0.1300  0.0119
  366POPI    C2 5788   2.076  11.156  10.396  0.1092  0.1033  0.0482
  366POPI    C3 5789   2.428  11.097  10.216  0.1721  0.0223  0.1956
  366POPI   PO4 5790   1.838  10.796  10.018  0.3390 -0.0437  0.2344
  366POPI   GL1 5791   1.648  11.053   9.773  0.1589 -0.2275  0.1348
  366POPI   GL2 5792   1.339  11.164   9.899  0.0420 -0.0119 -0.0545
  366POPI   C1A 5793   1.409  11.270   9.440 -0.2012  0.1357 -0.1831
  366POPI   D2A 5794   1.161  11.325   9.126  0.1751  0.1494  0.3171
  366POPI   C3A 5795   0.663  11.476   9.243  0.3557 -0.0626 -0.2110
  366POPI   C4A 5796   0.420  11.535   8.963  0.1409 -0.1148 -0.0176
  366POPI   C1B 5797   1.014  10.988   9.626  0.2648 -0.0965  0.1036
  366POPI   C2B 5798   0.612  10.991   9.383 -0.0214 -0.0969 -0.1059
  366POPI   C3B 5799   0.639  11.091   8.970  0.0788 -0.1925 -0.1232
  366POPI   C4B 5800   0.708  11.353   8.604 -0.0303 -0.2730 -0.0161
  367POPI    C1 5801   9.929   9.790  10.214  0.1203  0.1911 -0.1796
  367POPI    C2 5802  10.194   9.976  10.449  0.1137 -0.1416  0.1000
  367POPI    C3 5803   9.818  10.110  10.426  0.1566 -0.0102  0.1514
  367POPI   PO4 5804   9.990   9.679  10.027 -0.2798  0.2406  0.2082
  367POPI   GL1 5805  10.179   9.785   9.632 -0.0470  0.1055 -0.0236
  367POPI   GL2 5806  10.403   9.585   9.608  0.0489 -0.1265  0.0626
  367POPI   C1A 5807  10.284   9.845   9.167 -0.2365  0.0082  0.1467
  367POPI   D2A 5808  10.360   9.761   8.803  0.3777 -0.0164 -0.0320
  367POPI   C3A 5809  10.494   9.858   8.525 -0.0034  0.1200 -0.0889
  367POPI   C4A 5810  10.808  10.015   8.160 -0.1831  0.2933  0.0139
  367POPI   C1B 5811  10.628   9.464   9.365 -0.0420  0.0753  0.1466
  367POPI   C2B 5812  10.575   9.292   9.124  0.0759 -0.1537 -0.0309
  367POPI   C3B 5813  10.504   9.240   8.698  0.0200  0.1170 -0.1490
  367POPI   C4B 5814  10.382   9.284   8.404  0.1635  0.0540 -0.0478
  368POPI    C1 5815  10.614   8.654  10.178  0.3324  0.0671  0.1856
  368POPI    C2 5816  10.550   8.521  10.550 -0.0171  0.1547  0.1606
  368POPI    C3 5817  10.720   8.878  10.491 -0.1533  0.2334  0.2403
  368POPI   PO4 5818  10.431   8.610  10.010 -0.1348  0.2593  0.4723
  368POPI   GL1 5819  10.349   8.546   9.582  0.3384 -0.0233  0.1465
  368POPI   GL2 5820  10.198   8.269   9.743 -0.1841  0.0598  0.0270
  368POPI   C1A 5821  10.261   8.355   9.238 -0.0108 -0.3216  0.2300
  368POPI   D2A 5822  10.296   8.299   8.838  0.2127 -0.1397 -0.0450
  368POPI   C3A 5823  10.402   8.207   8.415  0.3084 -0.2464  0.1749
  368POPI   C4A 5824  10.357   8.661   8.119 -0.0900  0.0470 -0.1920
  368POPI   C1B 5825  10.605   8.054   9.529 -0.0631 -0.0530  0.1312
  368POPI   C2B 5826  10.696   7.877   9.170 -0.1414  0.3683 -0.0188
  368POPI   C3B 5827  10.679   7.861   8.703  0.0884 -0.2363  0.1331
  368POPI   C4B 5828  10.693   7.846   8.237  0.3737 -0.1066 -0.1397
  369POPI    C1 5829  12.299  17.981  10.357  0.0073 -0.2903 -0.2919
  369POPI    C2 5830  12.039  18.285  10.361  0.2766 -0.0560 -0.2169
  369POPI    C3 5831  11.933  17.929  10.510  0.0278  0.0588 -0.1136
  369POPI   PO4 5832  12.379  18.030  10.142  0.0703  0.1023 -0.0172
  369POPI   GL1 5833  12.331  18.317   9.905 -0.0912  0.0728 -0.3851
  369POPI   GL2 5834  12.426  18.529   9.925  0.0608  0.0505  0.0863
  369POPI   C1A 5835  11.994  18.584   9.687  0.0799 -0.1445 -0.0244
  369POPI   D2A 5836  11.872  18.448   9.257  0.1466 -0.2901 -0.2926
  369POPI   C3A 5837  11.953  18.467   8.881 -0.2624 -0.1215 -0.1187
  369POPI   C4A 5838  11.936  18.451   8.437 -0.0230  0.0199  0.0460
  369POPI   C1B 5839  12.455  18.408   9.407 -0.1125 -0.1635  0.0078
  369POPI   C2B 5840  12.506  18.457   8.919  0.2477  0.0487 -0.2513
  369POPI   C3B 5841  12.415  18.203   8.540 -0.0690 -0.0087  0.1464
  369POPI   C4B 5842  12.423  17.848   8.222  0.0701 -0.0587 -0.0211
  370POPI    C1 5843  13.864  13.080  10.817  0.2130 -0.1620  0.0215
  370POPI    C2 5844  13.673  13.267  11.115 -0.0442  0.1598 -0.3353
  370POPI    C3 5845  14.071  13.230  11.125 -0.0883 -0.3172  0.3065
  370POPI   PO4 5846  13.827  13.141  10.611  0.3381 -0.0744  0.0608
  370POPI   GL1 5847  14.127  13.204  10.230 -0.4471  0.4157  0.3491
  370POPI   GL2 5848  13.835  13.304  10.114  0.3761 -0.1291 -0.1132
  370POPI   C1A 5849  14.348  13.269   9.864 -0.0273 -0.0098 -0.0892
  370POPI   D2A 5850  14.625  13.566   9.631  0.0257 -0.1640  0.0469
  370POPI   C3A 5851  14.723  13.440   9.235 -0.0877  0.3026 -0.2729
  370POPI   C4A 5852  14.909  13.254   8.851  0.2005 -0.1374  0.1564
  370POPI   C1B 5853  13.918  13.382   9.708 -0.2510  0.3198 -0.2053
  370POPI   C2B 5854  14.209  13.353   9.266 -0.2241 -0.0147 -0.1766
  370POPI   C3B 5855  14.393  13.228   8.868 -0.2901  0.2065 -0.0522
  370POPI   C4B 5856  14.556  12.926   8.568  0.0438  0.2506 -0.0657
  371POPI    C1 5857  10.554  10.623  10.325 -0.0436 -0.0339  0.2116
  371POPI    C2 5858  10.311  10.832  10.086  0.2037 -0.0654 -0.0735
  371POPI    C3 5859  10.455  10.999  10.420 -0.1734 -0.0339  0.0789
  371POPI   PO4 5860  10.538  10.327  10.220  0.3135 -0.0499  0.3307
  371POPI   GL1 5861  10.596  10.296   9.795 -0.3332  0.0053  0.0357
  371POPI   GL2 5862  10.580  10.071   9.630  0.0805 -0.1361  0.0714
  371POPI   C1A 5863  10.557  10.557   9.612 -0.0221 -0.2699 -0.1742
  371POPI   D2A 5864  10.776  10.888   9.234 -0.0156  0.0587  0.1440
  371POPI   C3A 5865  10.692  10.769   8.784 -0.2126 -0.0269  0.1111
  371POPI   C4A 5866  10.671  10.950   8.472 -0.2092 -0.2395 -0.0259
  371POPI   C1B 5867  10.743   9.962   9.336  0.1477  0.2234 -0.2039
  371POPI   C2B 5868  10.806   9.801   8.985 -0.1084  0.0404  0.0633
  371POPI   C3B 5869  10.918   9.541   8.679 -0.1328  0.1172  0.1665
  371POPI   C4B 5870  11.072   9.598   8.390 -0.1347  0.0937 -0.1970
  372POPI    C1 5871   3.810  17.276  10.370 -0.0298  0.0708 -0.0776
  372POPI    C2 5872   3.483  17.493  10.297 -0.0013  0.0758 -0.1935
  372POPI    C3 5873   3.539  17.331  10.658 -0.2451 -0.1179 -0.2400
  372POPI   PO4 5874   3.823  17.151  10.127  0.0793  0.0386  0.0494
  372POPI   GL1 5875   3.796  17.039   9.658  0.1020  0.4370  0.3015
  372POPI   GL2 5876   3.644  16.852   9.758  0.2936  0.1278 -0.4250
  372POPI   C1A 5877   3.982  16.664   9.367 -0.0057  0.0587 -0.0213
  372POPI   D2A 5878   3.839  16.404   9.099  0.3798  0.1521 -0.0771
  372POPI   C3A 5879   3.752  16.316   8.737 -0.3084  0.1257 -0.1768
  372POPI   C4A 5880   3.564  16.294   8.353  0.4271  0.1228 -0.3334
  372POPI   C1B 5881   3.470  16.828   9.369 -0.3180 -0.2773 -0.0638
  372POPI   C2B 5882   3.356  16.659   8.900 -0.1264  0.1518  0.1462
  372POPI   C3B 5883   3.358  16.714   8.525  0.0570  0.2552 -0.0383
  372POPI   C4B 5884   3.426  16.752   8.203 -0.1033 -0.0318  0.1627
  373POPI    C1 5885  16.758  17.440  10.728  0.0752  0.1891 -0.0316
  373POPI    C2 5886  16.972  17.225  10.467 -0.0960  0.1376 -0.1316
  373POPI    C3 5887  17.000  17.624  10.468  0.2626  0.1170  0.0900
  373POPI   PO4 5888  16.516  17.326  10.685 -0.2968 -0.0554 -0.4025
  373POPI   GL1 5889  16.344  17.269  10.335 -0.1360  0.1578 -0.1278
  373POPI   GL2 5890  15.991  17.342  10.334  0.0629 -0.0123  0.0101
  373POPI   C1A 5891  16.605  17.046  10.021  0.3476 -0.1226  0.0178
  373POPI   D2A 5892  16.904  16.999   9.653  0.1547 -0.0786 -0.2493
  373POPI   C3A 5893  16.915  16.951   9.224 -0.0601 -0.0345 -0.0910
  373POPI   C4A 5894  16.705  17.106   8.789  0.2745  0.4300 -0.3496
  373POPI   C1B 5895  16.023  17.285   9.890 -0.1112 -0.0649  0.0664
  373POPI   C2B 5896  15.929  17.181   9.436  0.1360 -0.1055  0.0911
  373POPI   C3B 5897  15.821  17.124   9.025 -0.1219  0.2170 -0.1761
  373POPI   C4B 5898  15.913  17.129   8.687 -0.2137 -0.5423  0.1882
  374POPI    C1 5899  18.078   6.936  10.671  0.0461  0.1962  0.3179
  374POPI    C2 5900  17.906   6.576  10.658  0.1640  0.1448  0.1541
  374POPI    C3 5901  17.711   6.884  10.822 -0.1202  0.1068 -0.1025
  374POPI   PO4 5902  18.194   6.989  10.401 -0.1662 -0.0061  0.1144
  374POPI   GL1 5903  18.299   7.094  10.027 -0.4657 -0.0831 -0.0587
  374POPI   GL2 5904  18.098   7.377  10.001 -0.0324 -0.2349 -0.0225
  374POPI   C1A 5905  18.509   6.999   9.635 -0.2510 -0.0047  0.1196
  374POPI   D2A 5906  18.700   6.715   9.284 -0.0275  0.2648 -0.1993
  374POPI   C3A 5907  18.642   6.524   8.884 -0.1643  0.1958 -0.1373
  374POPI   C4A 5908  18.939   6.384   8.543 -0.1809 -0.3709  0.1783
  374POPI   C1B 5909  17.808   7.270   9.659 -0.0403  0.1260 -0.2410
  374POPI   C2B 5910  17.639   7.261   9.313 -0.2078 -0.0949 -0.2979
  374POPI   C3B 5911  17.482   6.958   9.008 -0.0520  0.1653  0.0308
  374POPI   C4B 5912  17.625   6.929   8.568 -0.2532 -0.0381 -0.0718
  375POPI    C1 5913  17.013   1.781  10.296 -0.1363  0.1576  0.1567
  375POPI    C2 5914  17.272   2.038  10.132 -0.2433  0.1723  0.0091
  375POPI    C3 5915  17.374   1.832  10.459 -0.0734  0.2335 -0.0046
  375POPI   PO4 5916  16.818   1.969  10.332  0.0423 -0.2275  0.1692
  375POPI   GL1 5917  16.805   2.138   9.882  0.1182  0.0438 -0.0857
  375POPI   GL2 5918  16.709   2.375  10.031 -0.0042 -0.3540  0.0110
  375POPI   C1A 5919  16.622   2.332   9.501  0.2494 -0.0525 -0.0753
  375POPI   D2A 5920  16.412   2.175   9.099 -0.5671 -0.0998 -0.1956
  375POPI   C3A 5921  16.202   2.348   8.794 -0.0129  0.0909  0.0921
  375POPI   C4A 5922  16.034   2.481   8.387  0.3229  0.2040  0.0476
  375POPI   C1B 5923  16.689   2.714   9.772 -0.1937  0.0974  0.2296
  375POPI   C2B 5924  16.964   3.096   9.778 -0.1304  0.0086 -0.3224
  375POPI   C3B 5925  17.294   3.004   9.688  0.0313  0.2487  0.1378
  375POPI   C4B 5926  17.583   2.710   9.571  0.3282  0.0609 -0.0914
  376POPI    C1 5927  11.878   3.372  11.044  0.0690 -0.1309 -0.0352
  376POPI    C2 5928  12.268   3.286  11.016  0.0929 -0.0478  0.0412
  376POPI    C3 5929  12.148   3.608  11.221 -0.0404 -0.3043  0.3756
  376POPI   PO4 5930  11.736   3.406  10.725 -0.0138 -0.2176  0.1568
  376POPI   GL1 5931  11.496   3.523  10.374  0.0516  0.4446  0.0419
  376POPI   GL2 5932  11.676   3.789  10.346 -0.2516  0.0263 -0.3377
  376POPI   C1A 5933  11.599   3.484   9.927 -0.2239  0.0396  0.0297
  376POPI   D2A 5934  11.426   3.619   9.557  0.1743 -0.0751 -0.0030
  376POPI   C3A 5935  11.569   3.951   9.550 -0.2256  0.1710  0.1598
  376POPI   C4A 5936  11.283   4.341   9.600 -0.0324 -0.0404 -0.0332
  376POPI   C1B 5937  11.841   3.903   9.964  0.0236 -0.0199 -0.1437
  376POPI   C2B 5938  12.273   3.819   9.889 -0.1143  0.0738 -0.0207
  376POPI   C3B 5939  12.568   3.624   9.614 -0.1338  0.0572  0.2302
  376POPI   C4B 5940  12.689   3.601   9.255  0.1233  0.0213 -0.0671
  377POPI    C1 5941   6.819   2.595  10.337 -0.3137  0.0253  0.2874
  377POPI    C2 5942   6.638   2.439  10.658 -0.1019 -0.3648  0.2238
  377POPI    C3 5943   6.976   2.276  10.521 -0.0093  0.0042 -0.0001
  377POPI   PO4 5944   6.855   2.884  10.359 -0.3158 -0.2401  0.2226
  377POPI   GL1 5945   7.077   2.912  10.044  0.0069 -0.0907  0.3702
  377POPI   GL2 5946   7.197   3.119   9.849  0.2221 -0.1483 -0.0395
  377POPI   C1A 5947   7.043   2.523   9.678  0.0060 -0.2022 -0.0763
  377POPI   D2A 5948   7.026   2.289   9.277 -0.2439  0.2526 -0.2096
  377POPI   C3A 5949   7.406   2.338   9.052  0.0305  0.2695  0.1697
  377POPI   C4A 5950   7.329   2.608   8.611 -0.2576  0.2820  0.0436
  377POPI   C1B 5951   7.078   2.939   9.422  0.4181 -0.1888 -0.1791
  377POPI   C2B 5952   7.070   2.744   9.041  0.0475  0.1203  0.0463
  377POPI   C3B 5953   6.935   2.398   8.827 -0.1503 -0.3124  0.3255
  377POPI   C4B 5954   6.946   2.388   8.327 -0.0439 -0.1571  0.0583
  378POPI    C1 5955   4.390  10.643  10.204 -0.0010  0.0139  0.1172
  378POPI    C2 5956   4.329  10.281  10.365 -0.2363 -0.0046 -0.0101
  378POPI    C3 5957   4.622  10.515  10.505 -0.2960 -0.1091  0.2969
  378POPI   PO4 5958   4.400  10.707   9.964 -0.0689 -0.2344  0.1709
  378POPI   GL1 5959   4.674  10.707   9.637 -0.0582 -0.0851 -0.0339
  378POPI   GL2 5960   4.445  10.371   9.568 -0.2158 -0.1029  0.1055
  378POPI   C1A 5961   4.619  10.792   9.206  0.3261  0.1542 -0.3760
  378POPI   D2A 5962   4.546  10.766   8.806 -0.0181 -0.0102 -0.1276
  378POPI   C3A 5963   4.252  11.044   8.595  0.1947 -0.1310 -0.3143
  378POPI   C4A 5964   4.123  11.183   8.190 -0.1271 -0.1661 -0.0692
  378POPI   C1B 5965   4.302  10.301   9.184  0.0124  0.0936  0.0784
  378POPI   C2B 5966   4.161  10.237   8.859  0.0651 -0.3479  0.2412
  378POPI   C3B 5967   4.015  10.258   8.370 -0.2215  0.1557  0.0211
  378POPI   C4B 5968   4.044  10.330   7.973  0.0577  0.2391 -0.2411
  379POPI    C1 5969  12.540   6.204  10.658  0.1057 -0.1594 -0.4092
  379POPI    C2 5970  12.721   6.558  10.705  0.0312 -0.1688 -0.0204
  379POPI    C3 5971  12.362   6.539  10.531 -0.0509 -0.0276  0.1304
  379POPI   PO4 5972  12.797   6.036  10.503  0.1596 -0.1655 -0.4613
  379POPI   GL1 5973  13.172   6.097  10.292  0.1844 -0.0484 -0.2031
  379POPI   GL2 5974  13.261   6.452  10.223 -0.1609 -0.2206 -0.3792
  379POPI   C1A 5975  13.176   5.693   9.994  0.0325  0.1133 -0.0507
  379POPI   D2A 5976  12.903   5.406   9.748  0.0427  0.0078  0.0671
  379POPI   C3A 5977  12.874   5.172   9.394 -0.0632 -0.1472  0.1216
  379POPI   C4A 5978  12.480   5.073   9.195  0.0054 -0.0275  0.1309
  379POPI   C1B 5979  13.544   6.286  10.037  0.1957  0.0662 -0.2175
  379POPI   C2B 5980  13.621   6.281   9.672  0.2581 -0.1262  0.0897
  379POPI   C3B 5981  13.416   6.284   9.197  0.1901 -0.0872 -0.0325
  379POPI   C4B 5982  13.529   6.280   8.856 -0.2164  0.0722 -0.1847
  380POPI    C1 5983  14.225  10.753  10.890  0.0038  0.0772  0.1076
  380POPI    C2 5984  13.889  10.572  11.010  0.0153 -0.1065 -0.1299
  380POPI    C3 5985  14.245  10.415  11.102  0.0377  0.0688  0.0913
  380POPI   PO4 5986  14.135  10.849  10.649  0.1309 -0.1813  0.1774
  380POPI   GL1 5987  14.163  10.803  10.163 -0.1784  0.2720 -0.3354
  380POPI   GL2 5988  13.928  11.037  10.152  0.2987 -0.1791 -0.0181
  380POPI   C1A 5989  14.032  10.739   9.747 -0.2703  0.0367  0.0341
  380POPI   D2A 5990  13.993  10.700   9.327  0.5336  0.1013 -0.3760
  380POPI   C3A 5991  14.151  10.900   8.913  0.0215  0.0559 -0.0863
  380POPI   C4A 5992  14.199  10.813   8.445 -0.3531  0.1879 -0.0371
  380POPI   C1B 5993  13.867  11.200   9.744 -0.1810 -0.1880 -0.0254
  380POPI   C2B 5994  13.956  11.299   9.343  0.1125 -0.1619 -0.1713
  380POPI   C3B 5995  13.921  11.328   8.844 -0.1541 -0.2708  0.0977
  380POPI   C4B 5996  14.286  11.401   8.542  0.3045 -0.1322  0.0852
  381POPI    C1 5997  13.556   9.968  10.424  0.2572  0.4091  0.1235
  381POPI    C2 5998  13.329  10.263  10.276 -0.1791 -0.0380 -0.1294
  381POPI    C3 5999  13.385  10.232  10.671 -0.1852  0.3371 -0.0956
  381POPI   PO4 6000  13.382   9.732  10.273 -0.0686  0.0974 -0.2375
  381POPI   GL1 6001  13.472   9.474  10.010 -0.1315 -0.1718 -0.1491
  381POPI   GL2 6002  13.426   9.160  10.019 -0.0868 -0.0156 -0.3852
  381POPI   C1A 6003  13.733   9.442   9.606  0.1881  0.0780  0.0932
  381POPI   D2A 6004  13.998   9.291   9.313 -0.0428  0.0445 -0.0778
  381POPI   C3A 6005  14.000   9.323   8.872 -0.1736  0.0292 -0.0975
  381POPI   C4A 6006  14.166   9.526   8.485  0.2411 -0.1729 -0.1032
  381POPI   C1B 6007  13.241   9.130   9.616 -0.0059 -0.0469 -0.1066
  381POPI   C2B 6008  12.957   9.015   9.265 -0.0494  0.1935  0.0166
  381POPI   C3B 6009  12.840   9.013   8.850  0.0115 -0.2845  0.1957
  381POPI   C4B 6010  13.041   9.266   8.507  0.0631 -0.1818  0.0637
  382POPI    C1 6011   2.072  15.433  11.025  0.0071 -0.0240 -0.0213
  382POPI    C2 6012   1.682  15.478  11.106 -0.0417 -0.2334 -0.1332
  382POPI    C3 6013   1.944  15.428  11.404 -0.0800  0.0518 -0.0491
  382POPI   PO4 6014   2.047  15.398  10.739  0.1712  0.2912  0.0164
  382POPI   GL1 6015   2.013  15.609  10.323  0.0129 -0.0997  0.0121
  382POPI   GL2 6016   1.667  15.842  10.247 -0.0752 -0.1316 -0.4060
  382POPI   C1A 6017   2.109  15.748   9.919  0.0911  0.0887  0.4320
  382POPI   D2A 6018   2.222  15.833   9.516  0.3739  0.0404  0.2682
  382POPI   C3A 6019   2.078  15.608   9.146  0.4081  0.1240 -0.0309
  382POPI   C4A 6020   2.062  15.549   8.676  0.2730 -0.0859 -0.0122
  382POPI   C1B 6021   1.721  16.104   9.882 -0.0442  0.0184 -0.1008
  382POPI   C2B 6022   1.528  16.222   9.570  0.0844 -0.0201  0.1389
  382POPI   C3B 6023   1.305  16.154   9.159 -0.1066  0.1903 -0.1086
  382POPI   C4B 6024   1.197  15.961   8.798  0.2117  0.0792  0.1265
  383POPI    C1 6025   4.708  13.737  10.107 -0.0342  0.2814  0.1002
  383POPI    C2 6026   4.336  13.820  10.228 -0.0153  0.2085  0.2099
  383POPI    C3 6027   4.582  13.614  10.466  0.0153  0.0430  0.0374
  383POPI   PO4 6028   4.674  13.793   9.788 -0.0495 -0.0039 -0.0636
  383POPI   GL1 6029   4.245  13.977   9.679  0.2020 -0.2509 -0.0087
  383POPI   GL2 6030   3.991  13.899   9.638  0.0044 -0.0929  0.0800
  383POPI   C1A 6031   4.372  14.023   9.299  0.0922  0.0413  0.3590
  383POPI   D2A 6032   4.237  14.093   8.855 -0.0150 -0.2887  0.2273
  383POPI   C3A 6033   4.466  14.181   8.574 -0.1999 -0.0044 -0.0385
  383POPI   C4A 6034   4.532  14.511   8.250 -0.1071  0.0334  0.3380
  383POPI   C1B 6035   3.940  13.855   9.206 -0.2835 -0.0346 -0.0092
  383POPI   C2B 6036   3.716  14.016   8.917  0.1035  0.2405 -0.1991
  383POPI   C3B 6037   3.639  14.155   8.540  0.1302  0.2816  0.0643
  383POPI   C4B 6038   3.566  14.405   8.248 -0.0902 -0.1874  0.0123
  384POPI    C1 6039  14.271  14.059  10.766 -0.1255 -0.1692 -0.1886
  384POPI    C2 6040  13.928  14.120  10.569 -0.1691  0.2403  0.0034
  384POPI    C3 6041  13.926  14.085  10.967 -0.0219 -0.0778 -0.0205
  384POPI   PO4 6042  14.326  13.890  10.647  0.0579  0.1745 -0.2896
  384POPI   GL1 6043  14.450  13.678  10.224 -0.1075 -0.2905 -0.1826
  384POPI   GL2 6044  14.116  13.752  10.150  0.0322 -0.0320  0.2649
  384POPI   C1A 6045  14.745  13.452  10.105 -0.2314 -0.0366  0.2412
  384POPI   D2A 6046  15.063  13.062  10.290 -0.0953 -0.0241  0.0332
  384POPI   C3A 6047  15.489  13.069   9.995  0.0970 -0.1758 -0.1477
  384POPI   C4A 6048  15.573  13.090   9.535  0.2087  0.1267  0.0203
  384POPI   C1B 6049  14.204  13.830   9.705 -0.2828  0.1651  0.0682
  384POPI   C2B 6050  13.905  13.742   9.373  0.2514  0.0354  0.0808
  384POPI   C3B 6051  13.976  14.004   9.009 -0.0604 -0.2192  0.0332
  384POPI   C4B 6052  14.243  14.154   8.732  0.2162 -0.1100 -0.0383
  385POPI    C1 6053  12.867   9.045  10.781 -0.1985 -0.1801  0.3349
  385POPI    C2 6054  13.162   8.917  11.020 -0.1325 -0.1878  0.2497
  385POPI    C3 6055  13.113   9.308  10.955  0.0067 -0.1978  0.0780
  385POPI   PO4 6056  12.909   8.843  10.533 -0.2247 -0.0202  0.0007
  385POPI   GL1 6057  12.887   8.783  10.079 -0.0257 -0.3233 -0.1687
  385POPI   GL2 6058  12.673   9.007  10.021 -0.0926 -0.2210  0.2946
  385POPI   C1A 6059  12.785   8.656   9.655  0.0578 -0.3103 -0.0149
  385POPI   D2A 6060  12.843   8.343   9.367 -0.1952  0.0651 -0.0845
  385POPI   C3A 6061  12.797   8.432   8.980 -0.1984 -0.0637 -0.0735
  385POPI   C4A 6062  12.735   8.526   8.593  0.2734 -0.1080  0.0364
  385POPI   C1B 6063  12.752   9.224   9.678 -0.2949 -0.1548 -0.2075
  385POPI   C2B 6064  12.682   9.391   9.247  0.4295  0.0729  0.1471
  385POPI   C3B 6065  12.562   9.649   8.885 -0.0345  0.2261  0.2195
  385POPI   C4B 6066  12.845   9.715   8.482 -0.0093  0.2352 -0.1102
  386POPI    C1 6067   2.148  15.904  10.871 -0.1801  0.2321 -0.0680
  386POPI    C2 6068   1.940  15.883  11.211  0.1532  0.1441  0.1350
  386POPI    C3 6069   2.216  16.169  11.163  0.0311  0.2237 -0.1078
  386POPI   PO4 6070   1.973  15.942  10.663  0.2403 -0.0273 -0.3382
  386POPI   GL1 6071   2.155  16.130  10.222 -0.0874 -0.0805  0.1203
  386POPI   GL2 6072   2.401  15.888  10.341  0.0866 -0.2283 -0.2633
  386POPI   C1A 6073   1.928  16.572  10.109  0.0176  0.0376  0.0171
  386POPI   D2A 6074   1.697  16.773   9.975  0.2088  0.1846 -0.2141
  386POPI   C3A 6075   1.569  16.766   9.521 -0.1139  0.3438  0.1550
  386POPI   C4A 6076   1.344  16.675   9.112  0.0877 -0.0457 -0.0265
  386POPI   C1B 6077   2.600  15.649   9.987 -0.1915 -0.2130  0.0114
  386POPI   C2B 6078   2.919  15.327   9.816  0.0152  0.0797  0.1616
  386POPI   C3B 6079   3.327  15.400   9.634 -0.0753  0.0768 -0.1783
  386POPI   C4B 6080   3.393  15.661   9.363 -0.0631 -0.0718 -0.1021
  387POPI    C1 6081  14.835  12.808  10.946  0.1076  0.0144  0.0996
  387POPI    C2 6082  14.931  12.960  11.304  0.0855 -0.0248  0.1223
  387POPI    C3 6083  14.720  12.621  11.281  0.2116 -0.1005  0.0719
  387POPI   PO4 6084  14.975  12.617  10.712 -0.0406 -0.2907 -0.0173
  387POPI   GL1 6085  15.011  12.440  10.374 -0.0866  0.1557  0.2168
  387POPI   GL2 6086  15.187  12.209  10.293  0.1496 -0.1967 -0.4336
  387POPI   C1A 6087  15.214  12.647   9.986  0.0667 -0.0037  0.1058
  387POPI   D2A 6088  15.160  12.589   9.572  0.0034  0.0812 -0.0868
  387POPI   C3A 6089  14.774  12.644   9.523  0.1834  0.2712 -0.0119
  387POPI   C4A 6090  14.554  13.050   9.449  0.0880  0.1350  0.2544
  387POPI   C1B 6091  15.361  12.102   9.870 -0.0387 -0.1582 -0.2297
  387POPI   C2B 6092  15.721  12.220   9.647 -0.1907 -0.0864 -0.0864
  387POPI   C3B 6093  15.899  12.189   9.208 -0.5268  0.5270 -0.2308
  387POPI   C4B 6094  16.104  12.241   8.843  0.0448  0.0268  0.0316
  388POPI    C1 6095  13.323  16.560  10.567 -0.1428  0.1002  0.1638
  388POPI    C2 6096  13.604  16.387  10.794  0.0007 -0.0131 -0.0960
  388POPI    C3 6097  13.221  16.383  10.911  0.1031  0.1380  0.2583
  388POPI   PO4 6098  13.297  16.368  10.340  0.2166 -0.1116  0.2447
  388POPI   GL1 6099  13.465  16.242  10.084  0.1649  0.3199 -0.0659
  388POPI   GL2 6100  13.350  15.997   9.952 -0.3761 -0.1790  0.2687
  388POPI   C1A 6101  13.630  16.499   9.709  0.1170  0.3078 -0.3478
  388POPI   D2A 6102  13.369  16.741   9.547  0.1031 -0.2454  0.0044
  388POPI   C3A 6103  13.377  16.621   9.052  0.2659 -0.1539  0.0734
  388POPI   C4A 6104  13.265  16.589   8.561  0.0411 -0.1283 -0.1025
  388POPI   C1B 6105  13.555  16.039   9.567  0.1576 -0.1044 -0.0243
  388POPI   C2B 6106  13.602  16.183   9.203 -0.0437 -0.1514  0.0628
  388POPI   C3B 6107  13.641  16.270   8.773  0.2687  0.0718 -0.2735
  388POPI   C4B 6108  13.595  16.240   8.288  0.5150 -0.3187  0.3217
  389POPI    C1 6109   0.571   0.610  10.458 -0.0009  0.2229 -0.1516
  389POPI    C2 6110   0.917   0.603  10.659 -0.1557 -0.0179  0.1149
  389POPI    C3 6111   0.570   0.584  10.857 -0.3142 -0.2060 -0.1729
  389POPI   PO4 6112   0.690   0.767  10.265 -0.0051 -0.0754  0.0764
  389POPI   GL1 6113   0.845   0.604   9.866  0.1666 -0.1785  0.1281
  389POPI   GL2 6114   0.480   0.474   9.935 -0.2103 -0.3247  0.0918
  389POPI   C1A 6115   0.983   0.659   9.538 -0.1991 -0.1105 -0.1850
  389POPI   D2A 6116   0.875   0.651   9.242  0.2299 -0.0249 -0.0916
  389POPI   C3A 6117   1.170   0.603   8.963  0.1891 -0.3832  0.1942
  389POPI   C4A 6118   1.302   0.877   8.643 -0.1821  0.1428  0.2641
  389POPI   C1B 6119   0.388   0.618   9.570  0.1611 -0.1267 -0.1947
  389POPI   C2B 6120   0.378   0.656   9.145 -0.1143  0.0732  0.2799
  389POPI   C3B 6121   0.680   0.703   8.794 -0.0810 -0.1997 -0.0940
  389POPI   C4B 6122   0.861   0.702   8.425 -0.3063  0.0519 -0.1827
  390POPI    C1 6123  15.719  11.540  10.685  0.1784  0.1686 -0.0456
  390POPI    C2 6124  16.022  11.495  10.428  0.2227  0.0767  0.0222
  390POPI    C3 6125  16.061  11.372  10.807  0.0555 -0.0534 -0.0016
  390POPI   PO4 6126  15.428  11.497  10.545  0.1645 -0.0526  0.1100
  390POPI   GL1 6127  14.990  11.266  10.262  0.0219  0.2229  0.1296
  390POPI   GL2 6128  14.846  11.614  10.364 -0.1172 -0.0408  0.2529
  390POPI   C1A 6129  15.008  11.203   9.866 -0.0542 -0.0972 -0.0981
  390POPI   D2A 6130  14.965  11.290   9.435  0.2695 -0.0664  0.0297
  390POPI   C3A 6131  15.229  11.112   9.166 -0.1380 -0.1609  0.1464
  390POPI   C4A 6132  15.141  11.088   8.762  0.1180  0.1469 -0.0898
  390POPI   C1B 6133  15.040  11.786  10.025  0.2288  0.0149  0.0932
  390POPI   C2B 6134  14.970  11.696   9.695  0.0523 -0.0196 -0.0286
  390POPI   C3B 6135  14.896  11.711   9.238 -0.0010  0.1863 -0.0345
  390POPI   C4B 6136  14.897  11.973   8.870 -0.2550  0.3738 -0.0080
  391POPI    C1 6137  15.604  11.858  11.115  0.0309 -0.3163 -0.2432
  391POPI    C2 6138  15.220  11.907  11.215  0.0939 -0.0977 -0.1022
  391POPI    C3 6139  15.346  11.556  11.072 -0.1381 -0.2007 -0.0579
  391POPI   PO4 6140  15.645  12.051  10.983  0.1455  0.0605  0.3798
  391POPI   GL1 6141  15.618  11.983  10.479  0.4290  0.2511  0.3206
  391POPI   GL2 6142  15.728  11.930  10.247 -0.2085 -0.4213  0.2948
  391POPI   C1A 6143  15.680  12.411  10.205  0.1232 -0.0581 -0.0721
  391POPI   D2A 6144  15.720  12.676   9.853 -0.1209 -0.1160 -0.0880
  391POPI   C3A 6145  15.658  12.609   9.372 -0.1214  0.1020 -0.2018
  391POPI   C4A 6146  15.650  12.527   8.947 -0.0410 -0.1612  0.3347
  391POPI   C1B 6147  15.922  11.835   9.887 -0.0165 -0.1959  0.3692
  391POPI   C2B 6148  16.061  11.791   9.525  0.0669  0.1486  0.1248
  391POPI   C3B 6149  16.108  11.786   9.025  0.1729 -0.0211 -0.0559
  391POPI   C4B 6150  15.742  11.679   8.796 -0.1111  0.1598 -0.0427
  392POPI    C1 6151  16.002  10.859  10.645 -0.4491  0.2364 -0.0547
  392POPI    C2 6152  16.079  10.966  11.022 -0.3005  0.0570 -0.0324
  392POPI    C3 6153  15.890  10.622  10.947 -0.0790 -0.0448 -0.1311
  392POPI   PO4 6154  16.129  11.000  10.494 -0.2681 -0.0748 -0.2925
  392POPI   GL1 6155  16.223  10.945  10.038 -0.0340  0.1598  0.0656
  392POPI   GL2 6156  16.065  10.731   9.960  0.0246 -0.0042 -0.0496
  392POPI   C1A 6157  16.698  10.954   9.925  0.0416 -0.0172  0.2445
  392POPI   D2A 6158  16.944  11.155   9.492 -0.1174 -0.3452 -0.1283
  392POPI   C3A 6159  16.800  11.021   8.997 -0.0055 -0.2200 -0.5018
  392POPI   C4A 6160  16.700  11.082   8.608 -0.0633 -0.1219  0.1222
  392POPI   C1B 6161  16.105  10.628   9.553 -0.2790  0.0282  0.0747
  392POPI   C2B 6162  15.903  10.576   9.173 -0.1392  0.1832  0.1833
  392POPI   C3B 6163  15.937  10.658   8.636  0.1019  0.0630  0.0505
  392POPI   C4B 6164  15.704  10.460   8.304 -0.1637 -0.1749  0.2849
  393POPI    C1 6165   5.654  17.877  10.063 -0.0632  0.0103 -0.1310
  393POPI    C2 6166   5.314  17.729  10.212  0.0965 -0.1619  0.0678
  393POPI    C3 6167   5.386  18.121  10.234 -0.0532 -0.1352  0.0974
  393POPI   PO4 6168   5.710  17.799   9.818  0.1464 -0.0920 -0.4946
  393POPI   GL1 6169   5.568  17.781   9.330 -0.2811  0.1337 -0.5073
  393POPI   GL2 6170   5.703  18.138   9.419  0.0322 -0.0910  0.3051
  393POPI   C1A 6171   5.627  17.756   8.825  0.1070 -0.0705 -0.0032
  393POPI   D2A 6172   5.644  17.848   8.369 -0.1949 -0.0303 -0.0430
  393POPI   C3A 6173   5.462  18.209   8.254 -0.0874  0.1296 -0.2094
  393POPI   C4A 6174   5.409  18.387   7.845  0.0248  0.3151  0.1025
  393POPI   C1B 6175   5.877  18.118   9.054 -0.1798  0.2216 -0.1572
  393POPI   C2B 6176   5.823  18.267   8.620  0.1519 -0.2614  0.0746
  393POPI   C3B 6177   5.931  18.569   8.358 -0.0722 -0.0885 -0.0097
  393POPI   C4B 6178   6.090  18.901   8.098 -0.1139 -0.0719  0.0130
  394POPI    C1 6179  17.816   2.911  10.646 -0.0895  0.0417 -0.1169
  394POPI    C2 6180  17.450   2.749  10.660 -0.0153 -0.1353 -0.1837
  394POPI    C3 6181  17.698   2.712  10.972 -0.1407  0.1974 -0.0395
  394POPI   PO4 6182  17.881   2.802  10.373  0.0500 -0.0163 -0.2088
  394POPI   GL1 6183  17.693   2.780  10.013  0.1807 -0.0087 -0.3599
  394POPI   GL2 6184  17.895   2.535   9.838 -0.2116 -0.0071 -0.1577
  394POPI   C1A 6185  17.800   3.110   9.703  0.0335 -0.0073 -0.1311
  394POPI   D2A 6186  17.605   3.325   9.420 -0.1330 -0.1458 -0.0706
  394POPI   C3A 6187  17.414   3.075   9.194 -0.1509  0.0331  0.0155
  394POPI   C4A 6188  17.332   2.670   9.151 -0.1255 -0.0471  0.0789
  394POPI   C1B 6189  17.826   2.325   9.410  0.0367  0.3220  0.2785
  394POPI   C2B 6190  17.678   2.273   8.937 -0.1198 -0.1444  0.0780
  394POPI   C3B 6191  17.353   2.374   8.745 -0.0910 -0.0037  0.1283
  394POPI   C4B 6192  17.041   2.654   8.593 -0.0805  0.3216  0.0719
  395POPI    C1 6193   7.552   3.785  10.842  0.1078  0.3381  0.3215
  395POPI    C2 6194   7.193   3.607  10.837  0.2809 -0.0157  0.0160
  395POPI    C3 6195   7.222   3.997  10.920 -0.1775  0.0271 -0.0021
  395POPI   PO4 6196   7.747   3.711  10.641  0.0591  0.0759  0.1476
  395POPI   GL1 6197   7.891   3.721  10.222 -0.1166 -0.2091 -0.0517
  395POPI   GL2 6198   7.760   3.940  10.036  0.3863  0.2457 -0.1163
  395POPI   C1A 6199   8.209   3.829   9.895  0.0057  0.4020  0.0350
  395POPI   D2A 6200   8.081   4.156   9.745 -0.0794 -0.1060 -0.2374
  395POPI   C3A 6201   8.248   4.545   9.782  0.1041 -0.1290  0.0607
  395POPI   C4A 6202   8.381   4.936   9.825  0.1183  0.0209  0.0617
  395POPI   C1B 6203   7.749   3.813   9.627  0.0360 -0.2314 -0.0393
  395POPI   C2B 6204   7.919   3.859   9.243  0.3402 -0.2022  0.0275
  395POPI   C3B 6205   8.139   4.064   8.977  0.0026 -0.3759 -0.0906
  395POPI   C4B 6206   8.226   4.089   8.485 -0.0401  0.0252 -0.2639
  396POPI    C1 6207  13.228  17.556  10.578 -0.1599 -0.0815  0.0353
  396POPI    C2 6208  13.256  17.690  10.954  0.0063  0.0863 -0.0350
  396POPI    C3 6209  12.989  17.408  10.862 -0.0480  0.0571  0.2048
  396POPI   PO4 6210  13.471  17.625  10.483  0.0809 -0.0917  0.0793
  396POPI   GL1 6211  13.694  17.634  10.118 -0.0647  0.1123  0.1319
  396POPI   GL2 6212  13.964  17.765  10.103 -0.0470 -0.0413  0.1474
  396POPI   C1A 6213  13.642  17.372   9.759 -0.0380  0.0357  0.1632
  396POPI   D2A 6214  13.264  17.283   9.492 -0.3917  0.0558  0.0968
  396POPI   C3A 6215  12.938  16.965   9.351 -0.2334  0.0226  0.0731
  396POPI   C4A 6216  12.885  16.847   8.949 -0.0893  0.0796 -0.1588
  396POPI   C1B 6217  13.774  17.820   9.659 -0.1750 -0.0107 -0.2377
  396POPI   C2B 6218  13.757  17.735   9.225 -0.0005 -0.2613 -0.1026
  396POPI   C3B 6219  13.617  17.596   8.886 -0.0655  0.0718 -0.0253
  396POPI   C4B 6220  13.362  17.644   8.447 -0.0645  0.1749  0.1651
  397POPI    C1 6221   0.165   5.117  10.359 -0.0250  0.1999 -0.1020
  397POPI    C2 6222   0.265   4.946  10.706  0.1040 -0.1371 -0.3013
  397POPI    C3 6223   0.331   5.336  10.650  0.0292 -0.0668  0.0714
  397POPI   PO4 6224   0.349   5.117  10.166  0.1898  0.0371 -0.1312
  397POPI   GL1 6225   0.351   5.203   9.734  0.0253 -0.3132 -0.2329
  397POPI   GL2 6226   0.229   5.499   9.811 -0.2276 -0.3806  0.0432
  397POPI   C1A 6227   0.448   5.067   9.333  0.2991 -0.0787 -0.1048
  397POPI   D2A 6228   0.612   4.911   9.019 -0.3447 -0.2839  0.1808
  397POPI   C3A 6229   0.520   5.086   8.593  0.2828  0.0934  0.0777
  397POPI   C4A 6230   0.523   5.455   8.400 -0.1660  0.1111  0.0490
  397POPI   C1B 6231   0.297   5.531   9.348 -0.1489 -0.0772  0.1787
  397POPI   C2B 6232   0.325   5.465   8.921 -0.0281 -0.0922 -0.1903
  397POPI   C3B 6233  -0.039   5.638   8.747  0.0274 -0.0355  0.2506
  397POPI   C4B 6234  -0.335   5.841   8.380  0.0192  0.1574 -0.0581
  398POPI    C1 6235   0.961   5.330  10.101 -0.1538 -0.0564  0.0486
  398POPI    C2 6236   0.618   5.529  10.156  0.0090  0.2234  0.0730
  398POPI    C3 6237   0.843   5.428  10.471 -0.1174 -0.0856  0.0681
  398POPI   PO4 6238   1.060   5.475   9.948  0.0066  0.3637  0.0225
  398POPI   GL1 6239   0.897   5.657   9.613 -0.2001 -0.1665  0.2720
  398POPI   GL2 6240   0.774   5.409   9.579  0.1232  0.1005 -0.1557
  398POPI   C1A 6241   1.199   6.015   9.532 -0.0896 -0.2232  0.0391
  398POPI   D2A 6242   1.656   6.016   9.503 -0.1011 -0.2058  0.2322
  398POPI   C3A 6243   1.687   5.982   9.061 -0.3427 -0.3373  0.0337
  398POPI   C4A 6244   1.773   6.210   8.681  0.0153 -0.2320 -0.0452
  398POPI   C1B 6245   0.875   5.406   9.172 -0.0576  0.2333  0.0471
  398POPI   C2B 6246   0.847   5.355   8.803  0.1797 -0.1381  0.0902
  398POPI   C3B 6247   1.075   5.353   8.416  0.2190  0.3045  0.0060
  398POPI   C4B 6248   1.257   5.695   8.217 -0.0927  0.1923  0.1260
  399POPI    C1 6249  11.994  14.325  10.371 -0.0984 -0.0524 -0.2032
  399POPI    C2 6250  12.116  13.957  10.470  0.0274  0.0100 -0.1246
  399POPI    C3 6251  11.729  14.055  10.504  0.0242 -0.0553  0.0401
  399POPI   PO4 6252  12.034  14.353  10.076  0.0470  0.2168  0.0326
  399POPI   GL1 6253  11.972  14.586   9.835  0.0262  0.0032  0.1465
  399POPI   GL2 6254  12.209  14.832   9.965 -0.0629  0.1872  0.2587
  399POPI   C1A 6255  12.088  14.508   9.275 -0.0889  0.1145 -0.0564
  399POPI   D2A 6256  12.060  14.504   8.824 -0.2644 -0.2671 -0.1189
  399POPI   C3A 6257  12.133  14.357   8.400 -0.0661 -0.0067 -0.2203
  399POPI   C4A 6258  12.193  14.514   8.042 -0.1325  0.1425 -0.2653
  399POPI   C1B 6259  12.223  14.941   9.549  0.0879  0.3667  0.1869
  399POPI   C2B 6260  12.367  15.014   9.163  0.0297  0.1030 -0.1348
  399POPI   C3B 6261  12.498  15.146   8.820 -0.0713 -0.0704  0.0982
  399POPI   C4B 6262  12.615  15.386   8.419 -0.0885 -0.1558  0.3120
  400POPI    C1 6263   8.079   5.244  10.738  0.2061 -0.2194  0.1096
  400POPI    C2 6264   8.471   5.176  10.774  0.2545  0.1045  0.2273
  400POPI    C3 6265   8.265   5.326  11.083  0.0072 -0.1964  0.2134
  400POPI   PO4 6266   7.954   4.823  10.573 -0.1972 -0.1285 -0.2593
  400POPI   GL1 6267   8.131   4.622  10.253 -0.0274  0.0545 -0.0170
  400POPI   GL2 6268   7.842   4.400  10.166 -0.3404  0.1164  0.0767
  400POPI   C1A 6269   7.918   4.843   9.946  0.2001 -0.4037 -0.1638
  400POPI   D2A 6270   7.845   5.260   9.712 -0.0990  0.1334  0.1286
  400POPI   C3A 6271   7.853   5.645   9.854  0.2752  0.2576 -0.3630
  400POPI   C4A 6272   8.161   5.947   9.883 -0.1968  0.0643  0.0264
  400POPI   C1B 6273   7.643   4.398   9.685  0.0317  0.1074  0.0928
  400POPI   C2B 6274   7.590   4.326   9.291 -0.3032  0.0184 -0.1601
  400POPI   C3B 6275   7.658   4.189   8.902 -0.3333 -0.3645  0.0169
  400POPI   C4B 6276   7.803   4.403   8.432 -0.4147  0.0820 -0.0913
  401POPI    C1 6277  14.923   8.439  10.934 -0.3119 -0.0021 -0.0249
  401POPI    C2 6278  14.723   8.104  11.025  0.0819 -0.2740 -0.1375
  401POPI    C3 6279  14.877   8.331  11.317  0.1382 -0.3945 -0.0727
  401POPI   PO4 6280  14.980   8.389  10.722  0.1006 -0.2532  0.1976
  401POPI   GL1 6281  14.841   8.356  10.237  0.3519 -0.1410 -0.2433
  401POPI   GL2 6282  14.990   8.153  10.115  0.0916 -0.2107 -0.2263
  401POPI   C1A 6283  14.819   8.672   9.980 -0.2624  0.2076  0.1540
  401POPI   D2A 6284  14.927   8.975   9.763 -0.3272 -0.0593 -0.2461
  401POPI   C3A 6285  14.898   9.334   9.337  0.3207  0.2052 -0.0320
  401POPI   C4A 6286  14.809   9.745   9.245  0.0169 -0.1821  0.0091
  401POPI   C1B 6287  14.817   8.120   9.628 -0.0015 -0.0378  0.1548
  401POPI   C2B 6288  14.706   8.356   9.342  0.1480  0.1826  0.0649
  401POPI   C3B 6289  14.803   8.366   8.949  0.0943  0.0345  0.0609
  401POPI   C4B 6290  14.647   8.144   8.587 -0.1052 -0.0186 -0.1657
  402POPI    C1 6291   4.260   2.109   9.996 -0.1515  0.0754 -0.2823
  402POPI    C2 6292   4.005   1.802  10.017 -0.0039 -0.0374 -0.1072
  402POPI    C3 6293   4.372   1.747   9.868  0.0867  0.0097  0.0948
  402POPI   PO4 6294   4.114   2.266   9.891  0.0424  0.0765 -0.1292
  402POPI   GL1 6295   4.206   2.512   9.485 -0.1082  0.0358  0.1141
  402POPI   GL2 6296   4.341   2.068   9.449  0.2095  0.2910  0.2011
  402POPI   C1A 6297   4.424   2.420   9.123 -0.1321 -0.0892  0.3376
  402POPI   D2A 6298   4.392   2.095   8.825 -0.2758  0.1703 -0.0158
  402POPI   C3A 6299   4.247   2.281   8.439 -0.2465 -0.1081 -0.0038
  402POPI   C4A 6300   4.170   2.160   8.071 -0.2441 -0.1696  0.0055
  402POPI   C1B 6301   4.690   1.980   9.393 -0.2058  0.1735 -0.1136
  402POPI   C2B 6302   4.938   1.719   9.098  0.0124  0.0271  0.0414
  402POPI   C3B 6303   4.994   1.710   8.677 -0.0334  0.0841 -0.0418
  402POPI   C4B 6304   5.157   2.067   8.373 -0.1984  0.1077 -0.0813
  403POPI    C1 6305   3.804  13.380  10.273 -0.0778 -0.1583  0.0418
  403POPI    C2 6306   3.621  13.633  10.523  0.1567  0.0279  0.0291
  403POPI    C3 6307   3.426  13.312  10.384 -0.1483  0.2055  0.0370
  403POPI   PO4 6308   3.843  13.491   9.987 -0.1399 -0.0758 -0.0032
  403POPI   GL1 6309   3.743  13.428   9.612 -0.1341  0.1505 -0.1718
  403POPI   GL2 6310   3.968  13.357   9.436 -0.1541  0.0087 -0.1459
  403POPI   C1A 6311   3.555  13.489   9.102  0.0348 -0.1725 -0.0993
  403POPI   D2A 6312   3.498  13.597   8.739  0.1399 -0.1457  0.0266
  403POPI   C3A 6313   3.655  13.668   8.277 -0.1881 -0.0161 -0.1498
  403POPI   C4A 6314   3.700  13.586   7.877 -0.0260  0.0727 -0.0879
  403POPI   C1B 6315   4.098  13.395   8.983 -0.3435 -0.2644  0.1796
  403POPI   C2B 6316   4.049  13.624   8.691 -0.2693  0.4505  0.0549
  403POPI   C3B 6317   4.067  13.958   8.297  0.0553  0.3507  0.2524
  403POPI   C4B 6318   4.278  14.215   7.870  0.3390  0.3125  0.1070
  404POPI    C1 6319  12.680  16.245  10.446 -0.0264  0.0559 -0.3964
  404POPI    C2 6320  12.915  16.091  10.162  0.1502 -0.1844 -0.1262
  404POPI    C3 6321  13.014  16.049  10.547 -0.1960 -0.0477 -0.0187
  404POPI   PO4 6322  12.503  16.165  10.424 -0.0705 -0.5212 -0.0996
  404POPI   GL1 6323  12.354  16.105   9.994 -0.1672 -0.2066 -0.1376
  404POPI   GL2 6324  12.546  15.903   9.827  0.1812 -0.1489  0.1232
  404POPI   C1A 6325  12.504  16.527   9.932 -0.0164 -0.2515 -0.1220
  404POPI   D2A 6326  12.670  16.745   9.662  0.0896 -0.1136 -0.0221
  404POPI   C3A 6327  12.982  16.983   9.830  0.2307  0.2055 -0.0662
  404POPI   C4A 6328  13.160  17.331  10.000  0.2098 -0.0698  0.1746
  404POPI   C1B 6329  12.549  16.064   9.549 -0.0170  0.2875  0.2314
  404POPI   C2B 6330  12.460  15.947   9.215 -0.3081 -0.1341  0.0452
  404POPI   C3B 6331  12.592  15.990   8.819 -0.3315 -0.0507 -0.3069
  404POPI   C4B 6332  12.721  15.826   8.525  0.0002  0.1631 -0.1791
  405POPI    C1 6333   2.459   9.893  10.459 -0.0764  0.0815  0.0409
  405POPI    C2 6334   2.090   9.989  10.580 -0.1103 -0.1217  0.1023
  405POPI    C3 6335   2.142   9.719  10.290 -0.0250  0.2684 -0.2566
  405POPI   PO4 6336   2.562  10.158  10.395  0.0480  0.1366  0.0032
  405POPI   GL1 6337   2.747  10.197   9.952 -0.1087  0.0140  0.0506
  405POPI   GL2 6338   2.523   9.881   9.846  0.0363 -0.1669 -0.0695
  405POPI   C1A 6339   2.896  10.265   9.558  0.1584 -0.3102 -0.3934
  405POPI   D2A 6340   2.759  10.230   9.156  0.1157  0.2659  0.1134
  405POPI   C3A 6341   2.607  10.293   8.773  0.0400 -0.0184  0.0775
  405POPI   C4A 6342   2.390  10.336   8.458 -0.0773 -0.1099 -0.2837
  405POPI   C1B 6343   2.371   9.863   9.439  0.3778  0.1282 -0.1831
  405POPI   C2B 6344   2.344   9.857   8.965  0.3791  0.0285 -0.0578
  405POPI   C3B 6345   2.180   9.892   8.657  0.0413  0.2967 -0.1944
  405POPI   C4B 6346   2.153   9.994   8.192 -0.0162  0.1268 -0.0056
  406POPI    C1 6347   4.608  12.780  10.008 -0.2402 -0.2559  0.0997
  406POPI    C2 6348   4.861  12.515   9.848 -0.0572 -0.0176 -0.0117
  406POPI    C3 6349   4.644  12.415  10.169  0.3699 -0.1420  0.2472
  406POPI   PO4 6350   4.503  12.937   9.765 -0.0975  0.0077 -0.5041
  406POPI   GL1 6351   4.248  12.946   9.456 -0.3150  0.1139  0.0366
  406POPI   GL2 6352   4.370  13.078   9.285 -0.1232  0.0158  0.1136
  406POPI   C1A 6353   4.200  12.684   9.085  0.3722  0.0792 -0.0599
  406POPI   D2A 6354   4.326  12.470   8.688  0.0036  0.0100 -0.0816
  406POPI   C3A 6355   4.308  12.544   8.247 -0.0238  0.3284  0.0194
  406POPI   C4A 6356   4.680  12.725   7.946 -0.1889 -0.3821  0.0796
  406POPI   C1B 6357   4.553  12.980   8.858 -0.2129 -0.2018 -0.0540
  406POPI   C2B 6358   4.382  13.069   8.532 -0.1226 -0.2253 -0.2368
  406POPI   C3B 6359   4.580  13.219   8.054  0.1393  0.1983 -0.1793
  406POPI   C4B 6360   4.634  13.285   7.713  0.2284  0.2626 -0.1349
  407POPI    C1 6361  16.354   6.697  10.596  0.0297 -0.0238  0.3017
  407POPI    C2 6362  16.581   6.402  10.451 -0.0580  0.0778 -0.0527
  407POPI    C3 6363  16.710   6.780  10.433  0.0024  0.0766  0.2919
  407POPI   PO4 6364  16.070   6.662  10.504 -0.0702 -0.1801 -0.0834
  407POPI   GL1 6365  15.722   6.537  10.204  0.1904 -0.0050  0.0826
  407POPI   GL2 6366  15.646   6.834  10.249 -0.0749  0.1612 -0.0436
  407POPI   C1A 6367  15.819   6.665   9.765  0.0983 -0.1018  0.0059
  407POPI   D2A 6368  15.872   6.853   9.392  0.1570 -0.0094  0.1479
  407POPI   C3A 6369  15.830   6.698   8.989  0.1612 -0.3687 -0.0274
  407POPI   C4A 6370  15.841   6.855   8.607  0.2124 -0.1409  0.0723
  407POPI   C1B 6371  15.571   7.042   9.992 -0.0354  0.1770 -0.1797
  407POPI   C2B 6372  15.695   7.185   9.688 -0.0069 -0.0271  0.0505
  407POPI   C3B 6373  15.698   7.297   9.289 -0.0383 -0.1702 -0.1530
  407POPI   C4B 6374  15.776   7.310   8.905  0.0144 -0.1148 -0.2196
  408POPI    C1 6375   5.236   9.416  10.024  0.0541 -0.0008 -0.0650
  408POPI    C2 6376   5.381   9.607  10.344  0.2355 -0.0514 -0.1159
  408POPI    C3 6377   5.306   9.214  10.362  0.1288 -0.0305 -0.0981
  408POPI   PO4 6378   5.032   9.558   9.912 -0.0020 -0.0856 -0.0389
  408POPI   GL1 6379   4.900   9.524   9.417 -0.2741 -0.0615  0.0797
  408POPI   GL2 6380   5.148   9.743   9.390  0.1392 -0.0073 -0.0580
  408POPI   C1A 6381   4.809   9.186   9.052  0.2149 -0.0938  0.1794
  408POPI   D2A 6382   4.883   8.889   8.723  0.3871  0.0239 -0.1714
  408POPI   C3A 6383   5.140   8.951   8.298 -0.1831 -0.0144 -0.1386
  408POPI   C4A 6384   5.253   8.600   8.043 -0.0761 -0.1609  0.2370
  408POPI   C1B 6385   4.969   9.735   8.966  0.0569  0.0433 -0.0352
  408POPI   C2B 6386   5.035   9.841   8.503 -0.2406  0.2472  0.1747
  408POPI   C3B 6387   5.202  10.130   8.183 -0.3807  0.0161  0.3215
  408POPI   C4B 6388   5.356  10.112   7.647  0.1835  0.1811 -0.4039
  409POPI    C1 6389  14.166   7.572  10.542  0.0376 -0.3129  0.0132
  409POPI    C2 6390  14.425   7.745  10.792  0.2624 -0.3103 -0.2170
  409POPI    C3 6391  14.114   7.539  10.937  0.0858  0.1368  0.0617
  409POPI   PO4 6392  14.273   7.464  10.310  0.1450  0.0766 -0.3714
  409POPI   GL1 6393  14.166   7.464   9.941  0.0480  0.0963 -0.0963
  409POPI   GL2 6394  14.098   7.121  10.000  0.2096 -0.0681  0.2581
  409POPI   C1A 6395  14.276   7.459   9.593  0.1251 -0.0237 -0.0013
  409POPI   D2A 6396  14.305   7.567   9.208  0.0925 -0.0509  0.0646
  409POPI   C3A 6397  14.331   7.712   8.818  0.1826 -0.1337  0.0919
  409POPI   C4A 6398  14.259   7.870   8.401  0.0089  0.2084 -0.0719
  409POPI   C1B 6399  14.177   7.025   9.511 -0.2325  0.0396  0.0262
  409POPI   C2B 6400  14.276   7.096   8.981  0.0493  0.3083  0.0884
  409POPI   C3B 6401  14.528   7.323   8.565  0.1461  0.1212 -0.1182
  409POPI   C4B 6402  14.996   7.349   8.296  0.1696 -0.4735 -0.0817
  410POPI    C1 6403  10.953   1.602  10.383  0.1741 -0.3788 -0.0619
  410POPI    C2 6404  10.599   1.441  10.476 -0.0189  0.1310  0.1207
  410POPI    C3 6405  10.774   1.698  10.727  0.3777  0.0563 -0.0710
  410POPI   PO4 6406  10.866   1.766  10.139 -0.2314 -0.1314 -0.2054
  410POPI   GL1 6407  10.525   1.935   9.867 -0.0519  0.0729 -0.0927
  410POPI   GL2 6408  10.698   1.978   9.728 -0.1273 -0.3167  0.4488
  410POPI   C1A 6409  10.147   1.891   9.683  0.1431 -0.2575 -0.3135
  410POPI   D2A 6410   9.942   2.112   9.332 -0.0176 -0.1177  0.2505
  410POPI   C3A 6411   9.990   2.117   8.881  0.1135  0.0570 -0.0008
  410POPI   C4A 6412   9.986   2.401   8.583 -0.0071 -0.2845 -0.0206
  410POPI   C1B 6413  10.456   2.017   9.366 -0.0672 -0.3373 -0.0758
  410POPI   C2B 6414  10.513   2.035   8.870  0.2847  0.0119  0.1540
  410POPI   C3B 6415  10.464   1.967   8.466  0.2876 -0.0972 -0.2146
  410POPI   C4B 6416  10.349   2.262   8.199 -0.0653  0.0988  0.1217
  411POPI    C1 6417   0.306   9.802  10.401  0.1039  0.3642  0.0564
  411POPI    C2 6418   0.622   9.970  10.580  0.0233  0.2819  0.2794
  411POPI    C3 6419   0.273   9.945  10.773  0.0275 -0.1216  0.2435
  411POPI   PO4 6420   0.256   9.866  10.169 -0.2330 -0.1939  0.0476
  411POPI   GL1 6421   0.306  10.021   9.780 -0.4290  0.0508  0.0431
  411POPI   GL2 6422  -0.007   9.993   9.788  0.2411 -0.4687 -0.1934
  411POPI   C1A 6423   0.241   9.675   9.404 -0.1796  0.0790 -0.0757
  411POPI   D2A 6424   0.453   9.614   9.061  0.0691 -0.1358  0.1116
  411POPI   C3A 6425   0.735   9.866   8.901  0.0910 -0.2422  0.3200
  411POPI   C4A 6426   0.745   9.860   8.514 -0.0771 -0.1562 -0.0706
  411POPI   C1B 6427  -0.018  10.216   9.406 -0.3368  0.0122 -0.0490
  411POPI   C2B 6428  -0.031  10.409   8.963  0.1790  0.0531  0.1800
  411POPI   C3B 6429   0.237  10.338   8.565 -0.0171 -0.2752  0.0694
  411POPI   C4B 6430   0.571  10.307   8.338  0.0491 -0.1192  0.0268
  412POPI    C1 6431   4.287  12.504   9.793  0.0255 -0.1126  0.0238
  412POPI    C2 6432   3.897  12.504   9.882  0.0168 -0.1241 -0.0146
  412POPI    C3 6433   4.163  12.629  10.153 -0.0199 -0.0414 -0.0165
  412POPI   PO4 6434   4.400  12.299   9.732  0.1960  0.0364  0.3203
  412POPI   GL1 6435   4.185  12.238   9.366  0.2640  0.1093 -0.1847
  412POPI   GL2 6436   3.949  12.271   9.418 -0.4158 -0.1390 -0.4452
  412POPI   C1A 6437   4.539  12.198   9.029  0.2318 -0.0805 -0.2353
  412POPI   D2A 6438   4.800  12.186   8.627 -0.0839 -0.0051 -0.4274
  412POPI   C3A 6439   4.908  12.449   8.359  0.0362  0.1337  0.1020
  412POPI   C4A 6440   4.794  12.801   8.445  0.1807  0.0467 -0.0546
  412POPI   C1B 6441   3.794  12.385   8.887 -0.0772  0.3246  0.1245
  412POPI   C2B 6442   3.812  12.488   8.462 -0.1070 -0.0520 -0.3700
  412POPI   C3B 6443   3.848  12.753   8.068  0.0622 -0.0521  0.0693
  412POPI   C4B 6444   4.188  12.884   7.908  0.2758  0.0546 -0.0397
  413POPI    C1 6445  15.236  10.945  10.625 -0.2199  0.0490 -0.3508
  413POPI    C2 6446  15.019  10.906  10.959 -0.1632 -0.1941 -0.3403
  413POPI    C3 6447  15.041  11.261  10.775 -0.0906 -0.0258 -0.0159
  413POPI   PO4 6448  15.433  10.707  10.621  0.2106 -0.0944 -0.0748
  413POPI   GL1 6449  15.722  10.579  10.282  0.2584 -0.4073  0.1421
  413POPI   GL2 6450  15.874  10.266  10.102  0.2670  0.0649  0.0163
  413POPI   C1A 6451  15.590  10.519   9.803  0.2086 -0.2721 -0.2851
  413POPI   D2A 6452  15.471  10.222   9.450  0.2111  0.0641 -0.0150
  413POPI   C3A 6453  15.655  10.143   9.089  0.3027  0.1012  0.0230
  413POPI   C4A 6454  15.728  10.110   8.710  0.3393 -0.1035  0.1691
  413POPI   C1B 6455  15.786   9.898   9.820 -0.0740  0.0724  0.2294
  413POPI   C2B 6456  15.863   9.694   9.420  0.2155  0.1759 -0.1210
  413POPI   C3B 6457  15.885   9.644   8.988  0.1850 -0.3205  0.2855
  413POPI   C4B 6458  16.001   9.713   8.598 -0.0969 -0.0552 -0.0062
  414POPI    C1 6459   2.071  10.334  10.142  0.1848 -0.0361  0.0061
  414POPI    C2 6460   2.196  10.471  10.497  0.0851 -0.0153  0.0336
  414POPI    C3 6461   1.806  10.475  10.407  0.0842 -0.2467  0.0199
  414POPI   PO4 6462   2.281  10.306   9.969  0.3827 -0.2935  0.3603
  414POPI   GL1 6463   2.358  10.314   9.551  0.0258 -0.0871  0.4048
  414POPI   GL2 6464   2.015  10.393   9.536  0.0082 -0.0491 -0.1171
  414POPI   C1A 6465   2.229  10.333   9.102 -0.1604 -0.1348  0.0456
  414POPI   D2A 6466   1.978  10.447   8.702  0.0603 -0.0130  0.2957
  414POPI   C3A 6467   1.938  10.453   8.250 -0.3725  0.0279  0.1708
  414POPI   C4A 6468   1.858  10.390   7.839 -0.0889  0.3489  0.0161
  414POPI   C1B 6469   1.708  10.441   9.175  0.2040 -0.0170 -0.3543
  414POPI   C2B 6470   1.505  10.677   8.871  0.3097  0.2900  0.0491
  414POPI   C3B 6471   1.668  10.792   8.544 -0.1405 -0.0527  0.0582
  414POPI   C4B 6472   1.440  11.019   8.269 -0.3699  0.3144  0.0402
  415POPI    C1 6473  11.031   6.002  10.248  0.1344 -0.3857  0.1202
  415POPI    C2 6474  10.686   6.171  10.361  0.2415  0.0673 -0.2007
  415POPI    C3 6475  10.954   6.060  10.636 -0.0606 -0.0820  0.0399
  415POPI   PO4 6476  11.117   6.224  10.109 -0.2023 -0.2983  0.2730
  415POPI   GL1 6477  11.248   6.374   9.808  0.2738  0.2153 -0.1558
  415POPI   GL2 6478  11.134   6.684   9.745  0.0268  0.2535  0.2568
  415POPI   C1A 6479  11.257   6.004   9.506 -0.1001  0.0102  0.2142
  415POPI   D2A 6480  11.141   5.617   9.285 -0.1848  0.0541 -0.3931
  415POPI   C3A 6481  11.076   5.777   8.886 -0.2886 -0.0543 -0.3700
  415POPI   C4A 6482  11.340   5.638   8.436 -0.2405  0.2686  0.1130
  415POPI   C1B 6483  11.420   6.469   9.318 -0.0907 -0.3246  0.0166
  415POPI   C2B 6484  11.429   6.164   8.997  0.0951  0.0029 -0.2506
  415POPI   C3B 6485  11.620   5.991   8.671  0.0336  0.0187  0.1058
  415POPI   C4B 6486  11.793   6.115   8.298 -0.0521 -0.1610  0.1829
  416POPI    C1 6487   2.159  11.657  10.452 -0.2580 -0.1917 -0.0344
  416POPI    C2 6488   2.509  11.575  10.628 -0.0993  0.0410 -0.2351
  416POPI    C3 6489   2.167  11.456  10.797  0.0760 -0.1955 -0.0410
  416POPI   PO4 6490   2.196  11.625  10.137 -0.3902 -0.1459 -0.4579
  416POPI   GL1 6491   1.951  11.718   9.764 -0.2236  0.1444 -0.0017
  416POPI   GL2 6492   2.271  11.882   9.698 -0.0921  0.1024  0.1809
  416POPI   C1A 6493   1.910  11.387   9.443  0.0894 -0.1034  0.0082
  416POPI   D2A 6494   1.691  11.177   8.969  0.1944 -0.3219  0.0048
  416POPI   C3A 6495   1.369  11.293   8.643  0.1728 -0.1706  0.1231
  416POPI   C4A 6496   1.154  11.386   8.386  0.0118  0.1055 -0.0821
  416POPI   C1B 6497   2.343  11.688   9.367 -0.0459  0.0350 -0.1304
  416POPI   C2B 6498   2.481  11.731   8.948  0.1374 -0.1311  0.0261
  416POPI   C3B 6499   2.431  11.742   8.578 -0.0260  0.0769 -0.1750
  416POPI   C4B 6500   2.472  11.997   8.306 -0.1326 -0.3770 -0.1101
  417POPI    C1 6501   0.509   1.577  10.541 -0.2347 -0.1498 -0.2815
  417POPI    C2 6502   0.170   1.779  10.605 -0.3877 -0.4398 -0.1580
  417POPI    C3 6503   0.330   1.557  10.898  0.0101 -0.1622 -0.1569
  417POPI   PO4 6504   0.508   1.459  10.275 -0.0201  0.1077  0.1508
  417POPI   GL1 6505   0.497   1.556   9.920  0.0772  0.2100  0.1783
  417POPI   GL2 6506   0.829   1.670   9.903 -0.0255  0.0191  0.1790
  417POPI   C1A 6507   0.086   1.574   9.704 -0.1526 -0.2009  0.0274
  417POPI   D2A 6508   0.034   1.417   9.268 -0.1315 -0.0176  0.1002
  417POPI   C3A 6509  -0.200   1.200   9.012 -0.2640  0.1907 -0.0617
  417POPI   C4A 6510  -0.417   1.096   8.595  0.0363  0.1152  0.0548
  417POPI   C1B 6511   0.863   1.648   9.411 -0.1911 -0.1647 -0.1839
  417POPI   C2B 6512   0.998   1.640   9.054  0.1759 -0.0625 -0.3281
  417POPI   C3B 6513   1.039   1.673   8.660  0.0504  0.1070  0.0196
  417POPI   C4B 6514   1.036   1.841   8.193 -0.0811 -0.2652 -0.0406
  418POPI    C1 6515   3.614  16.074  10.766 -0.2213 -0.1111  0.2629
  418POPI    C2 6516   3.649  16.438  10.929 -0.0961  0.0212 -0.0516
  418POPI    C3 6517   3.743  16.113  11.143  0.0678  0.1905  0.1369
  418POPI   PO4 6518   3.616  16.112  10.518  0.0221 -0.2324  0.0111
  418POPI   GL1 6519   3.673  15.903  10.042  0.3108 -0.1980 -0.0042
  418POPI   GL2 6520   3.943  15.867   9.920 -0.1249 -0.2182  0.0094
  418POPI   C1A 6521   3.364  15.952   9.774  0.1853  0.0210 -0.0957
  418POPI   D2A 6522   2.997  15.820   9.625  0.2933  0.0162 -0.1143
  418POPI   C3A 6523   2.946  15.750   9.206 -0.0604 -0.1620 -0.0245
  418POPI   C4A 6524   2.799  15.968   8.762  0.0263 -0.1456  0.0313
  418POPI   C1B 6525   3.838  15.942   9.446 -0.2381  0.0177  0.2931
  418POPI   C2B 6526   3.709  15.849   8.991  0.0720 -0.1595  0.1971
  418POPI   C3B 6527   3.751  15.820   8.468 -0.1140  0.1478  0.2772
  418POPI   C4B 6528   3.725  15.800   7.999 -0.1990  0.3212  0.2531
  419POPI    C1 6529   9.162   6.861  10.794 -0.3032  0.1190  0.1222
  419POPI    C2 6530   9.197   6.997  11.168 -0.0975  0.0446  0.1311
  419POPI    C3 6531   9.101   6.615  11.103  0.2186 -0.0345  0.1122
  419POPI   PO4 6532   9.082   7.078  10.652 -0.0957  0.1727 -0.1820
  419POPI   GL1 6533   8.903   6.915  10.219  0.0584 -0.2253 -0.1313
  419POPI   GL2 6534   8.872   7.325  10.108 -0.1801  0.1824  0.1178
  419POPI   C1A 6535   8.974   6.789   9.915 -0.1661 -0.0136 -0.0322
  419POPI   D2A 6536   9.156   6.882   9.482 -0.0238 -0.0178  0.2726
  419POPI   C3A 6537   9.494   7.104   9.343 -0.0045  0.2274  0.2137
  419POPI   C4A 6538   9.757   7.372   9.583  0.3404 -0.0335  0.2168
  419POPI   C1B 6539   8.893   7.270   9.650  0.2772  0.3474 -0.1525
  419POPI   C2B 6540   8.951   7.220   9.200  0.0837 -0.0918 -0.1231
  419POPI   C3B 6541   8.721   7.243   8.891 -0.0242  0.1823  0.0157
  419POPI   C4B 6542   8.528   7.415   8.502 -0.0988 -0.0248 -0.1219
  420POPI    C1 6543   8.608   0.223  10.463  0.1333  0.1204 -0.0073
  420POPI    C2 6544   8.390   0.553  10.523  0.0630  0.0740 -0.0065
  420POPI    C3 6545   8.659   0.438  10.796 -0.1562 -0.0585  0.1569
  420POPI   PO4 6546   8.727   0.261  10.197  0.2572 -0.1331 -0.2508
  420POPI   GL1 6547   8.970   0.412   9.910 -0.3791 -0.1207 -0.1844
  420POPI   GL2 6548   8.955   0.835   9.867 -0.0097 -0.2778 -0.0439
  420POPI   C1A 6549   8.782   0.340   9.583  0.3337  0.0507 -0.1396
  420POPI   D2A 6550   8.378   0.136   9.325 -0.1799 -0.0511  0.1821
  420POPI   C3A 6551   8.568  -0.292   9.033 -0.3575 -0.0993  0.1921
  420POPI   C4A 6552   8.693  -0.484   8.647  0.0743  0.1269  0.0650
  420POPI   C1B 6553   8.977   0.840   9.457 -0.0712 -0.2216 -0.0961
  420POPI   C2B 6554   8.902   0.849   8.997 -0.0255 -0.0813 -0.0017
  420POPI   C3B 6555   8.711   0.701   8.633 -0.0392  0.1212  0.1150
  420POPI   C4B 6556   8.682   0.743   8.226  0.0763 -0.2432 -0.1501
  421POPI    C1 6557   0.373   8.290  10.194  0.0641  0.1560 -0.3000
  421POPI    C2 6558   0.391   7.967  10.429 -0.2377  0.2384 -0.1580
  421POPI    C3 6559   0.707   8.211  10.399  0.0302 -0.1202 -0.3460
  421POPI   PO4 6560   0.363   8.209   9.926  0.0437  0.1289  0.2617
  421POPI   GL1 6561   0.428   8.025   9.586 -0.0029  0.3786  0.1753
  421POPI   GL2 6562   0.679   8.202   9.514  0.0196  0.2285 -0.0812
  421POPI   C1A 6563   0.314   7.820   9.186  0.0769 -0.0082  0.0150
  421POPI   D2A 6564   0.355   7.820   8.732  0.0202 -0.1779  0.0316
  421POPI   C3A 6565   0.260   7.558   8.441  0.0766  0.0520 -0.1236
  421POPI   C4A 6566   0.224   7.231   8.126 -0.0972  0.1306  0.3311
  421POPI   C1B 6567   0.757   8.121   9.104  0.1771 -0.0022  0.2032
  421POPI   C2B 6568   0.718   8.142   8.636 -0.0386 -0.2455 -0.2658
  421POPI   C3B 6569   0.514   8.131   8.164  0.0894 -0.0009 -0.2584
  421POPI   C4B 6570   0.173   8.205   7.849  0.2424 -0.4543 -0.1556
  422POPI    C1 6571   1.792  14.139  10.388  0.1426 -0.1923  0.1133
  422POPI    C2 6572   1.635  14.507  10.379 -0.1097 -0.2955  0.2172
  422POPI    C3 6573   1.966  14.436  10.592  0.2242 -0.0237 -0.1948
  422POPI   PO4 6574   1.489  14.030  10.358 -0.2585 -0.4488  0.2556
  422POPI   GL1 6575   1.430  14.298   9.973 -0.0117  0.1636 -0.0010
  422POPI   GL2 6576   1.718  14.302   9.890  0.1360 -0.0815  0.0170
  422POPI   C1A 6577   1.314  14.242   9.533 -0.1829 -0.2585 -0.0184
  422POPI   D2A 6578   1.214  14.207   9.118  0.0803 -0.0952 -0.2679
  422POPI   C3A 6579   0.898  14.191   8.814 -0.0560  0.0332  0.1494
  422POPI   C4A 6580   0.616  14.057   8.513 -0.1466 -0.0316  0.0233
  422POPI   C1B 6581   1.833  14.086   9.561  0.0422  0.0801  0.1573
  422POPI   C2B 6582   1.746  14.051   9.174  0.0321 -0.0516  0.0733
  422POPI   C3B 6583   1.612  14.000   8.798  0.4262  0.1155  0.0781
  422POPI   C4B 6584   1.435  14.240   8.647 -0.1596 -0.1121  0.5207
  423DPPI    C1 6585  11.969   2.495  10.845 -0.0044 -0.0648  0.0829
  423DPPI    C2 6586  12.055   2.877  10.926  0.2479 -0.0944 -0.0342
  423DPPI    C3 6587  12.241   2.584  11.124  0.0955 -0.1582  0.0162
  423DPPI   PO4 6588  11.952   2.493  10.583 -0.1672  0.2195  0.0326
  423DPPI   GL1 6589  11.746   2.373  10.178  0.0575 -0.0727 -0.1972
  423DPPI   GL2 6590  11.885   2.674  10.028 -0.0404  0.0027 -0.0113
  423DPPI   C1A 6591  11.634   2.208   9.775  0.1220  0.0006  0.0552
  423DPPI   C2A 6592  11.920   1.859   9.660 -0.0591  0.0431 -0.1932
  423DPPI   C3A 6593  11.937   1.732   9.239 -0.1681  0.0054  0.0145
  423DPPI   C4A 6594  11.961   1.644   8.877 -0.0543 -0.1969 -0.2512
  423DPPI   C1B 6595  11.872   2.841   9.698 -0.2875 -0.0551  0.0280
  423DPPI   C2B 6596  11.847   2.883   9.271  0.2761  0.0713 -0.0107
  423DPPI   C3B 6597  11.930   3.172   8.875 -0.3477 -0.2140  0.0746
  423DPPI   C4B 6598  12.157   3.542   8.721  0.2497 -0.0207  0.2103
  424DPPI    C1 6599   0.820   4.330  10.757  0.0294  0.1030 -0.1107
  424DPPI    C2 6600   0.786   3.969  10.926  0.2552  0.0533 -0.1692
  424DPPI    C3 6601   1.009   4.016  10.598  0.1911  0.2381 -0.1873
  424DPPI   PO4 6602   0.460   4.446  10.689  0.1202 -0.0203  0.0459
  424DPPI   GL1 6603   0.426   4.552  10.227  0.4112 -0.0785 -0.0087
  424DPPI   GL2 6604   0.512   4.269  10.037 -0.1214 -0.1118  0.4975
  424DPPI   C1A 6605   0.478   4.680   9.709 -0.0062  0.1983  0.2532
  424DPPI   C2A 6606   0.818   4.793   9.469  0.1123  0.0703 -0.2997
  424DPPI   C3A 6607   1.037   4.906   9.208  0.0692 -0.1611 -0.1263
  424DPPI   C4A 6608   1.252   4.938   8.778  0.0297 -0.1336  0.2645
  424DPPI   C1B 6609   0.463   4.214   9.523  0.1032 -0.2077  0.1451
  424DPPI   C2B 6610   0.393   4.414   9.250  0.1832  0.0979 -0.0907
  424DPPI   C3B 6611   0.278   4.539   8.790  0.2982  0.0706  0.0515
  424DPPI   C4B 6612   0.076   4.641   8.462  0.2796  0.0720  0.0183
  425DPPI    C1 6613   9.450  12.400  10.128 -0.1874  0.0399  0.0322
  425DPPI    C2 6614   9.516  12.007  10.159 -0.0251  0.0770  0.1707
  425DPPI    C3 6615   9.508  12.235  10.487  0.0658  0.2183  0.0756
  425DPPI   PO4 6616   9.357  12.431   9.871 -0.0279  0.0585  0.1081
  425DPPI   GL1 6617   9.511  12.091   9.650  0.0965  0.0240 -0.0857
  425DPPI   GL2 6618   9.805  12.350   9.458 -0.0760 -0.0883  0.4478
  425DPPI   C1A 6619   9.388  12.172   9.224  0.0696 -0.0283  0.0043
  425DPPI   C2A 6620   9.469  12.178   8.742  0.1496 -0.2932 -0.2277
  425DPPI   C3A 6621   9.562  12.142   8.324 -0.3688 -0.1396  0.1221
  425DPPI   C4A 6622   9.689  12.292   7.958  0.0581 -0.0972  0.1841
  425DPPI   C1B 6623   9.797  12.437   9.016 -0.3993 -0.0393 -0.0198
  425DPPI   C2B 6624   9.867  12.447   8.623  0.1169  0.2529 -0.0488
  425DPPI   C3B 6625  10.169  12.245   8.344 -0.0689  0.0359 -0.1861
  425DPPI   C4B 6626  10.057  11.991   8.041 -0.1902 -0.2008  0.3161
  426DPPI    C1 6627   7.583  15.724   9.884 -0.0185 -0.0930 -0.1485
  426DPPI    C2 6628   7.287  15.930  10.057 -0.1380  0.0878 -0.5543
  426DPPI    C3 6629   7.646  16.100  10.006  0.1289 -0.2183  0.1703
  426DPPI   PO4 6630   7.464  15.525   9.597  0.0910 -0.1153 -0.1507
  426DPPI   GL1 6631   7.511  15.334   9.237 -0.1186 -0.2117  0.2385
  426DPPI   GL2 6632   7.840  15.218   9.242 -0.3615  0.0785 -0.3002
  426DPPI   C1A 6633   7.491  15.320   8.857  0.1675  0.0585 -0.0697
  426DPPI   C2A 6634   7.572  15.216   8.481  0.3212  0.0477  0.1024
  426DPPI   C3A 6635   7.666  15.113   7.993 -0.0561  0.3224 -0.0768
  426DPPI   C4A 6636   7.938  15.139   7.636  0.1722 -0.0059  0.0300
  426DPPI   C1B 6637   8.037  15.371   8.889 -0.2531  0.2287  0.0660
  426DPPI   C2B 6638   8.077  15.303   8.462  0.2466  0.0149 -0.3167
  426DPPI   C3B 6639   8.140  15.193   8.075  0.0103  0.1216 -0.0143
  426DPPI   C4B 6640   8.380  14.993   7.799  0.1547  0.2352 -0.0319
  427DPPI    C1 6641  12.076  12.089  10.320  0.0154 -0.1067 -0.1253
  427DPPI    C2 6642  12.438  11.966  10.438 -0.0749 -0.1785  0.0805
  427DPPI    C3 6643  12.321  12.341  10.511  0.0203 -0.1060 -0.1327
  427DPPI   PO4 6644  12.016  11.941  10.143 -0.0138  0.0747 -0.1140
  427DPPI   GL1 6645  11.915  11.515  10.058  0.0662  0.2347  0.4136
  427DPPI   GL2 6646  12.094  11.721   9.741 -0.1253 -0.0709  0.3341
  427DPPI   C1A 6647  11.901  11.211   9.634 -0.1221  0.2374  0.0109
  427DPPI   C2A 6648  11.770  11.005   9.257 -0.1252 -0.0934  0.1234
  427DPPI   C3A 6649  11.843  10.982   8.828 -0.2452  0.0322 -0.0029
  427DPPI   C4A 6650  12.030  10.973   8.353  0.2981 -0.2016 -0.0516
  427DPPI   C1B 6651  12.001  11.616   9.299 -0.3026  0.3400 -0.0141
  427DPPI   C2B 6652  11.899  11.473   8.794 -0.0961  0.1877  0.0019
  427DPPI   C3B 6653  11.729  11.411   8.498 -0.0703 -0.0143 -0.2808
  427DPPI   C4B 6654  11.481  11.553   8.120  0.0843 -0.0198  0.0744
  428DPPI    C1 6655   1.598   9.981  10.186 -0.2661 -0.0780  0.0188
  428DPPI    C2 6656   1.537   9.720  10.483  0.0177  0.0434  0.1878
  428DPPI    C3 6657   1.484  10.111  10.547 -0.0902  0.0559  0.0276
  428DPPI   PO4 6658   1.445   9.864   9.974 -0.2452  0.1928 -0.2517
  428DPPI   GL1 6659   1.116   9.818   9.747 -0.1694 -0.0201 -0.0250
  428DPPI   GL2 6660   0.826   9.963   9.788 -0.0508 -0.2278 -0.2813
  428DPPI   C1A 6661   1.157   9.878   9.334  0.3596  0.0699  0.1702
  428DPPI   C2A 6662   1.214   9.956   8.835 -0.5117  0.1370  0.1121
  428DPPI   C3A 6663   1.190  10.016   8.354 -0.0814 -0.1305  0.1669
  428DPPI   C4A 6664   1.198   9.851   7.966 -0.0459 -0.1591  0.1071
  428DPPI   C1B 6665   0.641  10.000   9.372  0.1008  0.0068 -0.4512
  428DPPI   C2B 6666   0.357  10.130   9.083  0.1488  0.1696  0.3750
  428DPPI   C3B 6667   0.207   9.843   8.602  0.0443 -0.0197 -0.2280
  428DPPI   C4B 6668   0.434   9.757   8.135 -0.0561  0.3637 -0.2290
  429DPPI    C1 6669   5.639   9.038   9.947 -0.0114 -0.0496 -0.1290
  429DPPI    C2 6670   5.956   8.998  10.187 -0.0727  0.0554 -0.0293
  429DPPI    C3 6671   5.787   9.357  10.137 -0.2737 -0.0275  0.0440
  429DPPI   PO4 6672   5.684   8.949   9.736 -0.2008 -0.1713 -0.3715
  429DPPI   GL1 6673   5.692   9.219   9.365 -0.0021  0.3671  0.4637
  429DPPI   GL2 6674   5.465   9.387   9.533 -0.0091 -0.0272 -0.1511
  429DPPI   C1A 6675   5.717   9.227   8.891 -0.0785 -0.3867 -0.0300
  429DPPI   C2A 6676   5.796   9.278   8.466  0.4158 -0.1681  0.0333
  429DPPI   C3A 6677   5.827   9.512   8.064 -0.0482  0.1747  0.0181
  429DPPI   C4A 6678   5.730   9.591   7.628  0.0822 -0.2134  0.0585
  429DPPI   C1B 6679   5.280   9.373   9.113  0.0588  0.2253 -0.3612
  429DPPI   C2B 6680   5.258   9.341   8.675  0.1810 -0.0907 -0.2287
  429DPPI   C3B 6681   5.335   9.466   8.306 -0.0161  0.0306  0.0534
  429DPPI   C4B 6682   5.244   9.670   7.966 -0.0523 -0.0620  0.0851
  430DPPI    C1 6683  14.894  10.114  10.429  0.1592 -0.0907  0.2312
  430DPPI    C2 6684  15.075   9.855  10.675  0.0992 -0.2117  0.1490
  430DPPI    C3 6685  14.923   9.728  10.327  0.0937 -0.0604  0.0954
  430DPPI   PO4 6686  15.042  10.384  10.523 -0.3089 -0.1416  0.0368
  430DPPI   GL1 6687  15.223  10.551  10.150  0.0194 -0.0928  0.2066
  430DPPI   GL2 6688  15.390  10.871  10.013 -0.1290 -0.1114  0.1811
  430DPPI   C1A 6689  15.129  10.534   9.766  0.1796  0.1160  0.1567
  430DPPI   C2A 6690  14.956  10.753   9.449 -0.0213 -0.1204 -0.3141
  430DPPI   C3A 6691  14.953  10.653   8.988  0.0887 -0.0899 -0.2061
  430DPPI   C4A 6692  14.744  10.465   8.624  0.0229 -0.3078 -0.0885
  430DPPI   C1B 6693  15.419  10.957   9.582  0.2862  0.0093 -0.0434
  430DPPI   C2B 6694  15.418  10.664   9.213  0.1922 -0.1792  0.1267
  430DPPI   C3B 6695  15.458  10.557   8.776 -0.1514  0.1850 -0.1342
  430DPPI   C4B 6696  15.492  10.890   8.460 -0.0402 -0.1051 -0.2268
  431DPPI    C1 6697   0.131   6.122  10.542  0.0260 -0.1957  0.0046
  431DPPI    C2 6698  -0.028   6.235  10.891 -0.0720 -0.1487 -0.0550
  431DPPI    C3 6699   0.165   5.886  10.864 -0.1904 -0.2201  0.0111
  431DPPI   PO4 6700  -0.061   6.137  10.423  0.2274  0.0348 -0.1181
  431DPPI   GL1 6701   0.020   6.025  10.032 -0.0218  0.2424  0.3117
  431DPPI   GL2 6702   0.413   5.998  10.071 -0.2006 -0.0759 -0.1306
  431DPPI   C1A 6703  -0.224   5.659   9.829 -0.1503  0.0603  0.0161
  431DPPI   C2A 6704  -0.493   5.701   9.605 -0.1184 -0.0135  0.0256
  431DPPI   C3A 6705  -0.558   5.786   9.233 -0.0379 -0.1392 -0.0356
  431DPPI   C4A 6706  -0.632   5.794   8.832  0.2352 -0.1678  0.2388
  431DPPI   C1B 6707   0.239   5.973   9.635 -0.1480  0.0908  0.0931
  431DPPI   C2B 6708  -0.068   5.841   9.298 -0.1084  0.1070  0.0720
  431DPPI   C3B 6709  -0.144   6.102   8.977 -0.0807 -0.0193 -0.1690
  431DPPI   C4B 6710   0.046   6.303   8.582  0.2003  0.1631  0.0101
  432DPPI    C1 6711   0.736  13.723  10.731 -0.0616 -0.1196 -0.0305
  432DPPI    C2 6712   1.087  13.759  10.543 -0.0126  0.0479  0.0911
  432DPPI    C3 6713   1.077  13.695  10.938 -0.1194  0.0864  0.0951
  432DPPI   PO4 6714   0.613  13.553  10.486  0.2291  0.0645  0.1528
  432DPPI   GL1 6715   0.783  13.454  10.113  0.2196  0.0705  0.1549
  432DPPI   GL2 6716   1.060  13.555  10.047 -0.1479 -0.0763 -0.3575
  432DPPI   C1A 6717   0.741  13.282   9.667  0.3366 -0.1287 -0.5893
  432DPPI   C2A 6718   0.761  13.355   9.307  0.0455  0.2380  0.1575
  432DPPI   C3A 6719   0.384  13.382   9.072  0.4938  0.1333 -0.3647
  432DPPI   C4A 6720  -0.048  13.395   8.904 -0.0440  0.2350 -0.0156
  432DPPI   C1B 6721   0.827  13.768   9.713  0.0287  0.0340 -0.0861
  432DPPI   C2B 6722   0.422  13.650   9.530 -0.1087 -0.0810  0.1325
  432DPPI   C3B 6723   0.142  13.453   9.514  0.3374  0.0461  0.2703
  432DPPI   C4B 6724  -0.114  13.094   9.463 -0.1224  0.0470  0.0878
  433DPPI    C1 6725   6.886   6.879  10.384  0.2373 -0.1462  0.1915
  433DPPI    C2 6726   7.091   7.140  10.607  0.1038  0.2872 -0.1790
  433DPPI    C3 6727   6.700   7.195  10.544  0.0336 -0.1095 -0.1092
  433DPPI   PO4 6728   7.064   6.966  10.144  0.0935  0.0252 -0.2332
  433DPPI   GL1 6729   7.147   6.876   9.706  0.0486 -0.0757 -0.2394
  433DPPI   GL2 6730   7.237   7.245   9.682  0.4874 -0.1678 -0.1906
  433DPPI   C1A 6731   7.071   6.838   9.328 -0.0562 -0.2454 -0.1220
  433DPPI   C2A 6732   7.080   7.013   8.971  0.0705  0.2895  0.0271
  433DPPI   C3A 6733   7.076   7.173   8.634 -0.1621 -0.1979  0.1395
  433DPPI   C4A 6734   7.183   7.002   8.293  0.0362 -0.1396  0.2385
  433DPPI   C1B 6735   7.403   7.455   9.284 -0.3165  0.0604  0.1465
  433DPPI   C2B 6736   7.315   7.492   8.846  0.0254 -0.2392  0.0346
  433DPPI   C3B 6737   7.542   7.333   8.466 -0.1537  0.2027  0.0727
  433DPPI   C4B 6738   7.644   7.407   8.058  0.2605  0.0470  0.1082
  434DPPI    C1 6739  11.795   8.353  10.574 -0.0809 -0.1807 -0.2320
  434DPPI    C2 6740  11.958   8.005  10.683  0.1150  0.0457  0.2221
  434DPPI    C3 6741  12.178   8.277  10.490 -0.0188 -0.0496 -0.0711
  434DPPI   PO4 6742  11.615   8.278  10.418 -0.0898  0.1146 -0.1229
  434DPPI   GL1 6743  11.531   7.943  10.188 -0.1197 -0.0322  0.2486
  434DPPI   GL2 6744  11.259   8.104  10.007  0.1518  0.2132 -0.2146
  434DPPI   C1A 6745  11.463   7.664   9.788  0.2177 -0.2174  0.4135
  434DPPI   C2A 6746  11.504   7.474   9.307  0.0248 -0.5474 -0.2945
  434DPPI   C3A 6747  11.568   7.469   8.898  0.0724 -0.1329  0.0925
  434DPPI   C4A 6748  11.505   7.529   8.472  0.1424  0.0110  0.2054
  434DPPI   C1B 6749  11.136   8.013   9.597  0.0129 -0.1785  0.4394
  434DPPI   C2B 6750  11.259   7.824   9.176  0.2821  0.0258 -0.0217
  434DPPI   C3B 6751  11.179   7.831   8.735 -0.1508 -0.1786  0.0761
  434DPPI   C4B 6752  11.205   7.919   8.245  0.4190 -0.0246 -0.1047
  435DPPI    C1 6753   0.550  10.405  10.848  0.1637 -0.2615 -0.0750
  435DPPI    C2 6754   0.476  10.290  11.223  0.0624 -0.1602 -0.0633
  435DPPI    C3 6755   0.800  10.153  11.032  0.1993 -0.0894  0.1156
  435DPPI   PO4 6756   0.339  10.356  10.551 -0.0425 -0.1689 -0.1663
  435DPPI   GL1 6757   0.241  10.658  10.163  0.0759  0.1799  0.0741
  435DPPI   GL2 6758   0.115  10.915  10.158 -0.0833 -0.1081 -0.1834
  435DPPI   C1A 6759   0.335  10.540   9.700  0.0496  0.5142 -0.0538
  435DPPI   C2A 6760   0.304  10.622   9.339  0.2702  0.0860  0.0203
  435DPPI   C3A 6761   0.398  10.631   8.891 -0.1854  0.0537 -0.1935
  435DPPI   C4A 6762   0.551  10.747   8.561 -0.1283 -0.4416  0.3812
  435DPPI   C1B 6763   0.206  11.008   9.753 -0.5196 -0.0135 -0.2476
  435DPPI   C2B 6764   0.162  11.260   9.290 -0.2116 -0.2253  0.0956
  435DPPI   C3B 6765   0.170  11.112   8.841 -0.0202  0.0850 -0.2421
  435DPPI   C4B 6766  -0.131  10.800   8.627 -0.0782 -0.1439  0.0898
  436DPPI    C1 6767  17.520  15.447  11.019 -0.2001  0.0427 -0.1266
  436DPPI    C2 6768  17.656  15.073  11.064 -0.1705  0.0546 -0.1166
  436DPPI    C3 6769  17.638  15.319  11.379 -0.0670  0.1029 -0.1482
  436DPPI   PO4 6770  17.592  15.530  10.708  0.3889 -0.1389 -0.0464
  436DPPI   GL1 6771  17.599  15.763  10.426 -0.0867 -0.0134 -0.1409
  436DPPI   GL2 6772  17.645  16.085  10.444  0.1202 -0.1199 -0.0481
  436DPPI   C1A 6773  17.575  15.778   9.953 -0.1100 -0.3573  0.2120
  436DPPI   C2A 6774  17.485  15.650   9.516  0.1090 -0.0484  0.3366
  436DPPI   C3A 6775  17.441  15.650   9.042  0.0254 -0.1475 -0.2879
  436DPPI   C4A 6776  17.063  15.538   8.844 -0.4234  0.3201  0.0753
  436DPPI   C1B 6777  17.452  16.385  10.214  0.0919 -0.0644  0.2367
  436DPPI   C2B 6778  17.164  16.296  10.058  0.0731 -0.0483 -0.2817
  436DPPI   C3B 6779  17.190  15.990   9.749  0.4794  0.3284  0.3035
  436DPPI   C4B 6780  16.990  15.737   9.359  0.0952  0.3596  0.1571
  437DPPI    C1 6781   7.489  17.623   9.958  0.0049 -0.3270 -0.3343
  437DPPI    C2 6782   7.282  17.356  10.172 -0.1045 -0.0296 -0.0609
  437DPPI    C3 6783   7.665  17.428  10.260 -0.0572 -0.1383 -0.1744
  437DPPI   PO4 6784   7.336  17.798   9.931 -0.1913 -0.4260 -0.0513
  437DPPI   GL1 6785   7.438  18.037   9.616 -0.2352 -0.0831 -0.1790
  437DPPI   GL2 6786   7.432  18.338   9.826 -0.0287 -0.2222  0.0463
  437DPPI   C1A 6787   7.573  18.018   9.199  0.1264 -0.0548  0.1712
  437DPPI   C2A 6788   7.643  18.068   8.837  0.1189  0.1829 -0.0246
  437DPPI   C3A 6789   7.728  17.712   8.506 -0.0522 -0.2810  0.0482
  437DPPI   C4A 6790   7.799  17.372   8.255  0.1242  0.0438 -0.1595
  437DPPI   C1B 6791   7.543  18.785   9.609 -0.2348 -0.2181 -0.0237
  437DPPI   C2B 6792   7.518  18.945   9.201 -0.3224  0.1011 -0.1524
  437DPPI   C3B 6793   7.675  19.250   8.864 -0.0144 -0.0136 -0.2134
  437DPPI   C4B 6794   7.515  19.691   8.806 -0.2623 -0.1303  0.2771
  438DPPI    C1 6795   3.145   4.286  10.164  0.1553 -0.1700  0.2407
  438DPPI    C2 6796   3.305   4.293  10.531 -0.0382 -0.1386  0.3260
  438DPPI    C3 6797   2.917   4.208  10.484 -0.0150 -0.1394  0.1280
  438DPPI   PO4 6798   3.360   4.033   9.996 -0.1356 -0.2033  0.0184
  438DPPI   GL1 6799   3.496   3.810   9.665  0.3140 -0.1902 -0.0340
  438DPPI   GL2 6800   3.297   3.667   9.427 -0.1680  0.0637 -0.0207
  438DPPI   C1A 6801   3.783   3.833   9.286  0.0669  0.2353  0.1163
  438DPPI   C2A 6802   3.750   3.664   8.866 -0.0837  0.4132  0.0149
  438DPPI   C3A 6803   3.927   3.624   8.479 -0.0765  0.1303  0.1575
  438DPPI   C4A 6804   4.059   3.436   8.022  0.3257  0.5692  0.2654
  438DPPI   C1B 6805   3.211   3.650   9.030 -0.1314 -0.0357 -0.1128
  438DPPI   C2B 6806   3.233   3.575   8.611 -0.3016 -0.0936 -0.2174
  438DPPI   C3B 6807   3.487   3.653   8.270 -0.3373  0.1952  0.1979
  438DPPI   C4B 6808   3.783   3.828   8.075 -0.0582  0.2327  0.5787
  439DPPI    C1 6809  12.119   7.506  10.660 -0.0170  0.3620  0.1758
  439DPPI    C2 6810  11.752   7.559  10.510 -0.0128 -0.1456 -0.0343
  439DPPI    C3 6811  11.799   7.389  10.869  0.0109  0.2200  0.1403
  439DPPI   PO4 6812  12.237   7.396  10.506 -0.2371 -0.1156  0.0207
  439DPPI   GL1 6813  12.559   7.163  10.263  0.0521 -0.2491 -0.0136
  439DPPI   GL2 6814  12.351   6.985  10.247  0.1549  0.1768 -0.2030
  439DPPI   C1A 6815  12.446   7.330   9.826  0.1503 -0.0153  0.3845
  439DPPI   C2A 6816  12.480   7.327   9.407 -0.0093  0.0966 -0.1362
  439DPPI   C3A 6817  12.556   7.259   9.042 -0.1066 -0.0016 -0.0801
  439DPPI   C4A 6818  12.724   7.384   8.614  0.0720 -0.0052 -0.1240
  439DPPI   C1B 6819  12.292   6.599  10.016 -0.1032  0.0859  0.0060
  439DPPI   C2B 6820  12.413   6.371   9.647 -0.2986  0.0605  0.2766
  439DPPI   C3B 6821  12.420   6.415   9.232 -0.1612  0.2149  0.1257
  439DPPI   C4B 6822  12.550   6.326   8.701  0.1613  0.1429 -0.0065
  440DPPI    C1 6823   8.135   8.500  10.501  0.1071 -0.2639 -0.2844
  440DPPI    C2 6824   8.081   8.104  10.507  0.1162 -0.2628  0.1100
  440DPPI    C3 6825   8.342   8.274  10.758  0.2309 -0.0217 -0.1676
  440DPPI   PO4 6826   8.251   8.541  10.302  0.1736  0.1160  0.2801
  440DPPI   GL1 6827   8.332   8.476   9.824  0.2297 -0.2334 -0.0430
  440DPPI   GL2 6828   8.067   8.598   9.587 -0.0524  0.1392 -0.4419
  440DPPI   C1A 6829   8.329   8.201   9.369  0.4758  0.0240  0.3617
  440DPPI   C2A 6830   8.329   8.208   8.927  0.2642  0.1610 -0.0418
  440DPPI   C3A 6831   8.399   8.325   8.479 -0.1219  0.1568 -0.0976
  440DPPI   C4A 6832   8.403   8.365   8.084 -0.4259  0.1765  0.0114
  440DPPI   C1B 6833   8.156   8.675   9.141 -0.1452  0.2831  0.2243
  440DPPI   C2B 6834   8.181   8.681   8.779  0.1948  0.1066 -0.0379
  440DPPI   C3B 6835   7.895   8.772   8.525  0.1300  0.1230 -0.2438
  440DPPI   C4B 6836   7.760   8.984   8.177 -0.0479 -0.3827 -0.0921
  441DPPI    C1 6837  16.050   2.154  10.722  0.0437 -0.0654 -0.0747
  441DPPI    C2 6838  16.346   1.919  10.590 -0.0441 -0.1523 -0.1180
  441DPPI    C3 6839  16.207   1.875  10.963  0.0658 -0.0432 -0.0636
  441DPPI   PO4 6840  16.135   2.433  10.614  0.1399  0.0253 -0.2229
  441DPPI   GL1 6841  16.245   2.640  10.242 -0.1132 -0.2730 -0.0331
  441DPPI   GL2 6842  15.930   2.597  10.195 -0.2421  0.0807 -0.1842
  441DPPI   C1A 6843  16.213   2.451   9.778 -0.0182  0.0916 -0.1730
  441DPPI   C2A 6844  16.002   2.374   9.412  0.0762 -0.0389 -0.1529
  441DPPI   C3A 6845  15.515   2.432   9.295  0.2428  0.1145 -0.1229
  441DPPI   C4A 6846  15.158   2.415   9.608  0.0749 -0.2459  0.0545
  441DPPI   C1B 6847  15.797   2.741   9.820 -0.0939 -0.1746 -0.1208
  441DPPI   C2B 6848  15.658   2.887   9.469 -0.0411 -0.0687  0.0967
  441DPPI   C3B 6849  15.511   3.309   9.357  0.2153 -0.1420  0.1900
  441DPPI   C4B 6850  15.365   3.684   9.489  0.0899  0.2755  0.2487
  442DPPI    C1 6851  10.617  18.171  11.070  0.0888 -0.0293 -0.0995
  442DPPI    C2 6852  10.959  18.243  11.264 -0.2268  0.2122  0.3905
  442DPPI    C3 6853  10.743  17.918  11.353  0.0351 -0.1308 -0.1655
  442DPPI   PO4 6854  10.656  18.316  10.780 -0.1798 -0.1141 -0.0149
  442DPPI   GL1 6855  10.641  18.209  10.369  0.0180  0.2089  0.1715
  442DPPI   GL2 6856  11.013  18.235  10.260 -0.1293 -0.0006 -0.0911
  442DPPI   C1A 6857  10.705  18.008   9.922 -0.1151  0.1033  0.0857
  442DPPI   C2A 6858  10.810  18.099   9.555  0.0094  0.0133  0.1698
  442DPPI   C3A 6859  10.843  18.020   9.212 -0.0328  0.0535  0.0827
  442DPPI   C4A 6860  10.745  17.971   8.723 -0.0210 -0.3706  0.1321
  442DPPI   C1B 6861  10.776  18.558   9.970  0.0895 -0.1492 -0.0026
  442DPPI   C2B 6862  10.742  18.626   9.541 -0.2792 -0.1119 -0.4515
  442DPPI   C3B 6863  10.753  18.656   9.071  0.2536 -0.2888 -0.1067
  442DPPI   C4B 6864  10.553  18.439   8.719 -0.0731  0.1082 -0.0232
  443DPPI    C1 6865   0.411  11.700  10.463 -0.0440 -0.0616  0.1328
  443DPPI    C2 6866   0.035  11.628  10.580 -0.0018 -0.1460  0.2177
  443DPPI    C3 6867   0.309  11.746  10.847  0.0875 -0.3106  0.2002
  443DPPI   PO4 6868   0.368  11.886  10.327 -0.0876 -0.0318  0.0302
  443DPPI   GL1 6869   0.608  12.126   9.991  0.2440  0.0430 -0.0403
  443DPPI   GL2 6870   0.643  12.406  10.007  0.0804  0.0411  0.0039
  443DPPI   C1A 6871   0.705  11.931   9.631  0.2172 -0.1258 -0.1118
  443DPPI   C2A 6872   0.615  12.006   9.120 -0.0115 -0.0429  0.0115
  443DPPI   C3A 6873   0.631  11.929   8.664  0.2273 -0.1606  0.4409
  443DPPI   C4A 6874   0.568  11.793   8.354 -0.1680 -0.2466 -0.2370
  443DPPI   C1B 6875   0.283  12.602   9.782 -0.1708 -0.0898 -0.0660
  443DPPI   C2B 6876   0.376  12.917   9.429 -0.0713  0.1954  0.0405
  443DPPI   C3B 6877   0.326  12.904   8.912 -0.0906  0.1913 -0.0086
  443DPPI   C4B 6878   0.393  13.185   8.576 -0.4275 -0.0384 -0.2434
  444DPPI    C1 6879   7.617   9.623  10.187  0.0970  0.2882  0.4034
  444DPPI    C2 6880   7.575   9.340  10.467 -0.2561  0.0091  0.0777
  444DPPI    C3 6881   7.279   9.600  10.400 -0.2049  0.0258 -0.0875
  444DPPI   PO4 6882   7.732   9.460   9.959 -0.4470  0.0673  0.2414
  444DPPI   GL1 6883   7.540   9.326   9.618 -0.3552 -0.0306 -0.0238
  444DPPI   GL2 6884   7.726   9.115   9.500 -0.0544  0.1044 -0.2210
  444DPPI   C1A 6885   7.447   9.309   9.132  0.2339 -0.1225 -0.1134
  444DPPI   C2A 6886   7.451   9.295   8.693 -0.0423  0.0259  0.1109
  444DPPI   C3A 6887   7.448   9.423   8.269 -0.1392 -0.0421 -0.1115
  444DPPI   C4A 6888   7.236   9.508   7.897  0.3087 -0.0129  0.1372
  444DPPI   C1B 6889   7.599   8.839   9.039  0.0870  0.0249  0.2617
  444DPPI   C2B 6890   7.439   8.828   8.580  0.1151  0.0744 -0.3266
  444DPPI   C3B 6891   7.510   8.451   8.375  0.1677 -0.2548  0.0658
  444DPPI   C4B 6892   7.351   8.441   7.946 -0.2284 -0.0383 -0.0856
  445DPPI    C1 6893  11.500  14.532  10.482  0.1502  0.1011  0.0358
  445DPPI    C2 6894  11.258  14.234  10.594 -0.1379  0.1763 -0.3649
  445DPPI    C3 6895  11.143  14.615  10.643 -0.0001  0.2161 -0.3456
  445DPPI   PO4 6896  11.568  14.500  10.151 -0.1630  0.1477  0.1635
  445DPPI   GL1 6897  11.315  14.593   9.787 -0.1771  0.1544  0.0094
  445DPPI   GL2 6898  11.230  14.350   9.701 -0.0805  0.0944 -0.0737
  445DPPI   C1A 6899  11.609  14.472   9.385  0.0622 -0.1528 -0.2306
  445DPPI   C2A 6900  11.598  14.413   8.940  0.5052  0.0357 -0.1261
  445DPPI   C3A 6901  11.630  14.419   8.564  0.1970 -0.2768  0.0336
  445DPPI   C4A 6902  11.765  14.329   8.102 -0.1051 -0.3164 -0.1430
  445DPPI   C1B 6903  11.115  14.491   9.243  0.0947 -0.0530 -0.2369
  445DPPI   C2B 6904  11.099  14.466   8.793  0.1671  0.0296 -0.2658
  445DPPI   C3B 6905  11.209  14.333   8.384  0.1079  0.1096  0.1741
  445DPPI   C4B 6906  11.284  14.337   7.949  0.1534 -0.3806  0.2804
  446DPPI    C1 6907  18.083   1.364  10.821  0.0444  0.0124  0.1152
  446DPPI    C2 6908  17.765   1.282  11.050 -0.0535  0.0054 -0.0221
  446DPPI    C3 6909  18.074   1.484  11.202 -0.2417  0.2546  0.0365
  446DPPI   PO4 6910  17.971   1.503  10.569  0.2262 -0.0036  0.2748
  446DPPI   GL1 6911  17.729   1.518  10.162 -0.2310  0.1319  0.0675
  446DPPI   GL2 6912  17.366   1.535  10.009  0.0661  0.1444 -0.0317
  446DPPI   C1A 6913  17.865   1.287   9.808  0.0100 -0.0954 -0.0325
  446DPPI   C2A 6914  17.705   1.162   9.417  0.3814  0.1308  0.1769
  446DPPI   C3A 6915  17.487   1.212   9.001  0.0367 -0.0301 -0.2704
  446DPPI   C4A 6916  17.261   1.384   8.665  0.1790  0.0012 -0.2628
  446DPPI   C1B 6917  17.192   1.392   9.533 -0.0979 -0.0738 -0.5452
  446DPPI   C2B 6918  17.144   1.541   9.137 -0.5339  0.0524  0.4472
  446DPPI   C3B 6919  17.335   1.896   8.889  0.1414  0.1870  0.2882
  446DPPI   C4B 6920  17.347   2.051   9.271  0.1658 -0.1736  0.2754
  447DPPI    C1 6921   1.989   9.097  10.490 -0.1014 -0.0490  0.0593
  447DPPI    C2 6922   2.287   8.968  10.723  0.0337  0.1657  0.0087
  447DPPI    C3 6923   1.908   8.943  10.850  0.0642 -0.1789  0.0418
  447DPPI   PO4 6924   1.946   9.038  10.206  0.0407 -0.0056  0.2245
  447DPPI   GL1 6925   1.830   9.136   9.727 -0.0212 -0.1915  0.2747
  447DPPI   GL2 6926   1.482   9.016   9.825 -0.3167  0.3445  0.0347
  447DPPI   C1A 6927   1.805   8.988   9.383 -0.0886  0.0107  0.0249
  447DPPI   C2A 6928   1.797   8.890   8.971 -0.1736  0.1812  0.0082
  447DPPI   C3A 6929   1.885   9.078   8.637 -0.1357 -0.0536  0.0726
  447DPPI   C4A 6930   1.636   9.217   8.353 -0.1112  0.0222 -0.0705
  447DPPI   C1B 6931   1.300   8.979   9.459 -0.1790 -0.2208 -0.0828
  447DPPI   C2B 6932   1.213   8.918   9.075 -0.0366 -0.2064  0.1702
  447DPPI   C3B 6933   1.314   8.919   8.707  0.0555 -0.0016 -0.1784
  447DPPI   C4B 6934   1.297   8.809   8.313  0.0321  0.2593 -0.0348
  448DPPI    C1 6935   7.820   6.083  10.226 -0.2155  0.1162 -0.0180
  448DPPI    C2 6936   7.544   6.245  10.466  0.0798  0.2594  0.2331
  448DPPI    C3 6937   7.873   6.080  10.623  0.0087 -0.1657 -0.0464
  448DPPI   PO4 6938   7.784   6.403   9.984 -0.1507  0.0822 -0.1689
  448DPPI   GL1 6939   7.665   6.463   9.606  0.0039  0.1304 -0.1012
  448DPPI   GL2 6940   7.342   6.461   9.492 -0.1484  0.0615 -0.0154
  448DPPI   C1A 6941   7.773   6.307   9.209  0.1462  0.0346  0.3996
  448DPPI   C2A 6942   7.606   6.190   8.759 -0.1008  0.2173 -0.1763
  448DPPI   C3A 6943   7.429   6.002   8.349 -0.0282 -0.0310 -0.0593
  448DPPI   C4A 6944   7.359   5.828   7.901  0.0170 -0.1688 -0.5211
  448DPPI   C1B 6945   7.253   6.107   9.416 -0.3183 -0.1787 -0.0668
  448DPPI   C2B 6946   7.285   5.863   9.002 -0.0366  0.0888  0.0149
  448DPPI   C3B 6947   7.648   5.666   8.820  0.0085 -0.1282 -0.1552
  448DPPI   C4B 6948   7.662   5.234   8.649  0.0440 -0.0336  0.0723
  449DPPI    C1 6949   2.922  14.028  10.265 -0.0167 -0.0553  0.1128
  449DPPI    C2 6950   3.065  13.715  10.469  0.0495 -0.1859 -0.1304
  449DPPI    C3 6951   3.294  14.038  10.410  0.1074 -0.2362 -0.1830
  449DPPI   PO4 6952   2.669  13.851  10.064  0.2623  0.3260  0.1429
  449DPPI   GL1 6953   2.459  13.880   9.713 -0.2643 -0.2756 -0.0521
  449DPPI   GL2 6954   2.125  13.774   9.760  0.2834  0.2426 -0.1440
  449DPPI   C1A 6955   2.295  14.019   9.329 -0.1092  0.0643  0.2314
  449DPPI   C2A 6956   2.174  14.088   8.892 -0.2315 -0.1404 -0.0656
  449DPPI   C3A 6957   2.117  14.112   8.463  0.4755 -0.0067 -0.1022
  449DPPI   C4A 6958   2.001  14.266   8.053  0.0549  0.0348 -0.1014
  449DPPI   C1B 6959   1.925  13.629   9.392 -0.3016 -0.3928 -0.0827
  449DPPI   C2B 6960   1.708  13.594   8.986 -0.0899  0.3702 -0.0454
  449DPPI   C3B 6961   1.617  13.539   8.567  0.2121 -0.2232  0.1762
  449DPPI   C4B 6962   1.627  13.908   8.313 -0.1856 -0.2572  0.1330
  450DPPI    C1 6963   9.787   5.978  10.400 -0.4235  0.2183  0.0241
  450DPPI    C2 6964   9.438   5.789  10.352 -0.2659 -0.0958  0.0923
  450DPPI    C3 6965   9.653   5.731  10.684  0.0262 -0.1949 -0.1097
  450DPPI   PO4 6966   9.617   6.312  10.359 -0.0842 -0.0419 -0.0268
  450DPPI   GL1 6967   9.379   6.417  10.032 -0.3870  0.2290 -0.0750
  450DPPI   GL2 6968   9.180   6.161  10.153 -0.0158 -0.0732  0.1492
  450DPPI   C1A 6969   9.194   6.410   9.660 -0.2629 -0.3769  0.0423
  450DPPI   C2A 6970   8.910   6.301   9.210 -0.1668 -0.1344  0.1667
  450DPPI   C3A 6971   8.740   6.308   8.851 -0.0142  0.4042 -0.0215
  450DPPI   C4A 6972   8.371   6.385   8.583  0.1398  0.4099  0.1624
  450DPPI   C1B 6973   9.269   5.879   9.849 -0.2842  0.1421 -0.2339
  450DPPI   C2B 6974   9.181   5.863   9.480  0.0049  0.0176 -0.0592
  450DPPI   C3B 6975   9.133   5.877   9.067 -0.2324  0.1402  0.2640
  450DPPI   C4B 6976   9.018   5.750   8.576 -0.0817 -0.2235  0.0156
  451DPPI    C1 6977   5.267   1.315  10.261 -0.1388 -0.0923 -0.1109
  451DPPI    C2 6978   5.120   0.973  10.407  0.2407 -0.1765  0.0877
  451DPPI    C3 6979   5.151   1.294  10.644  0.0833 -0.0653 -0.0403
  451DPPI   PO4 6980   5.236   1.229   9.873  0.1021  0.2827 -0.3671
  451DPPI   GL1 6981   5.028   1.295   9.542  0.1224 -0.2211 -0.0155
  451DPPI   GL2 6982   4.995   1.605   9.632  0.0920 -0.0710  0.0714
  451DPPI   C1A 6983   4.901   1.243   9.077 -0.3404 -0.0528  0.1176
  451DPPI   C2A 6984   4.803   1.256   8.601 -0.2876 -0.0070 -0.1530
  451DPPI   C3A 6985   4.589   1.055   8.329 -0.1079  0.1933 -0.0261
  451DPPI   C4A 6986   4.189   0.963   8.097  0.3934  0.0367 -0.2390
  451DPPI   C1B 6987   5.387   1.680   9.375  0.0203  0.0712 -0.1386
  451DPPI   C2B 6988   5.460   1.693   8.939  0.1688  0.0168  0.3435
  451DPPI   C3B 6989   5.446   1.723   8.530  0.2088 -0.2428 -0.2142
  451DPPI   C4B 6990   5.312   1.744   8.063 -0.0028  0.2658  0.0856
  452DPPI    C1 6991   4.539   1.215  10.053  0.0879  0.0031 -0.2775
  452DPPI    C2 6992   4.833   1.482  10.099  0.1741 -0.1087 -0.1739
  452DPPI    C3 6993   4.696   1.279  10.415  0.0102 -0.0841 -0.2279
  452DPPI   PO4 6994   4.497   1.131   9.798 -0.0492  0.1824  0.0020
  452DPPI   GL1 6995   4.520   1.114   9.387 -0.2044  0.1662  0.1782
  452DPPI   GL2 6996   4.509   1.469   9.447 -0.3094  0.4777 -0.0694
  452DPPI   C1A 6997   4.328   1.139   8.919 -0.3988 -0.1967  0.2329
  452DPPI   C2A 6998   4.218   1.147   8.644  0.0952 -0.1835  0.1226
  452DPPI   C3A 6999   3.778   0.959   8.535 -0.1156 -0.1627  0.4711
  452DPPI   C4A 7000   3.678   1.060   8.052 -0.1336 -0.3658 -0.3271
  452DPPI   C1B 7001   4.419   1.662   9.074 -0.0288  0.3104  0.2308
  452DPPI   C2B 7002   4.474   1.618   8.626  0.0221 -0.1292 -0.0324
  452DPPI   C3B 7003   4.697   1.567   8.236  0.1687  0.1659  0.0801
  452DPPI   C4B 7004   4.587   1.686   7.803  0.0181 -0.0675 -0.0688
  453DPPI    C1 7005  14.840  17.941  10.477  0.0631 -0.1590 -0.0932
  453DPPI    C2 7006  14.854  17.782  10.844 -0.0243 -0.1853 -0.1011
  453DPPI    C3 7007  14.883  18.178  10.797 -0.1206 -0.1728 -0.0571
  453DPPI   PO4 7008  15.000  17.819  10.278 -0.1302  0.0513 -0.4745
  453DPPI   GL1 7009  15.265  17.706  10.004 -0.2775 -0.3723 -0.0052
  453DPPI   GL2 7010  15.084  17.564   9.736 -0.1239  0.1150 -0.0408
  453DPPI   C1A 7011  15.634  17.564   9.708  0.3857 -0.1706  0.1608
  453DPPI   C2A 7012  15.445  17.334   9.311 -0.1175  0.0604  0.0530
  453DPPI   C3A 7013  15.440  17.420   8.830 -0.0584  0.1852 -0.0772
  453DPPI   C4A 7014  15.454  17.613   8.505  0.2935 -0.0005  0.3683
  453DPPI   C1B 7015  15.091  17.882   9.488  0.0973 -0.0572  0.0389
  453DPPI   C2B 7016  15.041  18.270   9.236 -0.0536 -0.1939  0.2864
  453DPPI   C3B 7017  14.816  18.373   8.912  0.0768  0.1561  0.2971
  453DPPI   C4B 7018  14.763  18.331   8.479  0.2164 -0.1560  0.1056
  454DPPI    C1 7019   7.298   1.363  10.673 -0.0798 -0.0651 -0.1735
  454DPPI    C2 7020   6.951   1.511  10.808  0.0935  0.0377  0.1718
  454DPPI    C3 7021   7.133   1.215  11.006  0.0081 -0.2933 -0.2300
  454DPPI   PO4 7022   7.337   1.369  10.471 -0.3404  0.1030  0.2568
  454DPPI   GL1 7023   7.267   1.396  10.036  0.1277 -0.0951 -0.1069
  454DPPI   GL2 7024   7.028   1.454   9.701  0.0975 -0.1180  0.0793
  454DPPI   C1A 7025   7.517   1.584   9.651  0.0263 -0.0383  0.3611
  454DPPI   C2A 7026   7.581   1.765   9.253 -0.1100 -0.1795  0.0072
  454DPPI   C3A 7027   7.760   2.008   8.886 -0.0971  0.1505 -0.3900
  454DPPI   C4A 7028   7.807   1.786   8.484  0.2099 -0.0860 -0.0901
  454DPPI   C1B 7029   6.976   1.769   9.396  0.1814 -0.3337  0.2401
  454DPPI   C2B 7030   7.194   1.891   8.985 -0.0579 -0.1380  0.0799
  454DPPI   C3B 7031   7.278   2.067   8.623 -0.0446  0.0472 -0.0734
  454DPPI   C4B 7032   7.663   2.298   8.465  0.4095 -0.0862 -0.0401
  455DPPI    C1 7033  12.157  15.360  10.251  0.1955 -0.1762 -0.2185
  455DPPI    C2 7034  12.483  15.134  10.297  0.0167 -0.3809  0.0696
  455DPPI    C3 7035  12.281  15.262  10.618  0.0049  0.0303 -0.0962
  455DPPI   PO4 7036  11.976  15.263  10.103  0.0400 -0.0044  0.0124
  455DPPI   GL1 7037  11.671  14.995   9.867  0.2263 -0.1127 -0.1184
  455DPPI   GL2 7038  11.494  15.245   9.798 -0.1180 -0.0819  0.1954
  455DPPI   C1A 7039  11.715  14.946   9.464  0.1968  0.2944  0.0162
  455DPPI   C2A 7040  11.901  14.924   9.013 -0.1488 -0.0092  0.3208
  455DPPI   C3A 7041  12.030  15.195   8.646 -0.1579 -0.0380  0.2205
  455DPPI   C4A 7042  12.075  15.116   8.126 -0.4085  0.2056 -0.1091
  455DPPI   C1B 7043  11.425  15.335   9.415  0.0591  0.0235 -0.0308
  455DPPI   C2B 7044  11.619  15.404   8.986  0.0014  0.2092 -0.0162
  455DPPI   C3B 7045  11.718  15.658   8.580 -0.1916 -0.0038  0.1517
  455DPPI   C4B 7046  11.725  16.116   8.557  0.2403  0.1864 -0.0090
  456DPPI    C1 7047   5.142   0.231   9.814  0.1063 -0.0497 -0.2202
  456DPPI    C2 7048   4.867   0.009   9.626 -0.0927  0.2559 -0.2974
  456DPPI    C3 7049   5.219  -0.151   9.726 -0.2370 -0.0958 -0.3382
  456DPPI   PO4 7050   5.205   0.422   9.686 -0.1092 -0.1139 -0.1472
  456DPPI   GL1 7051   5.635   0.452   9.473  0.1822 -0.1486 -0.0898
  456DPPI   GL2 7052   5.954   0.694   9.623  0.0656  0.4450  0.0859
  456DPPI   C1A 7053   5.560   0.376   9.011 -0.2022  0.1459  0.3398
  456DPPI   C2A 7054   5.440   0.433   8.597 -0.2295  0.1653 -0.1436
  456DPPI   C3A 7055   5.415   0.548   8.148  0.1934  0.1866 -0.3338
  456DPPI   C4A 7056   5.569   0.786   7.764 -0.1100 -0.0679  0.0446
  456DPPI   C1B 7057   5.825   0.878   9.196 -0.1566 -0.0382 -0.1203
  456DPPI   C2B 7058   5.680   0.854   8.791  0.0638  0.1764  0.3794
  456DPPI   C3B 7059   5.699   0.912   8.330 -0.0509 -0.0638  0.0323
  456DPPI   C4B 7060   5.630   1.227   8.071 -0.0081 -0.3721 -0.3223
  457DPPI    C1 7061   3.379   0.815  10.223  0.2516 -0.2574  0.0913
  457DPPI    C2 7062   3.469   0.653  10.578 -0.0819 -0.1895  0.2111
  457DPPI    C3 7063   3.093   0.638  10.441  0.0559 -0.2694 -0.1704
  457DPPI   PO4 7064   3.575   0.659   9.943  0.0939  0.2053 -0.4183
  457DPPI   GL1 7065   3.784   0.439   9.510  0.4290 -0.1205  0.0868
  457DPPI   GL2 7066   3.830   0.413   9.143 -0.0517  0.1725 -0.1293
  457DPPI   C1A 7067   3.377   0.416   9.211  0.0931  0.3023  0.1956
  457DPPI   C2A 7068   3.161   0.272   8.869 -0.1523 -0.0789  0.1752
  457DPPI   C3A 7069   3.130   0.143   8.504 -0.1067 -0.0733  0.2650
  457DPPI   C4A 7070   3.340  -0.236   8.293 -0.1257 -0.0475  0.0779
  457DPPI   C1B 7071   3.732   0.454   8.723 -0.0882  0.1540 -0.2367
  457DPPI   C2B 7072   3.549   0.433   8.295 -0.0751  0.0163  0.1331
  457DPPI   C3B 7073   3.498   0.168   8.009 -0.0551 -0.2597 -0.2958
  457DPPI   C4B 7074   3.425  -0.135   7.651  0.3113  0.0219  0.1006
  458DPPI    C1 7075  11.754  17.371  10.441 -0.0444 -0.1646  0.1899
  458DPPI    C2 7076  11.741  17.573  10.786  0.1984 -0.0477  0.1327
  458DPPI    C3 7077  12.093  17.460  10.633  0.0910 -0.1228 -0.0633
  458DPPI   PO4 7078  11.659  17.553  10.302  0.2701 -0.1190  0.2852
  458DPPI   GL1 7079  11.413  17.606   9.872  0.0130 -0.0291  0.3466
  458DPPI   GL2 7080  11.351  17.927   9.864 -0.2540  0.0660 -0.2462
  458DPPI   C1A 7081  11.436  17.414   9.524  0.1962  0.0801 -0.1181
  458DPPI   C2A 7082  11.583  17.468   9.153  0.1008  0.0872 -0.1444
  458DPPI   C3A 7083  11.639  17.605   8.742 -0.0285  0.0350  0.0874
  458DPPI   C4A 7084  11.480  17.605   8.299  0.0533  0.0593 -0.0814
  458DPPI   C1B 7085  11.297  17.887   9.410 -0.0711 -0.1263  0.0655
  458DPPI   C2B 7086  11.238  17.841   8.918  0.1024 -0.1167 -0.1132
  458DPPI   C3B 7087  11.029  17.580   8.523  0.0889  0.3157 -0.1268
  458DPPI   C4B 7088  10.950  17.576   8.170  0.0825  0.0151 -0.0753
  459DPPI    C1 7089   5.453  11.906   9.865  0.0212 -0.0794  0.0315
  459DPPI    C2 7090   5.336  11.777  10.225 -0.1495  0.2036  0.0804
  459DPPI    C3 7091   5.338  11.526   9.914 -0.0180 -0.0382  0.2726
  459DPPI   PO4 7092   5.334  12.115   9.843  0.0066 -0.2300  0.0865
  459DPPI   GL1 7093   5.235  12.423   9.491  0.0162 -0.1423 -0.1862
  459DPPI   GL2 7094   5.310  12.758   9.517  0.1823  0.2633  0.0644
  459DPPI   C1A 7095   5.491  12.366   9.113  0.0403 -0.0222  0.0482
  459DPPI   C2A 7096   5.664  12.482   8.701 -0.2423 -0.1815  0.2150
  459DPPI   C3A 7097   5.798  12.620   8.156  0.1331 -0.2189 -0.0866
  459DPPI   C4A 7098   5.962  12.628   7.752 -0.1727 -0.1138 -0.3463
  459DPPI   C1B 7099   5.603  12.829   9.115  0.0864  0.0885 -0.0063
  459DPPI   C2B 7100   5.647  13.006   8.787 -0.0892 -0.0142  0.2392
  459DPPI   C3B 7101   5.589  13.088   8.269  0.0914 -0.0732  0.2486
  459DPPI   C4B 7102   5.617  13.045   7.773  0.1291 -0.0070  0.0847
  460DPPI    C1 7103   4.870  11.581  10.254  0.0437 -0.3164  0.1817
  460DPPI    C2 7104   4.495  11.622  10.387 -0.0113 -0.0544 -0.0452
  460DPPI    C3 7105   4.763  11.912  10.450  0.1243 -0.1916  0.0172
  460DPPI   PO4 7106   4.873  11.442  10.087 -0.2161  0.0345 -0.0626
  460DPPI   GL1 7107   4.824  11.616   9.625  0.4003  0.3615 -0.3024
  460DPPI   GL2 7108   5.122  11.731   9.512  0.0195  0.1967  0.1556
  460DPPI   C1A 7109   4.779  11.323   9.287  0.2296 -0.1957  0.0436
  460DPPI   C2A 7110   4.702  11.288   8.819 -0.1067 -0.0166  0.2527
  460DPPI   C3A 7111   4.443  11.491   8.444  0.1341  0.1356  0.0729
  460DPPI   C4A 7112   4.275  11.736   8.046  0.2760  0.0555  0.0082
  460DPPI   C1B 7113   5.237  11.930   9.172 -0.2382  0.0883 -0.0390
  460DPPI   C2B 7114   5.235  11.935   8.739  0.2269 -0.0023 -0.0902
  460DPPI   C3B 7115   5.362  12.210   8.387  0.0968 -0.0961  0.2501
  460DPPI   C4B 7116   5.465  12.278   7.976 -0.4633 -0.2272 -0.0591
  461DPPI    C1 7117  10.515   3.710  10.512 -0.1170 -0.0774  0.0862
  461DPPI    C2 7118  10.396   3.595  10.876  0.0552 -0.0755  0.1443
  461DPPI    C3 7119  10.721   3.430  10.711  0.2417  0.2458  0.1829
  461DPPI   PO4 7120  10.307   3.804  10.392  0.0988 -0.2814  0.3775
  461DPPI   GL1 7121  10.211   4.162  10.121  0.1725 -0.2590  0.1221
  461DPPI   GL2 7122  10.417   3.989   9.945 -0.1886 -0.5502 -0.0543
  461DPPI   C1A 7123  10.096   4.453   9.829  0.0901 -0.2165 -0.0263
  461DPPI   C2A 7124  10.019   4.622   9.514  0.1241  0.3749  0.1366
  461DPPI   C3A 7125  10.060   4.654   9.007 -0.3115  0.1807  0.1921
  461DPPI   C4A 7126  10.080   4.630   8.578  0.0036 -0.0858  0.2920
  461DPPI   C1B 7127  10.306   3.972   9.500 -0.1211 -0.0713  0.0499
  461DPPI   C2B 7128  10.027   3.987   9.111  0.1517  0.3628 -0.0056
  461DPPI   C3B 7129   9.981   4.042   8.639 -0.1248 -0.1159 -0.1422
  461DPPI   C4B 7130  10.308   3.785   8.397 -0.0072  0.0447 -0.1671
  462DPPI    C1 7131  16.915   5.724  10.413 -0.1037  0.0271 -0.0083
  462DPPI    C2 7132  17.293   5.710  10.545 -0.0557  0.2664 -0.1143
  462DPPI    C3 7133  17.148   5.412  10.319 -0.0612 -0.0249  0.2640
  462DPPI   PO4 7134  16.881   6.040  10.186 -0.1600 -0.0359 -0.0975
  462DPPI   GL1 7135  16.790   6.233   9.854 -0.2523 -0.0261  0.1683
  462DPPI   GL2 7136  16.816   6.526  10.017 -0.1402  0.0197 -0.1960
  462DPPI   C1A 7137  16.886   6.323   9.442  0.2079  0.0985  0.0383
  462DPPI   C2A 7138  16.854   6.304   9.065 -0.0325  0.0607  0.0235
  462DPPI   C3A 7139  16.761   6.355   8.665  0.0327  0.0674 -0.0093
  462DPPI   C4A 7140  16.686   6.527   8.242  0.1843 -0.0270  0.3456
  462DPPI   C1B 7141  17.160   6.630   9.863 -0.4569 -0.0886  0.0866
  462DPPI   C2B 7142  17.578   6.743   9.691 -0.0290  0.3650 -0.2045
  462DPPI   C3B 7143  18.021   6.767   9.687 -0.2451  0.0030 -0.0692
  462DPPI   C4B 7144  18.120   7.008   9.378 -0.0251  0.1074  0.0167
  463DPPI    C1 7145   0.928  16.623  10.864  0.1788 -0.0027 -0.2872
  463DPPI    C2 7146   1.222  16.400  11.018 -0.1278 -0.0912  0.1903
  463DPPI    C3 7147   1.074  16.708  11.227 -0.2305  0.0863 -0.1377
  463DPPI   PO4 7148   0.879  16.509  10.629  0.0844  0.0110 -0.1148
  463DPPI   GL1 7149   0.698  16.344  10.323 -0.2824 -0.1040  0.0928
  463DPPI   GL2 7150   1.031  16.165  10.253  0.1428  0.0421  0.0732
  463DPPI   C1A 7151   0.604  16.227   9.828 -0.1699  0.0160 -0.1510
  463DPPI   C2A 7152   0.404  15.999   9.532 -0.6254 -0.2165  0.1081
  463DPPI   C3A 7153   0.106  15.954   9.275  0.1187  0.4789  0.3876
  463DPPI   C4A 7154  -0.296  15.936   9.373  0.0504  0.2689 -0.1555
  463DPPI   C1B 7155   1.113  16.223   9.897 -0.1286  0.3377 -0.2149
  463DPPI   C2B 7156   0.950  16.040   9.473  0.2652  0.4271  0.0413
  463DPPI   C3B 7157   0.713  15.891   9.112 -0.1408 -0.2848  0.1432
  463DPPI   C4B 7158   0.729  16.072   8.684  0.2835  0.1923 -0.0051
  464DPPI    C1 7159   7.823  12.900  10.075  0.0184  0.2915 -0.0264
  464DPPI    C2 7160   7.998  13.165  10.319  0.0214  0.1149  0.1655
  464DPPI    C3 7161   7.861  12.818  10.465  0.0956 -0.0280 -0.0981
  464DPPI   PO4 7162   8.020  12.933   9.844 -0.1843 -0.0393 -0.1885
  464DPPI   GL1 7163   8.350  13.082   9.607 -0.1175  0.0585 -0.2141
  464DPPI   GL2 7164   8.120  13.201   9.400 -0.3574 -0.2017  0.1814
  464DPPI   C1A 7165   8.533  12.999   9.242  0.0929  0.0002  0.1412
  464DPPI   C2A 7166   8.531  12.735   8.811  0.0017 -0.0748  0.0404
  464DPPI   C3A 7167   8.566  12.427   8.661  0.1037  0.0368  0.1953
  464DPPI   C4A 7168   8.461  12.306   8.190 -0.1634  0.2610 -0.0158
  464DPPI   C1B 7169   8.118  13.028   9.011 -0.0427 -0.0310  0.4175
  464DPPI   C2B 7170   8.097  13.170   8.578  0.2677  0.2305 -0.1077
  464DPPI   C3B 7171   8.184  13.365   8.207  0.1347  0.0297  0.3118
  464DPPI   C4B 7172   8.536  13.394   7.934  0.1035 -0.1203  0.0683
  465DPPI    C1 7173   5.503   0.863  10.125 -0.1115 -0.0025  0.0442
  465DPPI    C2 7174   5.399   0.482  10.189  0.1005 -0.0644  0.0262
  465DPPI    C3 7175   5.676   0.656  10.419  0.0449  0.0623 -0.0012
  465DPPI   PO4 7176   5.547   0.832   9.849 -0.0712  0.0394 -0.1343
  465DPPI   GL1 7177   5.331   0.857   9.513  0.0304  0.2209  0.2700
  465DPPI   GL2 7178   4.994   0.824   9.461  0.0774 -0.1552 -0.0499
  465DPPI   C1A 7179   5.238   0.720   9.055 -0.3256  0.1805 -0.0184
  465DPPI   C2A 7180   5.102   0.839   8.643 -0.2406 -0.0618 -0.0976
  465DPPI   C3A 7181   4.991   0.742   8.293 -0.0861  0.0084  0.0929
  465DPPI   C4A 7182   4.657   0.822   7.887 -0.3915 -0.0324  0.2160
  465DPPI   C1B 7183   4.711   0.780   9.053 -0.1268  0.0259  0.3609
  465DPPI   C2B 7184   4.564   0.673   8.679  0.0119  0.0695 -0.0018
  465DPPI   C3B 7185   4.552   0.512   8.279  0.0821 -0.0899 -0.0852
  465DPPI   C4B 7186   4.434   0.308   7.858  0.0615  0.2241 -0.2062
  466DPPI    C1 7187   4.010  16.402  10.417  0.1151  0.2463 -0.0639
  466DPPI    C2 7188   3.861  16.611  10.110  0.0744 -0.0242 -0.2316
  466DPPI    C3 7189   3.706  16.655  10.476  0.1371  0.3161 -0.2423
  466DPPI   PO4 7190   4.119  16.194  10.220 -0.2614  0.1946 -0.0951
  466DPPI   GL1 7191   4.127  16.395   9.768 -0.2083 -0.0156  0.0196
  466DPPI   GL2 7192   4.280  16.123   9.661  0.0236  0.5056  0.1311
  466DPPI   C1A 7193   3.677  16.338   9.612 -0.0731  0.3600 -0.0235
  466DPPI   C2A 7194   3.336  16.190   9.289 -0.0942  0.1902 -0.2470
  466DPPI   C3A 7195   3.194  16.167   9.006 -0.1821  0.0291  0.2992
  466DPPI   C4A 7196   3.129  16.309   8.594 -0.5038  0.2605  0.0094
  466DPPI   C1B 7197   4.331  16.345   9.280  0.1885  0.3224 -0.0059
  466DPPI   C2B 7198   4.318  16.500   8.739 -0.2047  0.0883  0.1773
  466DPPI   C3B 7199   4.358  16.846   8.341  0.0343  0.1600  0.1816
  466DPPI   C4B 7200   4.352  17.003   7.846  0.0829 -0.0300 -0.2832
  467DPPI    C1 7201   1.049   2.062  10.349 -0.2033  0.0593  0.3184
  467DPPI    C2 7202   0.991   1.671  10.404 -0.3820  0.0732  0.2368
  467DPPI    C3 7203   1.230   1.874  10.652 -0.0402 -0.1476  0.0963
  467DPPI   PO4 7204   1.063   2.049  10.029 -0.0767 -0.0385 -0.1813
  467DPPI   GL1 7205   1.283   1.982   9.703  0.3771 -0.1217 -0.0525
  467DPPI   GL2 7206   1.475   2.077   9.723 -0.1105  0.3204 -0.3636
  467DPPI   C1A 7207   1.140   2.065   9.291 -0.1344 -0.2750  0.3876
  467DPPI   C2A 7208   1.149   2.142   8.816 -0.4515  0.3821 -0.0589
  467DPPI   C3A 7209   0.807   2.180   8.536 -0.2078 -0.1766  0.0141
  467DPPI   C4A 7210   0.772   2.320   8.095 -0.1379 -0.0074 -0.2657
  467DPPI   C1B 7211   1.474   2.410   9.370  0.1157  0.0161  0.0002
  467DPPI   C2B 7212   1.544   2.615   9.023  0.1322  0.1638  0.2396
  467DPPI   C3B 7213   1.488   2.525   8.613 -0.0967 -0.0458  0.1055
  467DPPI   C4B 7214   1.289   2.316   8.242  0.2417  0.2649  0.2589
  468DPPI    C1 7215   2.162   8.516  10.212 -0.0311  0.0427 -0.0856
  468DPPI    C2 7216   2.120   8.197  10.449  0.3147  0.0202 -0.0495
  468DPPI    C3 7217   2.019   8.560  10.582  0.1279 -0.0439 -0.0130
  468DPPI   PO4 7218   2.314   8.479   9.941  0.0454 -0.0271 -0.1338
  468DPPI   GL1 7219   2.088   8.542   9.564  0.0621 -0.3463  0.0063
  468DPPI   GL2 7220   1.883   8.272   9.744 -0.0470  0.3243 -0.0857
  468DPPI   C1A 7221   2.014   8.443   9.046 -0.1391  0.0414  0.0038
  468DPPI   C2A 7222   1.861   8.513   8.670 -0.1253  0.0786 -0.0874
  468DPPI   C3A 7223   1.789   8.660   8.338 -0.2802 -0.3544 -0.0065
  468DPPI   C4A 7224   2.026   8.944   7.996 -0.1469  0.2439 -0.0677
  468DPPI   C1B 7225   1.607   8.497   9.484 -0.4316 -0.1813  0.3095
  468DPPI   C2B 7226   1.425   8.426   9.113 -0.0060 -0.4705 -0.0088
  468DPPI   C3B 7227   1.320   8.355   8.634 -0.0034 -0.0297  0.2942
  468DPPI   C4B 7228   1.385   8.363   8.187  0.0218  0.0052 -0.0625
  469DPPI    C1 7229  17.853  16.600  10.649  0.3296  0.1025 -0.0680
  469DPPI    C2 7230  17.893  16.696  11.035 -0.0751 -0.1013  0.0299
  469DPPI    C3 7231  17.736  16.343  10.932 -0.0046 -0.0331 -0.3228
  469DPPI   PO4 7232  18.120  16.649  10.615  0.0450  0.0745  0.2121
  469DPPI   GL1 7233  18.225  16.562  10.189 -0.0608 -0.1403 -0.0973
  469DPPI   GL2 7234  18.410  16.492   9.971 -0.1011  0.0533 -0.4282
  469DPPI   C1A 7235  18.295  16.941   9.907  0.0832  0.0927  0.0928
  469DPPI   C2A 7236  18.099  16.869   9.419  0.1676  0.0326 -0.2112
  469DPPI   C3A 7237  18.107  16.730   8.994  0.2549 -0.0776  0.1125
  469DPPI   C4A 7238  17.767  16.765   8.844 -0.1142  0.0835  0.1431
  469DPPI   C1B 7239  18.332  16.435   9.644 -0.2583 -0.2593  0.1387
  469DPPI   C2B 7240  18.472  16.415   9.256  0.0303  0.0737 -0.1908
  469DPPI   C3B 7241  18.411  16.335   8.841  0.0053  0.1034  0.1414
  469DPPI   C4B 7242  18.349  15.941   8.752 -0.2616  0.1413 -0.2660
  470DPPI    C1 7243  14.838   5.336  11.053  0.1219  0.2193 -0.0307
  470DPPI    C2 7244  14.782   5.256  11.441 -0.0643  0.2042 -0.0594
  470DPPI    C3 7245  14.672   5.610  11.292 -0.1576  0.1441 -0.1344
  470DPPI   PO4 7246  14.802   5.138  10.826 -0.1410  0.0108 -0.0737
  470DPPI   GL1 7247  14.545   5.456  10.565  0.2176 -0.0153 -0.0042
  470DPPI   GL2 7248  14.281   5.301  10.481  0.0246  0.0369 -0.0042
  470DPPI   C1A 7249  14.672   5.699  10.265  0.2350  0.1783  0.2531
  470DPPI   C2A 7250  14.662   5.695   9.809 -0.1251  0.0585 -0.0465
  470DPPI   C3A 7251  14.717   5.670   9.352 -0.1504 -0.1837  0.1012
  470DPPI   C4A 7252  14.581   5.646   8.982 -0.1363  0.0392 -0.0605
  470DPPI   C1B 7253  14.422   5.233  10.135 -0.0410 -0.0278  0.3951
  470DPPI   C2B 7254  14.552   5.152   9.687  0.3592  0.0243  0.0678
  470DPPI   C3B 7255  14.524   5.206   9.319 -0.3256 -0.0379  0.0494
  470DPPI   C4B 7256  14.559   5.165   8.870 -0.2284 -0.1998 -0.0365
  471DPPI    C1 7257   5.223   8.222  10.228  0.1703 -0.0715  0.0504
  471DPPI    C2 7258   4.825   8.189  10.220  0.1783 -0.1326 -0.1381
  471DPPI    C3 7259   5.006   8.343  10.541 -0.0071  0.0323 -0.1106
  471DPPI   PO4 7260   5.308   7.968  10.073 -0.1064  0.0371 -0.1047
  471DPPI   GL1 7261   5.495   7.984   9.590  0.2496 -0.0547 -0.0446
  471DPPI   GL2 7262   5.150   7.774   9.473 -0.2134  0.1107  0.0949
  471DPPI   C1A 7263   5.554   8.023   9.179 -0.0754  0.0138 -0.2731
  471DPPI   C2A 7264   5.669   7.965   8.696 -0.1529 -0.1850 -0.1497
  471DPPI   C3A 7265   5.514   8.204   8.284  0.0410  0.1375 -0.1665
  471DPPI   C4A 7266   5.714   8.177   7.894 -0.1498 -0.0583  0.0095
  471DPPI   C1B 7267   5.211   7.434   9.198 -0.0783 -0.1757  0.2914
  471DPPI   C2B 7268   5.218   7.335   8.768  0.2586  0.1318  0.0941
  471DPPI   C3B 7269   5.115   7.339   8.332  0.0293 -0.1424  0.1408
  471DPPI   C4B 7270   5.059   7.436   7.900 -0.2320  0.1904 -0.3236
  472DPPI    C1 7271   2.905  12.997   9.951  0.1015 -0.4043  0.1311
  472DPPI    C2 7272   2.933  13.309  10.201  0.1432 -0.2489 -0.0652
  472DPPI    C3 7273   3.107  12.961  10.295  0.1602 -0.1911  0.1203
  472DPPI   PO4 7274   2.682  13.043   9.881  0.1248  0.0176 -0.2032
  472DPPI   GL1 7275   2.430  12.818   9.597 -0.3550 -0.0321 -0.0849
  472DPPI   GL2 7276   2.282  13.115   9.622  0.3750 -0.0063 -0.1947
  472DPPI   C1A 7277   2.325  12.631   9.253 -0.1471  0.2176 -0.1348
  472DPPI   C2A 7278   2.363  12.742   8.806 -0.0768 -0.1310 -0.1551
  472DPPI   C3A 7279   2.410  12.535   8.353  0.0258  0.0412 -0.0031
  472DPPI   C4A 7280   2.448  12.383   7.940 -0.1405  0.0572 -0.0791
  472DPPI   C1B 7281   2.121  13.162   9.165 -0.1113 -0.2066 -0.0350
  472DPPI   C2B 7282   2.077  13.135   8.731 -0.1536 -0.3213  0.2051
  472DPPI   C3B 7283   2.183  12.940   8.261 -0.2360  0.1660  0.2987
  472DPPI   C4B 7284   2.439  12.897   7.943  0.0938 -0.0548 -0.1263
  473PYPI    C1 7285  15.018  14.800  11.009 -0.0102  0.0976 -0.0253
  473PYPI    C2 7286  15.155  14.605  10.688  0.0022  0.0640  0.0002
  473PYPI    C3 7287  15.380  14.885  10.863  0.0760 -0.0548  0.0966
  473PYPI   PO4 7288  14.675  14.861  10.861 -0.1662 -0.0384 -0.3614
  473PYPI   GL1 7289  14.687  14.774  10.530 -0.3109  0.0886  0.1677
  473PYPI   GL2 7290  14.539  14.986  10.382 -0.3609 -0.3762 -0.0435
  473PYPI   C1A 7291  14.985  15.010  10.163 -0.0137  0.1643  0.3877
  473PYPI   C2A 7292  15.379  14.951  10.002  0.0689 -0.1582  0.0413
  473PYPI   D3A 7293  15.858  14.977  10.030 -0.0922  0.0310  0.2335
  473PYPI   C4A 7294  15.989  14.857   9.632  0.3401  0.2712 -0.1985
  473PYPI   C1B 7295  14.463  15.043   9.902 -0.0030  0.0274 -0.1812
  473PYPI   C2B 7296  14.778  14.967   9.572  0.0514 -0.3717  0.1617
  473PYPI   C3B 7297  15.137  14.885   9.452 -0.0733 -0.0653 -0.2193
  473PYPI   C4B 7298  15.506  15.059   9.531 -0.1592  0.0980 -0.1556
  474PYPI    C1 7299   0.210   0.219  10.802 -0.1777  0.1282  0.3246
  474PYPI    C2 7300  -0.082   0.017  10.618 -0.0083  0.1405  0.0363
  474PYPI    C3 7301   0.044  -0.100  10.979 -0.2563  0.0377  0.0920
  474PYPI   PO4 7302   0.118   0.530  10.647 -0.1025 -0.0606  0.2090
  474PYPI   GL1 7303  -0.016   0.689  10.244 -0.2611  0.2476  0.3357
  474PYPI   GL2 7304  -0.065   0.300  10.189  0.0123 -0.2015  0.1375
  474PYPI   C1A 7305  -0.021   0.820   9.759  0.2049 -0.3209 -0.1508
  474PYPI   C2A 7306  -0.011   0.845   9.334  0.0199  0.2511 -0.0527
  474PYPI   D3A 7307  -0.120   0.678   9.015  0.4208  0.1276 -0.4463
  474PYPI   C4A 7308  -0.500   0.738   9.112  0.0959 -0.0022 -0.0189
  474PYPI   C1B 7309   0.036   0.283   9.678  0.1572 -0.0807  0.2258
  474PYPI   C2B 7310   0.065   0.216   9.200  0.0254 -0.0617  0.1268
  474PYPI   C3B 7311   0.030   0.022   8.796  0.0634 -0.0032 -0.0714
  474PYPI   C4B 7312   0.269   0.063   8.427 -0.1799  0.3665  0.1475
  475PYPI    C1 7313  16.717  13.521  11.187  0.0202 -0.0582 -0.0465
  475PYPI    C2 7314  16.854  13.896  11.218  0.0585 -0.0962  0.2825
  475PYPI    C3 7315  16.574  13.764  11.471  0.0466 -0.2912  0.1696
  475PYPI   PO4 7316  16.634  13.555  10.855 -0.0172 -0.3424 -0.1428
  475PYPI   GL1 7317  16.882  13.655  10.488  0.0012 -0.0021  0.2548
  475PYPI   GL2 7318  16.791  13.369  10.396 -0.0595  0.1620  0.0525
  475PYPI   C1A 7319  16.898  13.720   9.993 -0.1201  0.0767  0.1183
  475PYPI   C2A 7320  16.878  13.606   9.575  0.1225 -0.0510  0.1040
  475PYPI   D3A 7321  16.921  13.319   9.253  0.2434 -0.3648  0.0110
  475PYPI   C4A 7322  17.238  13.326   8.996  0.0704 -0.0818 -0.1088
  475PYPI   C1B 7323  16.687  13.278   9.966 -0.2263  0.3177 -0.3088
  475PYPI   C2B 7324  16.614  13.135   9.541  0.0291 -0.1603 -0.0067
  475PYPI   C3B 7325  16.655  12.824   9.312  0.0767 -0.2331 -0.1205
  475PYPI   C4B 7326  16.574  12.557   8.974  0.2920  0.2484  0.0803
  476PYPI    C1 7327   8.302  17.600   9.947 -0.0711  0.0433  0.0636
  476PYPI    C2 7328   8.071  17.785  10.216  0.0153 -0.0928  0.2332
  476PYPI    C3 7329   8.443  17.915  10.148 -0.0006 -0.0689  0.1913
  476PYPI   PO4 7330   8.041  17.481   9.839 -0.0163  0.0792  0.1911
  476PYPI   GL1 7331   7.748  17.623   9.545 -0.1975  0.2284  0.4139
  476PYPI   GL2 7332   7.935  17.700   9.363  0.1652  0.0809  0.2305
  476PYPI   C1A 7333   7.649  17.533   9.048 -0.1280  0.0552  0.2549
  476PYPI   C2A 7334   7.458  17.325   8.642 -0.1963 -0.0959 -0.0104
  476PYPI   D3A 7335   7.426  17.061   8.246 -0.0016  0.1079  0.1499
  476PYPI   C4A 7336   7.330  17.092   7.896 -0.0769 -0.2199  0.1595
  476PYPI   C1B 7337   8.072  18.032   9.108  0.0607 -0.0036 -0.2576
  476PYPI   C2B 7338   8.200  18.068   8.788  0.0685  0.1202 -0.0352
  476PYPI   C3B 7339   8.560  18.236   8.681 -0.0529 -0.4473  0.0068
  476PYPI   C4B 7340   8.786  18.461   8.377 -0.1144 -0.0737 -0.1877
  477PYPI    C1 7341  15.503   9.255  10.704 -0.3656  0.0278 -0.0553
  477PYPI    C2 7342  15.620   8.911  10.538  0.0192  0.1576 -0.0633
  477PYPI    C3 7343  15.598   8.943  10.936  0.1594  0.1772 -0.0565
  477PYPI   PO4 7344  15.306   9.314  10.499  0.0462  0.0086 -0.1503
  477PYPI   GL1 7345  15.262   9.530  10.030 -0.2301 -0.1523 -0.2725
  477PYPI   GL2 7346  15.494   9.640  10.100  0.1049 -0.1697  0.0186
  477PYPI   C1A 7347  14.821   9.708   9.769 -0.1598 -0.2644 -0.1711
  477PYPI   C2A 7348  14.410  10.044   9.658 -0.0682  0.0239  0.2020
  477PYPI   D3A 7349  14.071  10.230   9.537 -0.3349 -0.0697 -0.0639
  477PYPI   C4A 7350  13.966  10.274   9.069  0.0372  0.1342 -0.0853
  477PYPI   C1B 7351  15.418   9.666   9.606  0.2561  0.1092 -0.3222
  477PYPI   C2B 7352  15.270   9.770   9.284 -0.1367 -0.1652  0.1448
  477PYPI   C3B 7353  15.370   9.722   8.860  0.0319  0.0421 -0.1441
  477PYPI   C4B 7354  15.465   9.479   8.618 -0.3466  0.1707  0.0958
  478PYPI    C1 7355  17.766   4.276  10.490 -0.1035 -0.1078 -0.0120
  478PYPI    C2 7356  17.930   3.960  10.674 -0.1065 -0.1411 -0.0663
  478PYPI    C3 7357  17.667   4.191  10.868 -0.1564 -0.2125 -0.0490
  478PYPI   PO4 7358  17.718   4.208  10.258 -0.2952  0.0506 -0.0731
  478PYPI   GL1 7359  17.865   4.465  10.015  0.1707  0.1713 -0.0183
  478PYPI   GL2 7360  18.203   4.472   9.889  0.3973  0.4871 -0.3004
  478PYPI   C1A 7361  17.769   4.683   9.540  0.0850 -0.1917 -0.0662
  478PYPI   C2A 7362  17.752   4.741   9.139  0.1711 -0.0786 -0.1381
  478PYPI   D3A 7363  17.811   4.744   8.727  0.0970  0.0553 -0.0366
  478PYPI   C4A 7364  17.824   4.925   8.350 -0.0422  0.0432  0.3094
  478PYPI   C1B 7365  18.260   4.742   9.482 -0.2961  0.0287  0.1389
  478PYPI   C2B 7366  18.294   4.846   9.129 -0.0630  0.1856  0.1132
  478PYPI   C3B 7367  18.212   5.055   8.723 -0.1635  0.1624  0.0771
  478PYPI   C4B 7368  18.225   5.302   8.407  0.0585  0.3794  0.0975
  479PYPI    C1 7369   1.912  12.357  10.615 -0.1866 -0.2438  0.0723
  479PYPI    C2 7370   2.216  12.615  10.593 -0.2646 -0.1676 -0.1404
  479PYPI    C3 7371   2.161  12.399  10.925  0.0101 -0.1698 -0.0935
  479PYPI   PO4 7372   1.749  12.473  10.452 -0.0612  0.0201  0.0391
  479PYPI   GL1 7373   1.711  12.648  10.057 -0.0009 -0.0979 -0.0329
  479PYPI   GL2 7374   1.938  12.728   9.842  0.3211 -0.1507 -0.3079
  479PYPI   C1A 7375   1.652  12.281   9.800 -0.0330 -0.2481 -0.3542
  479PYPI   C2A 7376   1.608  12.302   9.390  0.0208 -0.0580  0.1441
  479PYPI   D3A 7377   1.522  12.176   8.955 -0.1004 -0.0255  0.2734
  479PYPI   C4A 7378   1.527  12.236   8.383 -0.1214  0.0024 -0.3089
  479PYPI   C1B 7379   1.872  12.719   9.403  0.2815  0.2132 -0.2806
  479PYPI   C2B 7380   1.870  12.648   9.013  0.0434 -0.1403 -0.2713
  479PYPI   C3B 7381   1.940  12.561   8.612  0.0464 -0.2033 -0.2140
  479PYPI   C4B 7382   1.952  12.496   8.224 -0.0092 -0.0448 -0.1054
  480PYPI    C1 7383  17.316   0.626  10.512 -0.1068  0.2397 -0.1131
  480PYPI    C2 7384  17.020   0.377  10.614 -0.0282  0.2148  0.0576
  480PYPI    C3 7385  17.226   0.570  10.897  0.3282 -0.0104 -0.0413
  480PYPI   PO4 7386  17.244   0.587  10.241  0.0625  0.1097  0.0811
  480PYPI   GL1 7387  17.213   0.500   9.826 -0.2179  0.4716  0.2668
  480PYPI   GL2 7388  17.121   0.151   9.966  0.1349  0.0628 -0.1408
  480PYPI   C1A 7389  17.311   0.458   9.493 -0.1041 -0.1167  0.0164
  480PYPI   C2A 7390  17.313   0.462   9.068 -0.0309  0.0148 -0.1967
  480PYPI   D3A 7391  17.451   0.683   8.625 -0.1477  0.1357 -0.2987
  480PYPI   C4A 7392  17.674   0.459   8.337 -0.0652  0.1117 -0.0546
  480PYPI   C1B 7393  16.983  -0.112   9.776  0.0044  0.1109  0.0301
  480PYPI   C2B 7394  17.112  -0.427   9.598 -0.3736  0.1296  0.0455
  480PYPI   C3B 7395  17.459  -0.463   9.416 -0.0857 -0.0416  0.0405
  480PYPI   C4B 7396  17.764  -0.193   9.334  0.0332  0.2702  0.1848
  481PYPI    C1 7397   2.962   6.039  10.140  0.2736  0.1988  0.3167
  481PYPI    C2 7398   2.671   6.159  10.386 -0.0043  0.0160  0.0840
  481PYPI    C3 7399   2.768   5.772  10.365  0.0199  0.0309 -0.0905
  481PYPI   PO4 7400   2.915   6.144   9.917  0.0841 -0.2529 -0.0592
  481PYPI   GL1 7401   3.062   6.263   9.477  0.1893  0.3152  0.1328
  481PYPI   GL2 7402   2.819   6.237   9.288 -0.0395  0.2357  0.0405
  481PYPI   C1A 7403   3.227   5.999   9.144  0.1185  0.1666  0.1441
  481PYPI   C2A 7404   3.160   6.077   8.752 -0.1196 -0.2711 -0.0102
  481PYPI   D3A 7405   2.841   6.363   8.434  0.1180  0.2326  0.1823
  481PYPI   C4A 7406   2.624   6.707   8.584  0.0647 -0.0846 -0.1304
  481PYPI   C1B 7407   2.470   6.549   9.032 -0.0978  0.0651  0.0617
  481PYPI   C2B 7408   2.110   6.644   8.829  0.0841 -0.0016  0.0334
  481PYPI   C3B 7409   1.691   6.753   8.855  0.3265 -0.1355 -0.1779
  481PYPI   C4B 7410   1.360   6.824   8.993  0.0285 -0.0189 -0.4103
  482PYPI    C1 7411   5.729   6.366  10.161 -0.0716 -0.3059  0.0757
  482PYPI    C2 7412   5.883   6.600  10.447  0.2884 -0.2195 -0.1813
  482PYPI    C3 7413   5.795   6.217  10.527  0.1119 -0.1199  0.1198
  482PYPI   PO4 7414   5.845   6.395   9.901 -0.2469 -0.3180 -0.4041
  482PYPI   GL1 7415   5.851   6.052   9.808 -0.2658  0.0513  0.1069
  482PYPI   GL2 7416   5.503   5.878   9.983  0.1661  0.0742  0.0777
  482PYPI   C1A 7417   6.270   5.884   9.524  0.0459 -0.0703  0.0369
  482PYPI   C2A 7418   6.309   5.615   9.170 -0.0020  0.0206  0.0397
  482PYPI   D3A 7419   6.028   5.622   8.797 -0.3192  0.0087 -0.1204
  482PYPI   C4A 7420   6.198   5.756   8.401 -0.0175 -0.1076  0.0822
  482PYPI   C1B 7421   5.322   5.788   9.593  0.0767 -0.0844 -0.0877
  482PYPI   C2B 7422   5.409   5.464   9.266 -0.0538  0.1088 -0.2079
  482PYPI   C3B 7423   5.143   5.117   9.211  0.0532  0.2260 -0.0475
  482PYPI   C4B 7424   5.004   4.755   8.944  0.0361 -0.1147 -0.0198
  483PYPI    C1 7425   5.474  12.975  10.083  0.0713 -0.2060 -0.3860
  483PYPI    C2 7426   5.375  12.605   9.968  0.0934 -0.3587  0.0695
  483PYPI    C3 7427   5.501  12.672  10.342  0.1525  0.1007 -0.0269
  483PYPI   PO4 7428   5.325  13.167   9.917  0.0298 -0.2852  0.3438
  483PYPI   GL1 7429   5.191  13.361   9.555 -0.2512  0.0971  0.1298
  483PYPI   GL2 7430   5.132  13.582   9.429  0.0876 -0.0123 -0.1479
  483PYPI   C1A 7431   5.497  13.307   9.205 -0.0445  0.1862 -0.0898
  483PYPI   C2A 7432   5.559  13.511   8.759  0.1298  0.0284 -0.0124
  483PYPI   D3A 7433   5.644  13.892   8.672  0.0946 -0.2554  0.1166
  483PYPI   C4A 7434   5.346  14.170   8.350  0.1853 -0.1210  0.0197
  483PYPI   C1B 7435   5.042  13.719   9.114 -0.1180  0.0428 -0.0324
  483PYPI   C2B 7436   5.139  13.768   8.749 -0.2833 -0.4441 -0.0933
  483PYPI   C3B 7437   5.287  13.691   8.351 -0.2003 -0.0200  0.1728
  483PYPI   C4B 7438   5.776  13.538   8.125  0.1483 -0.1641  0.3263
  484PYPI    C1 7439   9.249   3.550  10.435 -0.1027  0.0408  0.1065
  484PYPI    C2 7440   9.433   3.708  10.753 -0.1136  0.0098  0.1283
  484PYPI    C3 7441   9.134   3.906  10.576 -0.0226  0.0858  0.0588
  484PYPI   PO4 7442   9.481   3.459  10.320 -0.0824  0.3590  0.0878
  484PYPI   GL1 7443   9.654   3.588   9.955 -0.0644  0.4609  0.2254
  484PYPI   GL2 7444   9.933   3.418   9.763 -0.2541 -0.0658 -0.5076
  484PYPI   C1A 7445   9.510   3.666   9.571 -0.0592  0.0341  0.0424
  484PYPI   C2A 7446   9.520   3.842   9.260  0.1635  0.1454  0.1315
  484PYPI   D3A 7447   9.569   3.924   8.903  0.1075  0.0862 -0.0709
  484PYPI   C4A 7448   9.116   3.981   8.872  0.2093  0.0122 -0.3484
  484PYPI   C1B 7449  10.138   3.511   9.214  0.0051  0.1931  0.0778
  484PYPI   C2B 7450  10.011   3.576   8.747 -0.1105 -0.2093  0.2706
  484PYPI   C3B 7451   9.766   3.662   8.379 -0.1384 -0.2341 -0.1557
  484PYPI   C4B 7452   9.838   3.975   8.143 -0.1258 -0.3471 -0.1831
  485PYPI    C1 7453   1.213   9.367  10.501  0.1375  0.1968 -0.0609
  485PYPI    C2 7454   1.447   9.070  10.371  0.0231  0.1930 -0.2631
  485PYPI    C3 7455   1.553   9.282  10.693 -0.0173 -0.2278  0.0364
  485PYPI   PO4 7456   1.166   9.485  10.187  0.0518 -0.0863  0.2802
  485PYPI   GL1 7457   0.973   9.296   9.806 -0.0645 -0.2030 -0.1216
  485PYPI   GL2 7458   0.750   9.064   9.716  0.0554  0.0294  0.0598
  485PYPI   C1A 7459   1.000   9.414   9.362  0.0654  0.4010 -0.3377
  485PYPI   C2A 7460   0.957   9.369   8.937  0.1201  0.3708  0.1756
  485PYPI   D3A 7461   0.888   9.099   8.594  0.1270  0.0590  0.1287
  485PYPI   C4A 7462   0.484   9.319   8.385  0.1749 -0.0311  0.3612
  485PYPI   C1B 7463   0.662   9.075   9.256  0.0991  0.2757  0.1863
  485PYPI   C2B 7464   0.519   9.041   8.908 -0.1576 -0.1079  0.1122
  485PYPI   C3B 7465   0.378   8.868   8.556  0.2158 -0.3104  0.2336
  485PYPI   C4B 7466   0.417   8.619   8.359  0.3160  0.1710 -0.1924
  486PYPI    C1 7467  17.467  14.462  10.574  0.2459  0.2307  0.0274
  486PYPI    C2 7468  17.464  14.560  10.962 -0.1119 -0.1817  0.1360
  486PYPI    C3 7469  17.132  14.600  10.743  0.0138 -0.2081 -0.0622
  486PYPI   PO4 7470  17.735  14.625  10.394 -0.2553  0.0723 -0.1378
  486PYPI   GL1 7471  17.917  14.424  10.063 -0.2207 -0.0604  0.2303
  486PYPI   GL2 7472  17.705  14.221  10.172 -0.1217 -0.0565  0.2880
  486PYPI   C1A 7473  18.111  14.134   9.872  0.1212  0.2978 -0.4702
  486PYPI   C2A 7474  18.353  13.795   9.899 -0.0069  0.1267 -0.0703
  486PYPI   D3A 7475  18.462  13.507  10.037 -0.0826  0.3383  0.0617
  486PYPI   C4A 7476  18.540  13.115   9.887 -0.2069 -0.4002  0.0304
  486PYPI   C1B 7477  17.608  14.050   9.806 -0.1962  0.0049 -0.1924
  486PYPI   C2B 7478  17.456  13.826   9.488 -0.3067  0.4208 -0.3078
  486PYPI   C3B 7479  17.173  13.819   9.096 -0.0215  0.1273  0.0418
  486PYPI   C4B 7480  17.026  13.796   8.656  0.1190 -0.1615 -0.1378
  487PYPI    C1 7481   1.020  10.344  10.607 -0.0224 -0.0333  0.0699
  487PYPI    C2 7482   1.359  10.545  10.673 -0.0864  0.1111 -0.0363
  487PYPI    C3 7483   1.039  10.612  10.904 -0.0025 -0.1254  0.1524
  487PYPI   PO4 7484   1.033  10.419  10.332 -0.0864  0.2237 -0.0684
  487PYPI   GL1 7485   1.119  10.314   9.980  0.2180 -0.2220  0.1958
  487PYPI   GL2 7486   1.231  10.643   9.877 -0.2942  0.1110 -0.0042
  487PYPI   C1A 7487   1.338  10.268   9.537  0.2727 -0.2832 -0.2031
  487PYPI   C2A 7488   1.206  10.361   9.144 -0.3025 -0.1722  0.0820
  487PYPI   D3A 7489   1.063  10.852   9.064 -0.1666  0.1884  0.1829
  487PYPI   C4A 7490   1.047  10.949   8.665  0.0256 -0.1586 -0.1455
  487PYPI   C1B 7491   1.385  10.774   9.442 -0.1317 -0.2106 -0.1387
  487PYPI   C2B 7492   1.832  10.872   9.343  0.0023 -0.1465 -0.3654
  487PYPI   C3B 7493   2.039  10.836   8.970  0.1596 -0.3097 -0.2107
  487PYPI   C4B 7494   2.260  10.931   8.623 -0.2480  0.1128  0.1149
  488PYPI    C1 7495   8.640  17.166  10.061 -0.0415 -0.0384  0.2083
  488PYPI    C2 7496   8.806  16.808  10.126  0.0279 -0.0226  0.1206
  488PYPI    C3 7497   8.658  17.018  10.432  0.0003 -0.1195  0.1742
  488PYPI   PO4 7498   8.463  17.161   9.832 -0.2645 -0.3172 -0.2153
  488PYPI   GL1 7499   8.488  17.320   9.476 -0.0533 -0.0169 -0.2254
  488PYPI   GL2 7500   8.524  17.061   9.304  0.3009  0.1117  0.0319
  488PYPI   C1A 7501   8.814  17.489   9.276 -0.2255  0.3355 -0.2033
  488PYPI   C2A 7502   9.064  17.744   9.057 -0.0599  0.2273  0.2671
  488PYPI   D3A 7503   9.046  18.055   8.622 -0.0855  0.1704 -0.0594
  488PYPI   C4A 7504   9.350  18.175   8.445  0.1686  0.1078 -0.4091
  488PYPI   C1B 7505   8.627  17.276   8.867  0.1563 -0.2243  0.0309
  488PYPI   C2B 7506   8.750  17.262   8.446 -0.0900  0.3103  0.1226
  488PYPI   C3B 7507   8.487  17.375   8.239  0.2113 -0.1622  0.4723
  488PYPI   C4B 7508   8.244  17.480   7.904  0.0271 -0.1099 -0.2512
  489PYPI    C1 7509   8.717   6.621  10.716 -0.0011 -0.0392  0.0026
  489PYPI    C2 7510   8.723   6.908  10.994  0.3001 -0.0259 -0.0138
  489PYPI    C3 7511   8.612   6.536  11.093 -0.2082  0.1165 -0.0184
  489PYPI   PO4 7512   8.476   6.718  10.441  0.4515 -0.3792  0.1656
  489PYPI   GL1 7513   8.380   6.800  10.052 -0.1377 -0.0267  0.0816
  489PYPI   GL2 7514   8.303   6.490   9.980 -0.0889 -0.2421  0.3668
  489PYPI   C1A 7515   8.617   6.658   9.614  0.1245 -0.0742  0.1691
  489PYPI   C2A 7516   8.742   6.800   9.220 -0.2341 -0.0814  0.3214
  489PYPI   D3A 7517   8.975   6.814   8.856 -0.2914 -0.0310 -0.0938
  489PYPI   C4A 7518   9.050   6.581   8.516 -0.1246 -0.1586 -0.1295
  489PYPI   C1B 7519   8.188   6.388   9.532  0.0936 -0.2176  0.1448
  489PYPI   C2B 7520   8.286   6.431   9.086 -0.4377 -0.3831  0.1841
  489PYPI   C3B 7521   8.388   6.753   8.870 -0.2589 -0.1682  0.2049
  489PYPI   C4B 7522   8.608   6.800   8.440 -0.2981  0.2092 -0.0186
  490PYPI    C1 7523  10.462   2.415  10.417 -0.0873 -0.0838  0.2144
  490PYPI    C2 7524  10.153   2.662  10.360  0.0824  0.0856  0.0101
  490PYPI    C3 7525  10.352   2.667  10.707 -0.0805  0.0465  0.1050
  490PYPI   PO4 7526  10.528   2.419  10.139 -0.2529  0.0184  0.1955
  490PYPI   GL1 7527  10.743   2.507   9.788 -0.2103  0.4505 -0.1713
  490PYPI   GL2 7528  10.857   2.800   9.668  0.1165  0.0858 -0.0976
  490PYPI   C1A 7529  10.882   2.285   9.376 -0.1371  0.3367  0.1620
  490PYPI   C2A 7530  10.935   2.327   8.931  0.2315 -0.0420 -0.0345
  490PYPI   D3A 7531  11.194   2.543   8.586  0.0761 -0.0774  0.0343
  490PYPI   C4A 7532  11.649   2.570   8.586  0.0638 -0.0046  0.2362
  490PYPI   C1B 7533  11.005   2.894   9.175  0.2411 -0.2034  0.0987
  490PYPI   C2B 7534  10.814   2.983   8.789 -0.1428 -0.2680 -0.1635
  490PYPI   C3B 7535  10.701   3.128   8.387  0.2825 -0.0851 -0.0580
  490PYPI   C4B 7536  11.053   3.163   8.114  0.0479  0.0190  0.1955
  491PYPI    C1 7537  11.638  10.485  10.445 -0.0091  0.1114  0.1305
  491PYPI    C2 7538  11.694  10.340  10.813 -0.0755  0.0762  0.1269
  491PYPI    C3 7539  11.377  10.572  10.736 -0.2000 -0.1228  0.0325
  491PYPI   PO4 7540  11.836  10.330  10.273  0.0464 -0.2445 -0.0099
  491PYPI   GL1 7541  11.923   9.945   9.991  0.1446 -0.2565 -0.4291
  491PYPI   GL2 7542  11.954   9.755  10.034  0.1194  0.1779 -0.0593
  491PYPI   C1A 7543  11.864  10.211   9.567  0.0207 -0.2128  0.1780
  491PYPI   C2A 7544  11.803  10.222   9.082 -0.0934 -0.1242 -0.1395
  491PYPI   D3A 7545  11.558  10.351   8.713 -0.1062 -0.1896  0.4183
  491PYPI   C4A 7546  11.693  10.664   8.489  0.0846 -0.1017  0.1920
  491PYPI   C1B 7547  12.054   9.712   9.620  0.0886 -0.1160 -0.2989
  491PYPI   C2B 7548  12.204   9.505   9.226  0.1566  0.2760  0.0323
  491PYPI   C3B 7549  12.326   9.252   8.792 -0.1333  0.1841 -0.1265
  491PYPI   C4B 7550  12.554   9.297   8.487 -0.1002  0.1261 -0.4160
  492PYPI    C1 7551  15.547  13.211  10.829 -0.0437  0.2207  0.0832
  492PYPI    C2 7552  15.171  13.083  10.780  0.0853 -0.0229 -0.3261
  492PYPI    C3 7553  15.453  12.832  10.913  0.1953  0.0328 -0.4515
  492PYPI   PO4 7554  15.583  13.333  10.621 -0.0558  0.0636 -0.2723
  492PYPI   GL1 7555  15.921  13.573  10.298  0.4105 -0.1780 -0.0003
  492PYPI   GL2 7556  16.174  13.318  10.298 -0.1777 -0.2533  0.0969
  492PYPI   C1A 7557  15.779  13.581   9.873  0.0262  0.0462  0.0282
  492PYPI   C2A 7558  15.740  13.576   9.469 -0.0952 -0.1918  0.0029
  492PYPI   D3A 7559  15.879  13.475   9.133  0.2026  0.1310 -0.0694
  492PYPI   C4A 7560  15.755  13.018   9.012 -0.0896 -0.1366 -0.1980
  492PYPI   C1B 7561  16.323  13.602  10.007  0.0493 -0.2364  0.0147
  492PYPI   C2B 7562  16.329  13.552   9.624 -0.2037 -0.0150  0.4623
  492PYPI   C3B 7563  16.309  13.614   9.255 -0.3004 -0.1995  0.0495
  492PYPI   C4B 7564  16.129  13.781   8.830 -0.1497 -0.0633 -0.0057
  493PYPI    C1 7565  15.275   7.784  10.824  0.0761 -0.0736  0.1964
  493PYPI    C2 7566  15.262   8.091  11.080 -0.1188 -0.1347  0.2622
  493PYPI    C3 7567  15.610   7.983  10.914 -0.1031  0.3411 -0.0303
  493PYPI   PO4 7568  14.977   7.866  10.669 -0.1275 -0.4250 -0.0136
  493PYPI   GL1 7569  14.712   7.775  10.294 -0.1605 -0.1531  0.1566
  493PYPI   GL2 7570  14.451   7.952  10.264  0.2547  0.1433  0.0601
  493PYPI   C1A 7571  14.897   7.720   9.925 -0.0019 -0.2348  0.0585
  493PYPI   C2A 7572  14.730   7.603   9.544 -0.0119  0.1082 -0.3618
  493PYPI   D3A 7573  14.703   7.871   9.085  0.1376  0.0154  0.0474
  493PYPI   C4A 7574  14.864   7.709   8.687 -0.2132  0.0951 -0.0673
  493PYPI   C1B 7575  14.405   7.896   9.844  0.1510 -0.0825  0.0457
  493PYPI   C2B 7576  14.287   8.058   9.411 -0.0553  0.1649  0.0766
  493PYPI   C3B 7577  14.264   8.239   8.934 -0.0657  0.1349  0.2160
  493PYPI   C4B 7578  14.119   8.375   8.512  0.2123  0.0525 -0.0973
  494PYPI    C1 7579   6.462   3.207  10.416  0.3816 -0.0065 -0.2257
  494PYPI    C2 7580   6.598   3.158  10.043  0.1853  0.0557 -0.3069
  494PYPI    C3 7581   6.418   3.500  10.147  0.0027 -0.0618 -0.2305
  494PYPI   PO4 7582   6.306   2.891  10.430 -0.2943 -0.3538  0.0570
  494PYPI   GL1 7583   6.365   2.692  10.060  0.1039  0.0649  0.0239
  494PYPI   GL2 7584   6.558   2.690   9.905  0.3092  0.0815  0.4010
  494PYPI   C1A 7585   6.170   2.617   9.657  0.2412  0.1241 -0.0272
  494PYPI   C2A 7586   6.147   2.502   9.237  0.0755 -0.0464  0.0913
  494PYPI   D3A 7587   6.032   2.399   8.845  0.0272 -0.0429 -0.0259
  494PYPI   C4A 7588   5.833   2.705   8.507 -0.0494 -0.0023 -0.2007
  494PYPI   C1B 7589   6.613   2.640   9.489 -0.0359  0.1139 -0.0261
  494PYPI   C2B 7590   6.609   2.671   9.093 -0.0652 -0.0296 -0.3375
  494PYPI   C3B 7591   6.412   2.655   8.691 -0.0648 -0.2440 -0.1801
  494PYPI   C4B 7592   6.307   2.493   8.325  0.0353  0.0079 -0.3565
  495PYPI    C1 7593  12.271   1.425  10.656  0.1672 -0.1600 -0.1673
  495PYPI    C2 7594  12.336   1.622  10.998  0.0257 -0.1452 -0.1483
  495PYPI    C3 7595  12.590   1.336  10.881  0.2907  0.1168 -0.2281
  495PYPI   PO4 7596  12.280   1.626  10.460  0.3136  0.0605 -0.5863
  495PYPI   GL1 7597  12.331   1.900  10.158  0.1039 -0.1013  0.0409
  495PYPI   GL2 7598  12.684   1.852  10.182 -0.1770 -0.1325  0.1363
  495PYPI   C1A 7599  12.361   1.767   9.794 -0.2933  0.0220  0.0814
  495PYPI   C2A 7600  12.388   1.855   9.403  0.0869  0.0317  0.1407
  495PYPI   D3A 7601  12.374   1.853   8.958  0.0433 -0.0873 -0.2829
  495PYPI   C4A 7602  12.405   1.712   8.591 -0.0732 -0.1173 -0.1673
  495PYPI   C1B 7603  12.787   1.993   9.868 -0.4061  0.1380  0.3259
  495PYPI   C2B 7604  12.825   2.032   9.425  0.3914  0.1267  0.1276
  495PYPI   C3B 7605  12.726   2.208   9.061  0.1118  0.2001  0.1035
  495PYPI   C4B 7606  12.509   2.249   8.592  0.1886  0.1145 -0.2760
  496PYPI    C1 7607   4.220   3.665  10.026 -0.0552 -0.1062  0.1890
  496PYPI    C2 7608   4.004   3.744   9.699 -0.0274 -0.3051  0.1214
  496PYPI    C3 7609   3.833   3.761  10.061 -0.0148  0.0898  0.1135
  496PYPI   PO4 7610   4.304   3.414   9.957  0.0641  0.1055 -0.1530
  496PYPI   GL1 7611   4.016   3.205   9.588 -0.0081  0.0886 -0.0726
  496PYPI   GL2 7612   4.293   3.082   9.586 -0.0338 -0.3144  0.0510
  496PYPI   C1A 7613   4.184   3.451   9.272  0.4129  0.2732 -0.0698
  496PYPI   C2A 7614   4.085   3.278   8.864 -0.1287  0.2000  0.1546
  496PYPI   D3A 7615   4.199   3.193   8.426  0.3098  0.2501 -0.1293
  496PYPI   C4A 7616   4.607   3.299   8.167 -0.3711 -0.3288  0.1027
  496PYPI   C1B 7617   4.243   2.903   9.181 -0.3565 -0.3470  0.0213
  496PYPI   C2B 7618   4.405   2.791   8.746  0.1321  0.0611  0.0731
  496PYPI   C3B 7619   4.423   2.721   8.247  0.2231 -0.1439 -0.1155
  496PYPI   C4B 7620   4.283   2.953   7.971 -0.2130  0.1278  0.1810
  497PYPI    C1 7621  17.335   8.450  10.733 -0.2328  0.0773 -0.0305
  497PYPI    C2 7622  17.653   8.630  10.895 -0.0011  0.1053 -0.5010
  497PYPI    C3 7623  17.288   8.698  11.044  0.2027  0.1043  0.0197
  497PYPI   PO4 7624  17.350   8.460  10.513 -0.0051 -0.3929 -0.2066
  497PYPI   GL1 7625  17.333   8.339  10.108  0.1989  0.1025 -0.0656
  497PYPI   GL2 7626  17.238   8.517   9.818 -0.2446 -0.2595  0.1045
  497PYPI   C1A 7627  17.005   8.085   9.867  0.0209  0.0532  0.5155
  497PYPI   C2A 7628  16.809   7.949   9.470 -0.0480  0.0697 -0.4456
  497PYPI   D3A 7629  16.583   7.745   9.113  0.1379 -0.1130 -0.1028
  497PYPI   C4A 7630  16.134   7.539   9.221 -0.0290  0.0952 -0.0340
  497PYPI   C1B 7631  17.049   8.793   9.572  0.0743  0.1720 -0.3769
  497PYPI   C2B 7632  16.769   8.663   9.233 -0.1336  0.1658  0.0366
  497PYPI   C3B 7633  16.874   8.703   8.803 -0.3078  0.2947  0.0254
  497PYPI   C4B 7634  16.902   8.836   8.329 -0.2016 -0.0648 -0.0731
  498PYPI    C1 7635  11.534  13.212  10.198 -0.0839  0.3551  0.0813
  498PYPI    C2 7636  11.863  13.132  10.411 -0.1379 -0.0790  0.0127
  498PYPI    C3 7637  11.505  13.017  10.547 -0.2247  0.0743 -0.0832
  498PYPI   PO4 7638  11.623  13.435  10.100  0.1256  0.3588 -0.4341
  498PYPI   GL1 7639  11.643  13.612   9.649  0.1662  0.1079  0.1474
  498PYPI   GL2 7640  11.880  13.541   9.592 -0.0099 -0.2372  0.2788
  498PYPI   C1A 7641  11.562  13.602   9.170  0.2053  0.0013 -0.0962
  498PYPI   C2A 7642  11.549  13.589   8.699  0.1848 -0.0429 -0.1449
  498PYPI   D3A 7643  11.699  13.815   8.334 -0.0602  0.4128 -0.2742
  498PYPI   C4A 7644  12.109  13.800   8.098 -0.1387 -0.2948 -0.1573
  498PYPI   C1B 7645  12.072  13.594   9.189  0.0192  0.0755  0.0444
  498PYPI   C2B 7646  12.001  13.554   8.818  0.2805 -0.0401 -0.0161
  498PYPI   C3B 7647  11.964  13.413   8.421  0.0214  0.1823 -0.3114
  498PYPI   C4B 7648  12.230  13.120   8.019  0.3258 -0.3623 -0.0181
  499PYPI    C1 7649  16.733  10.231  10.735 -0.0507 -0.2934  0.0804
  499PYPI    C2 7650  17.070  10.244  10.949  0.0645 -0.0204 -0.1120
  499PYPI    C3 7651  16.917   9.891  10.839  0.2713 -0.1472  0.0000
  499PYPI   PO4 7652  16.748  10.334  10.464  0.0221 -0.2552 -0.2178
  499PYPI   GL1 7653  17.013  10.447  10.143  0.2756  0.1757 -0.0402
  499PYPI   GL2 7654  16.954  10.226   9.984  0.1730 -0.0051 -0.2313
  499PYPI   C1A 7655  17.036  10.710   9.713 -0.0175  0.0470 -0.3126
  499PYPI   C2A 7656  17.022  10.677   9.246 -0.2598  0.2962  0.0723
  499PYPI   D3A 7657  17.152  10.255   9.148 -0.0943  0.0449  0.1161
  499PYPI   C4A 7658  17.323   9.877   9.444 -0.1597  0.1104  0.1567
  499PYPI   C1B 7659  16.785  10.218   9.634 -0.0034  0.0343  0.0572
  499PYPI   C2B 7660  16.578  10.300   9.387 -0.2691 -0.3352  0.0004
  499PYPI   C3B 7661  16.695  10.408   8.935  0.1260  0.0107 -0.2523
  499PYPI   C4B 7662  16.447  10.639   8.612  0.2794  0.1134  0.0804
  500PYPI    C1 7663  10.170  13.359   9.892 -0.1819  0.0036  0.2182
  500PYPI    C2 7664  10.473  13.135  10.028 -0.2889 -0.2367  0.0673
  500PYPI    C3 7665  10.248  13.345  10.285  0.0732  0.0349  0.1701
  500PYPI   PO4 7666  10.038  13.179   9.760 -0.0655  0.2714 -0.1324
  500PYPI   GL1 7667   9.715  13.168   9.532 -0.3361 -0.6379 -0.1656
  500PYPI   GL2 7668   9.813  13.534   9.578  0.1973  0.0326 -0.1494
  500PYPI   C1A 7669   9.380  13.401   9.295  0.0812  0.1150 -0.2785
  500PYPI   C2A 7670   9.320  13.346   8.870 -0.4075  0.0347  0.1742
  500PYPI   D3A 7671   9.360  13.456   8.529 -0.2274  0.1553 -0.1613
  500PYPI   C4A 7672   9.424  13.104   8.304 -0.0357  0.0895 -0.3232
  500PYPI   C1B 7673   9.804  13.464   9.023 -0.0851  0.0276  0.0008
  500PYPI   C2B 7674   9.845  13.472   8.627 -0.0746 -0.1017 -0.0454
  500PYPI   C3B 7675   9.746  13.548   8.182  0.2633  0.0371 -0.1664
  500PYPI   C4B 7676   9.291  13.449   8.038  0.0945  0.1179  0.2344
  501PYPI    C1 7677   6.026  10.029   9.850  0.0880  0.0165 -0.0130
  501PYPI    C2 7678   6.136  10.247  10.167 -0.0589  0.0004  0.0498
  501PYPI    C3 7679   5.857   9.963  10.207 -0.0896  0.0087 -0.0975
  501PYPI   PO4 7680   6.090  10.205   9.684 -0.0923 -0.1578  0.3008
  501PYPI   GL1 7681   6.143  10.549   9.366  0.0446 -0.5590  0.2624
  501PYPI   GL2 7682   6.008  10.337   9.191 -0.0126 -0.0669 -0.2270
  501PYPI   C1A 7683   6.135  10.822   9.082  0.1614 -0.1069 -0.1430
  501PYPI   C2A 7684   6.150  10.727   8.612  0.1138 -0.0995  0.0298
  501PYPI   D3A 7685   5.974  10.893   8.136  0.0068  0.0077  0.1133
  501PYPI   C4A 7686   6.197  11.146   7.754  0.2631 -0.2525  0.0281
  501PYPI   C1B 7687   5.924  10.189   8.708  0.4076 -0.0576  0.3183
  501PYPI   C2B 7688   5.850  10.415   8.388  0.2119  0.1252  0.0269
  501PYPI   C3B 7689   5.616  10.576   7.992 -0.0809 -0.1987 -0.2067
  501PYPI   C4B 7690   5.694  10.991   7.747 -0.0370  0.2902 -0.0358
  502PYPI    C1 7691  11.396   1.345  10.359 -0.0990 -0.0568 -0.0874
  502PYPI    C2 7692  11.757   1.452  10.493 -0.0099 -0.3694 -0.0704
  502PYPI    C3 7693  11.485   1.303  10.747 -0.2499  0.1151 -0.0330
  502PYPI   PO4 7694  11.480   1.222  10.139  0.0799  0.0425  0.0336
  502PYPI   GL1 7695  11.338   1.255   9.764 -0.3392 -0.0173 -0.1315
  502PYPI   GL2 7696  11.708   1.303   9.698  0.4033 -0.0299 -0.0430
  502PYPI   C1A 7697  11.265   1.227   9.302  0.1214 -0.0887  0.0428
  502PYPI   C2A 7698  11.213   1.264   8.812  0.0375  0.4577  0.1572
  502PYPI   D3A 7699  11.366   0.900   8.544  0.0445  0.2595  0.0368
  502PYPI   C4A 7700  11.202   0.848   8.214  0.3254  0.1283  0.0423
  502PYPI   C1B 7701  11.785   1.227   9.337  0.0974 -0.3474 -0.0382
  502PYPI   C2B 7702  11.723   1.168   8.931  0.0666 -0.3621 -0.0905
  502PYPI   C3B 7703  11.699   1.242   8.508 -0.2624  0.1251  0.2053
  502PYPI   C4B 7704  11.397   1.438   8.252 -0.2924 -0.0850  0.0053
  503PYPI    C1 7705  10.769   9.571  10.158  0.0879  0.0938  0.1403
  503PYPI    C2 7706  10.691   9.895  10.379  0.1169  0.1818  0.0226
  503PYPI    C3 7707  10.483   9.826  10.044  0.0554  0.0352  0.0900
  503PYPI   PO4 7708  11.039   9.580  10.204  0.0962  0.0354  0.2440
  503PYPI   GL1 7709  11.344   9.459   9.881 -0.0256  0.2416  0.0294
  503PYPI   GL2 7710  11.650   9.437   9.906 -0.3153 -0.1348  0.1501
  503PYPI   C1A 7711  11.579   9.756   9.573 -0.0894  0.1502 -0.2001
  503PYPI   C2A 7712  11.725   9.667   9.243 -0.1244  0.1211  0.2675
  503PYPI   D3A 7713  11.886   9.492   8.813  0.1977 -0.2611 -0.1594
  503PYPI   C4A 7714  12.137   9.573   8.382  0.0829 -0.0303 -0.0390
  503PYPI   C1B 7715  11.769   9.225   9.519 -0.1559 -0.0504  0.0361
  503PYPI   C2B 7716  11.839   9.127   9.090 -0.3418  0.0437 -0.0442
  503PYPI   C3B 7717  11.768   8.951   8.723  0.1336 -0.0122 -0.1667
  503PYPI   C4B 7718  12.000   9.073   8.357  0.1346  0.0744  0.1121
  504PYPI    C1 7719  13.592   0.481  10.495  0.0657 -0.0313  0.0924
  504PYPI    C2 7720  13.273   0.722  10.485  0.0177 -0.0950  0.0807
  504PYPI    C3 7721  13.369   0.531  10.823 -0.0179 -0.1575  0.0557
  504PYPI   PO4 7722  13.567   0.352  10.303 -0.2497  0.0460 -0.0648
  504PYPI   GL1 7723  13.667   0.382  10.001 -0.0947  0.0247 -0.3664
  504PYPI   GL2 7724  13.742   0.028   9.947  0.0761 -0.3042  0.0062
  504PYPI   C1A 7725  13.400   0.540   9.703  0.1073  0.0690  0.1273
  504PYPI   C2A 7726  13.149   0.673   9.473 -0.1358  0.1690 -0.4480
  504PYPI   D3A 7727  13.149   0.779   9.041 -0.0900  0.0941  0.1933
  504PYPI   C4A 7728  13.043   0.756   8.624 -0.0426 -0.1903  0.2474
  504PYPI   C1B 7729  13.551   0.092   9.515  0.0827  0.0701  0.1112
  504PYPI   C2B 7730  13.445   0.353   9.224 -0.0006 -0.3325  0.3248
  504PYPI   C3B 7731  13.443   0.453   8.784 -0.0206  0.0206 -0.2554
  504PYPI   C4B 7732  13.599   0.639   8.393  0.0587  0.1102  0.0063
  505PYPI    C1 7733  16.273  15.373  11.166 -0.0177  0.0254 -0.1511
  505PYPI    C2 7734  16.163  15.757  11.150 -0.2610 -0.0300  0.1229
  505PYPI    C3 7735  16.196  15.572  11.504  0.3055 -0.1370  0.0237
  505PYPI   PO4 7736  16.072  15.220  10.925 -0.0347  0.1708  0.0072
  505PYPI   GL1 7737  15.868  14.910  10.772  0.0544 -0.1902 -0.0463
  505PYPI   GL2 7738  16.124  14.922  10.542 -0.2230  0.2416  0.0513
  505PYPI   C1A 7739  15.691  14.647  10.363  0.3387 -0.0439 -0.0980
  505PYPI   C2A 7740  15.771  14.483   9.953 -0.0609  0.0767  0.0093
  505PYPI   D3A 7741  15.730  14.525   9.422 -0.2103 -0.0928  0.0330
  505PYPI   C4A 7742  15.808  14.895   9.162 -0.0721  0.1214  0.0558
  505PYPI   C1B 7743  16.383  15.059  10.212 -0.2932  0.1423 -0.2241
  505PYPI   C2B 7744  16.415  14.989   9.752  0.1371  0.1283 -0.0904
  505PYPI   C3B 7745  16.393  15.008   9.323 -0.0791  0.0893  0.0291
  505PYPI   C4B 7746  16.305  15.196   9.021 -0.0762 -0.1636 -0.5070
  506ERGO   ROH 7747   1.675  13.783   9.951  0.1269  0.1727 -0.1414
  506ERGO    R1 7748   1.530  13.649   9.748 -0.1743  0.1722  0.0667
  506ERGO    R2 7749   1.300  13.753   9.636  0.0251  0.4988 -0.0585
  506ERGO    R3 7750   1.435  13.715   9.403 -0.0601 -0.1250 -0.0241
  506ERGO    R4 7751   1.157  13.760   9.321  0.0658  0.6826 -0.0745
  506ERGO    R5 7752   1.284  13.591   9.265 -0.4486  0.2242  0.0731
  506ERGO    C1 7753   1.200  13.728   8.919  0.0096  0.2040 -0.0514
  506ERGO    C2 7754   1.162  13.826   8.599  0.0515  0.2022 -0.0240
  507ERGO   ROH 7755  15.340  13.714  10.340  0.1807 -0.0237 -0.1389
  507ERGO    R1 7756  15.220  13.610  10.106  0.2457 -0.1305 -0.1271
  507ERGO    R2 7757  15.172  13.765   9.882 -0.0575 -0.1265 -0.0721
  507ERGO    R3 7758  15.313  13.570   9.757  0.1889  0.1090 -0.1697
  507ERGO    R4 7759  15.152  13.693   9.545 -0.0649 -0.0882 -0.0793
  507ERGO    R5 7760  15.160  13.481   9.595  0.2679 -0.0846 -0.1328
  507ERGO    C1 7761  15.272  13.467   9.231  0.1619  0.1552 -0.1751
  507ERGO    C2 7762  15.385  13.375   8.980  0.0590  0.0717  0.0142
  508ERGO   ROH 7763  10.569   0.833   9.904  0.0645 -0.0387 -0.0491
  508ERGO    R1 7764  10.527   0.985   9.669  0.1045  0.1655  0.0738
  508ERGO    R2 7765  10.733   1.099   9.526  0.1633 -0.0335  0.0001
  508ERGO    R3 7766  10.623   0.963   9.318 -0.1757  0.2442 -0.0111
  508ERGO    R4 7767  10.777   1.180   9.193  0.4949 -0.1940 -0.0001
  508ERGO    R5 7768  10.566   1.134   9.160  0.3541  0.4020 -0.0520
  508ERGO    C1 7769  10.699   1.100   8.804  0.3697 -0.0268 -0.0108
  508ERGO    C2 7770  10.825   1.042   8.467  0.0988 -0.0704  0.0557
  509ERGO   ROH 7771   5.866  14.103   9.488 -0.1172 -0.1792 -0.0858
  509ERGO    R1 7772   5.866  14.306   9.290  0.0138 -0.1373 -0.0438
  509ERGO    R2 7773   6.052  14.314   9.086  0.0185 -0.2136 -0.0419
  509ERGO    R3 7774   5.830  14.322   8.929  0.0242 -0.0372 -0.0401
  509ERGO    R4 7775   6.050  14.397   8.750  0.0669 -0.1353 -0.0235
  509ERGO    R5 7776   5.866  14.509   8.784  0.1398 -0.0282  0.0021
  509ERGO    C1 7777   5.841  14.453   8.408  0.1004  0.0759 -0.0110
  509ERGO    C2 7778   5.632  14.452   8.113 -0.0195 -0.3840  0.0680
  510ERGO   ROH 7779   6.876  11.342   9.286 -0.0885 -0.1521  0.0234
  510ERGO    R1 7780   7.029  11.243   9.069 -0.0700 -0.1343  0.0286
  510ERGO    R2 7781   6.914  11.153   8.835 -0.0409  0.0571 -0.0606
  510ERGO    R3 7782   7.082  11.333   8.721  0.1129  0.0138  0.0926
  510ERGO    R4 7783   6.933  11.217   8.496  0.1090  0.2308 -0.0209
  510ERGO    R5 7784   7.150  11.229   8.516  0.1122  0.0813  0.0570
  510ERGO    C1 7785   7.102  11.424   8.191  0.3406  0.2912  0.1460
  510ERGO    C2 7786   7.160  11.695   7.972  0.0649 -0.1480  0.0463
  511ERGO   ROH 7787  13.055  16.498   9.862  0.0667  0.2862 -0.1814
  511ERGO    R1 7788  13.015  16.304   9.660  0.1644  0.1049 -0.0308
  511ERGO    R2 7789  12.876  16.359   9.427 -0.0962 -0.2224  0.0395
  511ERGO    R3 7790  13.103  16.267   9.309 -0.0617  0.0095 -0.0788
  511ERGO    R4 7791  12.906  16.282   9.092 -0.2080 -0.2358  0.0323
  511ERGO    R5 7792  13.025  16.108   9.147  0.0170 -0.0994 -0.0106
  511ERGO    C1 7793  13.137  16.152   8.785 -0.2406 -0.0259 -0.0829
  511ERGO    C2 7794  13.176  16.042   8.503 -0.1695 -0.3553  0.1332
  512ERGO   ROH 7795   3.638   9.817   9.675 -0.1392  0.1827 -0.0438
  512ERGO    R1 7796   3.609   9.774   9.397 -0.0917  0.0989 -0.0358
  512ERGO    R2 7797   3.484   9.550   9.294 -0.0601  0.0602  0.0100
  512ERGO    R3 7798   3.333   9.734   9.163 -0.0515  0.0117 -0.0690
  512ERGO    R4 7799   3.432   9.556   8.952 -0.1711 -0.1641  0.0208
  512ERGO    R5 7800   3.452   9.773   8.958 -0.1077 -0.1639 -0.1368
  512ERGO    C1 7801   3.261   9.733   8.630 -0.2276 -0.3402 -0.0472
  512ERGO    C2 7802   3.266   9.543   8.310  0.1282  0.1530 -0.0919
  513ERGO   ROH 7803   8.011  17.236   9.364 -0.0805 -0.1603  0.0684
  513ERGO    R1 7804   8.153  17.319   9.133 -0.0249 -0.1921  0.0899
  513ERGO    R2 7805   8.068  17.259   8.877  0.0330 -0.2243  0.0739
  513ERGO    R3 7806   8.086  17.528   8.843  0.0434 -0.2287  0.0488
  513ERGO    R4 7807   8.146  17.416   8.579  0.0948 -0.2505  0.0768
  513ERGO    R5 7808   8.269  17.557   8.692  0.0715 -0.2428  0.0846
  513ERGO    C1 7809   8.208  17.760   8.374  0.1406 -0.2702  0.0547
  513ERGO    C2 7810   7.976  17.890   8.167  0.0629  0.1111  0.2073
  514ERGO   ROH 7811  10.956   9.667   9.679  0.0955 -0.1863 -0.0333
  514ERGO    R1 7812  11.125   9.641   9.454  0.0439  0.0077 -0.0967
  514ERGO    R2 7813  11.266   9.410   9.399  0.2083  0.1274 -0.2075
  514ERGO    R3 7814  11.142   9.431   9.158  0.1095  0.1013 -0.1587
  514ERGO    R4 7815  11.390   9.285   9.101  0.0404  0.0289 -0.2367
  514ERGO    R5 7816  11.320   9.465   9.002  0.0446  0.0189 -0.2470
  514ERGO    C1 7817  11.345   9.231   8.702 -0.1501 -0.0528 -0.2079
  514ERGO    C2 7818  11.523   9.184   8.366 -0.0268 -0.2050 -0.0894
  515ERGO   ROH 7819   6.713   3.898   9.993  0.4191 -0.1361 -0.0675
  515ERGO    R1 7820   6.627   3.948   9.728  0.2328  0.1517  0.0418
  515ERGO    R2 7821   6.802   4.025   9.528  0.1371  0.1310 -0.0567
  515ERGO    R3 7822   6.695   3.812   9.398 -0.1921  0.3309 -0.1255
  515ERGO    R4 7823   6.879   3.933   9.204  0.2160 -0.0552  0.0144
  515ERGO    R5 7824   6.668   3.887   9.172  0.1445  0.3689 -0.1544
  515ERGO    C1 7825   6.824   3.679   8.893 -0.0471  0.0241 -0.0088
  515ERGO    C2 7826   6.772   3.584   8.690 -0.2571 -0.1253  0.1378
  516ERGO   ROH 7827   0.968  17.641   9.966  0.2714  0.3493  0.1067
  516ERGO    R1 7828   1.095  17.711   9.723  0.1649  0.1157 -0.0191
  516ERGO    R2 7829   1.188  17.522   9.544 -0.0684 -0.0584  0.0376
  516ERGO    R3 7830   1.032  17.658   9.368 -0.0919 -0.0688  0.0507
  516ERGO    R4 7831   1.193  17.479   9.201 -0.0640 -0.0297  0.0342
  516ERGO    R5 7832   1.174  17.695   9.179 -0.0991 -0.0306  0.0524
  516ERGO    C1 7833   1.050  17.582   8.836 -0.0836 -0.0228  0.0446
  516ERGO    C2 7834   1.025  17.592   8.576  0.1256  0.4733 -0.1480
  517ERGO   ROH 7835  12.162   9.249   9.878  0.0702 -0.0051 -0.0038
  517ERGO    R1 7836  12.276   9.172   9.631  0.0430 -0.1096  0.0168
  517ERGO    R2 7837  12.380   8.919   9.587 -0.1844 -0.2053  0.0353
  517ERGO    R3 7838  12.209   8.921   9.376 -0.1445 -0.0468  0.0018
  517ERGO    R4 7839  12.452   8.790   9.275 -0.2678 -0.3480  0.0736
  517ERGO    R5 7840  12.350   8.961   9.186 -0.0556 -0.2423  0.0211
  517ERGO    C1 7841  12.333   8.716   8.895 -0.2791 -0.2822  0.0645
  517ERGO    C2 7842  12.233   8.740   8.585 -0.1610  0.0515  0.2498
  518ERGO   ROH 7843  12.305   2.416  10.261  0.2691  0.2599  0.0517
  518ERGO    R1 7844  12.357   2.366   9.988  0.2612  0.4192  0.0196
  518ERGO    R2 7845  12.173   2.247   9.820  0.4621 -0.0285  0.0974
  518ERGO    R3 7846  12.215   2.469   9.668 -0.1611  0.1106  0.1017
  518ERGO    R4 7847  12.158   2.255   9.475  0.5823 -0.0960  0.0906
  518ERGO    R5 7848  12.332   2.387   9.476  0.1844  0.4567  0.1560
  518ERGO    C1 7849  12.189   2.467   9.131  0.0671 -0.0048  0.0907
  518ERGO    C2 7850  12.082   2.563   8.822  0.1765  0.0856  0.0746
  519ERGO   ROH 7851  16.273   6.606  10.055  0.1534  0.1810 -0.0335
  519ERGO    R1 7852  16.371   6.502   9.811  0.1297  0.0647  0.0070
  519ERGO    R2 7853  16.205   6.432   9.601  0.1139 -0.0154  0.0527
  519ERGO    R3 7854  16.365   6.600   9.460  0.1171 -0.0939 -0.0397
  519ERGO    R4 7855  16.227   6.440   9.257  0.2162 -0.3152  0.0492
  519ERGO    R5 7856  16.442   6.467   9.276  0.2096 -0.2422  0.0974
  519ERGO    C1 7857  16.390   6.602   8.923  0.2787 -0.5634 -0.0397
  519ERGO    C2 7858  16.255   6.540   8.630 -0.3073  0.2582  0.0101
  520ERGO   ROH 7859  16.014   4.126  10.095 -0.0459  0.2100 -0.1429
  520ERGO    R1 7860  16.067   3.937   9.891  0.0575  0.1592 -0.0703
  520ERGO    R2 7861  15.883   3.874   9.696  0.0837 -0.0309 -0.0375
  520ERGO    R3 7862  16.087   3.939   9.528  0.0372  0.0267 -0.0721
  520ERGO    R4 7863  15.922   3.749   9.376 -0.0236  0.1101 -0.1070
  520ERGO    R5 7864  16.136   3.734   9.414 -0.0143  0.0747 -0.1800
  520ERGO    C1 7865  16.137   3.736   9.032 -0.1296  0.2463 -0.1799
  520ERGO    C2 7866  16.120   3.926   8.689 -0.0700  0.1580 -0.1105
  521ERGO   ROH 7867   7.832  15.759   9.307 -0.2656 -0.1065  0.1001
  521ERGO    R1 7868   7.708  15.746   9.053 -0.1441 -0.1438  0.0414
  521ERGO    R2 7869   7.738  15.944   8.863 -0.2092 -0.0740  0.0976
  521ERGO    R3 7870   7.817  15.736   8.706  0.0210  0.0177  0.0885
  521ERGO    R4 7871   7.713  15.935   8.518 -0.3083 -0.1444  0.1063
  521ERGO    R5 7872   7.652  15.727   8.533 -0.0207 -0.2235  0.1431
  521ERGO    C1 7873   7.772  15.735   8.171 -0.1498 -0.0992  0.1029
  521ERGO    C2 7874   7.804  15.621   7.912 -0.2024  0.2953  0.0565
  522ERGO   ROH 7875  12.718  17.941   9.672  0.2862  0.1512 -0.0697
  522ERGO    R1 7876  12.616  17.925   9.408  0.1643  0.0376 -0.0171
  522ERGO    R2 7877  12.715  18.077   9.200 -0.1045  0.1439 -0.0764
  522ERGO    R3 7878  12.744  17.835   9.080  0.0922  0.1687 -0.0810
  522ERGO    R4 7879  12.766  18.030   8.862 -0.0056  0.1918 -0.0680
  522ERGO    R5 7880  12.630  17.860   8.870  0.1155  0.0944 -0.1014
  522ERGO    C1 7881  12.822  17.776   8.551  0.2366  0.2431 -0.0675
  522ERGO    C2 7882  12.869  17.591   8.291 -0.3674  0.3497  0.0225
  523ERGO   ROH 7883   4.270   5.387   9.634  0.2535  0.1239 -0.0161
  523ERGO    R1 7884   4.234   5.502   9.378  0.0793  0.1364  0.0142
  523ERGO    R2 7885   4.330   5.385   9.148  0.1324  0.2719 -0.0234
  523ERGO    R3 7886   4.072   5.409   9.066  0.0894  0.0423  0.0335
  523ERGO    R4 7887   4.220   5.325   8.826  0.1122  0.0607  0.0207
  523ERGO    R5 7888   4.089   5.499   8.844 -0.0243 -0.0238 -0.0107
  523ERGO    C1 7889   3.913   5.312   8.562  0.0602 -0.2778  0.1000
  523ERGO    C2 7890   3.874   5.408   8.244  0.2228 -0.0953  0.0048
  524ERGO   ROH 7891  12.181  13.141   9.296 -0.0343 -0.0600 -0.0432
  524ERGO    R1 7892  12.301  13.041   9.060  0.0675  0.0098 -0.0220
  524ERGO    R2 7893  12.197  13.090   8.809 -0.0103 -0.1845 -0.0288
  524ERGO    R3 7894  12.449  13.181   8.758 -0.1172  0.0972 -0.0741
  524ERGO    R4 7895  12.344  13.101   8.496  0.1006 -0.5204  0.0081
  524ERGO    R5 7896  12.531  13.035   8.587  0.1669 -0.0925  0.2111
  524ERGO    C1 7897  12.665  13.191   8.266  0.0647 -0.4515 -0.0129
  524ERGO    C2 7898  12.685  13.435   7.913 -0.1089 -0.0507  0.2291
  525ERGO   ROH 7899   2.003   9.888   9.828  0.0369 -0.0547 -0.0045
  525ERGO    R1 7900   1.896   9.824   9.574 -0.0112 -0.0206  0.0088
  525ERGO    R2 7901   1.687   9.965   9.460  0.0817  0.0931  0.0002
  525ERGO    R3 7902   1.860   9.989   9.252  0.0826 -0.0460 -0.0184
  525ERGO    R4 7903   1.594   9.978   9.128  0.0566 -0.0950 -0.0023
  525ERGO    R5 7904   1.765   9.851   9.080  0.0528 -0.1471  0.0662
  525ERGO    C1 7905   1.702  10.009   8.738  0.0429 -0.3350 -0.0212
  525ERGO    C2 7906   1.546  10.293   8.461  0.0587 -0.0083 -0.0509
  526ERGO   ROH 7907   4.619  15.580   9.538  0.0738  0.0606 -0.0228
  526ERGO    R1 7908   4.425  15.589   9.333  0.1045 -0.0286 -0.0570
  526ERGO    R2 7909   4.297  15.823   9.259 -0.0630 -0.1001 -0.0121
  526ERGO    R3 7910   4.387  15.755   9.011  0.0412  0.0392 -0.0135
  526ERGO    R4 7911   4.176  15.954   8.962  0.0049 -0.0086  0.0000
  526ERGO    R5 7912   4.190  15.754   8.875  0.0941  0.0393 -0.0841
  526ERGO    C1 7913   4.190  15.966   8.558  0.1422  0.1754  0.0059
  526ERGO    C2 7914   4.046  16.181   8.270  0.0595  0.1710  0.0099
  527ERGO   ROH 7915  17.791   2.000   9.996  0.1526  0.2088 -0.1422
  527ERGO    R1 7916  17.819   1.821   9.778  0.0268  0.1831 -0.1383
  527ERGO    R2 7917  17.605   1.743   9.620 -0.0348  0.3027 -0.1144
  527ERGO    R3 7918  17.763   1.833   9.418 -0.0013  0.2015 -0.1336
  527ERGO    R4 7919  17.605   1.618   9.298  0.1199  0.0414 -0.0154
  527ERGO    R5 7920  17.822   1.636   9.296  0.1152  0.1229  0.0441
  527ERGO    C1 7921  17.754   1.629   8.921  0.2411 -0.2057  0.0241
  527ERGO    C2 7922  17.808   1.580   8.505 -0.0049 -0.0050  0.2090
  528ERGO   ROH 7923   3.874   2.032   9.537 -0.0395  0.0644 -0.0160
  528ERGO    R1 7924   3.796   2.207   9.329 -0.0506  0.0888  0.0087
  528ERGO    R2 7925   3.949   2.248   9.103 -0.0825  0.0837 -0.0136
  528ERGO    R3 7926   3.720   2.178   8.974 -0.1128  0.1231  0.0189
  528ERGO    R4 7927   3.893   2.289   8.764 -0.1153  0.0762 -0.0091
  528ERGO    R5 7928   3.689   2.351   8.811 -0.0974  0.1206  0.0128
  528ERGO    C1 7929   3.645   2.247   8.446 -0.1628  0.1087  0.0239
  528ERGO    C2 7930   3.730   2.021   8.189  0.0427 -0.0492 -0.0004
  529ERGO   ROH 7931   2.600   7.458   9.660 -0.1466 -0.1306 -0.0426
  529ERGO    R1 7932   2.550   7.615   9.430 -0.0809 -0.0031  0.0298
  529ERGO    R2 7933   2.718   7.820   9.351  0.0283 -0.0646  0.1009
  529ERGO    R3 7934   2.720   7.685   9.116 -0.0738  0.0350  0.0418
  529ERGO    R4 7935   2.805   7.957   9.046  0.0371  0.0287  0.1447
  529ERGO    R5 7936   2.642   7.844   8.955 -0.0303  0.1406  0.1236
  529ERGO    C1 7937   2.857   7.909   8.647 -0.0537  0.1764  0.1147
  529ERGO    C2 7938   2.832   7.990   8.385 -0.1273 -0.2512 -0.1677
  530ERGO   ROH 7939   6.592  17.568   9.398 -0.0249 -0.0900 -0.0320
  530ERGO    R1 7940   6.724  17.591   9.148  0.0318 -0.0111  0.0047
  530ERGO    R2 7941   6.609  17.508   8.911  0.1220 -0.0219 -0.0365
  530ERGO    R3 7942   6.665  17.762   8.833  0.0519  0.0087  0.0120
  530ERGO    R4 7943   6.606  17.619   8.584 -0.0289  0.0727 -0.0038
  530ERGO    R5 7944   6.785  17.736   8.627 -0.0292  0.0863 -0.0449
  530ERGO    C1 7945   6.657  17.922   8.320 -0.1826  0.1567  0.0608
  530ERGO    C2 7946   6.503  17.979   7.949 -0.0808 -0.0808  0.1946
  531ERGO   ROH 7947   2.405  16.541  10.004 -0.1673 -0.1388  0.0760
  531ERGO    R1 7948   2.317  16.474   9.743 -0.0937 -0.3154  0.0965
  531ERGO    R2 7949   2.122  16.284   9.697 -0.3851 -0.0436  0.2085
  531ERGO    R3 7950   2.003  16.486   9.560  0.0492 -0.0058 -0.1430
  531ERGO    R4 7951   1.949  16.244   9.400 -0.6037 -0.2415  0.3574
  531ERGO    R5 7952   2.039  16.430   9.329 -0.1651 -0.5769 -0.0642
  531ERGO    C1 7953   1.736  16.411   9.099 -0.3234 -0.3209  0.1142
  531ERGO    C2 7954   1.534  16.330   8.770  0.1025 -0.1071  0.0658
  532ERGO   ROH 7955   9.388  12.675   9.411 -0.0937  0.1699  0.1145
  532ERGO    R1 7956   9.451  12.884   9.230 -0.1439  0.0766 -0.0116
  532ERGO    R2 7957   9.706  12.922   9.130 -0.1538  0.0817 -0.0266
  532ERGO    R3 7958   9.578  12.909   8.890 -0.1417 -0.0955 -0.0259
  532ERGO    R4 7959   9.863  12.913   8.822 -0.1332  0.0814 -0.0163
  532ERGO    R5 7960   9.710  13.047   8.745 -0.2306 -0.0510 -0.0703
  532ERGO    C1 7961   9.834  12.896   8.418 -0.1098 -0.0850 -0.0096
  532ERGO    C2 7962   9.922  12.699   8.173 -0.2006  0.0340  0.1656
  533ERGO   ROH 7963  18.061   4.915   9.933  0.1216  0.2183 -0.0590
  533ERGO    R1 7964  17.954   5.109   9.757 -0.1639  0.0449 -0.0840
  533ERGO    R2 7965  18.098   5.215   9.547 -0.2178  0.4172  0.0579
  533ERGO    R3 7966  17.883   5.134   9.401  0.0594 -0.0096 -0.1337
  533ERGO    R4 7967  18.032   5.313   9.222 -0.2632  0.5171  0.0969
  533ERGO    R5 7968  17.821   5.328   9.275 -0.3484 -0.0510 -0.0119
  533ERGO    C1 7969  17.792   5.294   8.896 -0.0292  0.1746 -0.0601
  533ERGO    C2 7970  17.745   5.387   8.541 -0.1009  0.0319 -0.0106
  534ERGO   ROH 7971  14.272  17.228  10.185  0.0582 -0.0377 -0.0277
  534ERGO    R1 7972  14.136  17.326   9.957 -0.0128 -0.0475  0.0094
  534ERGO    R2 7973  14.247  17.512   9.785 -0.1042  0.0224  0.0199
  534ERGO    R3 7974  14.189  17.325   9.597 -0.0671  0.0299  0.0019
  534ERGO    R4 7975  14.200  17.578   9.449 -0.2069  0.0533  0.0406
  534ERGO    R5 7976  14.036  17.435   9.449 -0.1446 -0.0136  0.0532
  534ERGO    C1 7977  14.118  17.442   9.077 -0.2320  0.0784  0.0358
  534ERGO    C2 7978  14.139  17.627   8.764  0.0721 -0.1876  0.1109
  535ERGO   ROH 7979   9.870  16.313   9.717  0.2677  0.0632  0.0782
  535ERGO    R1 7980   9.918  16.511   9.521 -0.1231  0.1185  0.0312
  535ERGO    R2 7981  10.069  16.463   9.294  0.1751  0.4193  0.1625
  535ERGO    R3 7982   9.848  16.555   9.166  0.0046 -0.2220 -0.0410
  535ERGO    R4 7983  10.056  16.553   8.961  0.2516  0.4523  0.1675
  535ERGO    R5 7984   9.930  16.722   9.016 -0.3341  0.0762  0.0855
  535ERGO    C1 7985   9.840  16.691   8.647  0.1362 -0.1305 -0.0208
  535ERGO    C2 7986   9.730  16.836   8.383 -0.1047  0.0006 -0.3153
  536ERGO   ROH 7987   5.512  11.066   9.593 -0.2469  0.0297  0.0332
  536ERGO    R1 7988   5.366  11.149   9.365 -0.1796  0.1002  0.0169
  536ERGO    R2 7989   5.366  11.410   9.275 -0.1746  0.1294  0.1160
  536ERGO    R3 7990   5.444  11.296   9.041 -0.0906  0.2279  0.0936
  536ERGO    R4 7991   5.248  11.499   8.963 -0.1461  0.1980  0.1236
  536ERGO    R5 7992   5.244  11.288   8.909 -0.0685  0.2081  0.0536
  536ERGO    C1 7993   5.251  11.444   8.561 -0.0506  0.3305  0.1071
  536ERGO    C2 7994   5.176  11.462   8.165 -0.0313 -0.3645 -0.3152
  537ERGO   ROH 7995  11.438  13.018   9.740 -0.3112  0.0284 -0.0700
  537ERGO    R1 7996  11.456  13.123   9.478  0.0045  0.0730 -0.0338
  537ERGO    R2 7997  11.698  13.155   9.347  0.1316 -0.3550  0.0784
  537ERGO    R3 7998  11.576  13.008   9.154 -0.0790 -0.0684 -0.0145
  537ERGO    R4 7999  11.786  13.155   9.013  0.0710 -0.2107  0.0615
  537ERGO    R5 8000  11.574  13.150   8.962  0.0549  0.0785  0.0920
  537ERGO    C1 8001  11.722  13.016   8.637 -0.1619  0.1424 -0.0356
  537ERGO    C2 8002  11.861  12.940   8.290 -0.3239 -0.1313 -0.1538
  538ERGO   ROH 8003  16.998   5.698   9.851  0.3533 -0.1918 -0.0259
  538ERGO    R1 8004  16.948   5.794   9.589  0.4765 -0.0132  0.0151
  538ERGO    R2 8005  17.127   5.758   9.381  0.3409 -0.3472 -0.0472
  538ERGO    R3 8006  16.911   5.650   9.257  0.0577  0.1485 -0.0140
  538ERGO    R4 8007  17.090   5.729   9.039  0.2886 -0.3867 -0.0388
  538ERGO    R5 8008  16.880   5.785   9.062  0.4143  0.1610 -0.0689
  538ERGO    C1 8009  16.866   5.611   8.723 -0.0077  0.0558 -0.0028
  538ERGO    C2 8010  16.851   5.504   8.328  0.2492  0.0908 -0.1522
  539ERGO   ROH 8011   5.242   0.036   9.297  0.0173 -0.2455  0.1114
  539ERGO    R1 8012   5.254  -0.135   9.072 -0.0403 -0.1923  0.0682
  539ERGO    R2 8013   5.030  -0.208   8.927 -0.0568 -0.0426  0.0227
  539ERGO    R3 8014   5.174  -0.113   8.717  0.0146 -0.0609  0.0631
  539ERGO    R4 8015   4.961  -0.273   8.595  0.1046 -0.1456  0.0079
  539ERGO    R5 8016   5.175  -0.293   8.560  0.1279 -0.1033  0.1089
  539ERGO    C1 8017   5.056  -0.222   8.204  0.2657 -0.2230  0.0370
  539ERGO    C2 8018   5.140  -0.236   7.927 -0.2702  0.2331 -0.1268
  540ERGO   ROH 8019  16.543  17.640  10.080  0.0281  0.0364 -0.1236
  540ERGO    R1 8020  16.509  17.628   9.799 -0.1835 -0.0103 -0.0960
  540ERGO    R2 8021  16.642  17.444   9.641 -0.1311  0.1166 -0.1846
  540ERGO    R3 8022  16.391  17.383   9.558 -0.1380 -0.1377  0.0048
  540ERGO    R4 8023  16.565  17.306   9.334 -0.2243  0.3280 -0.2588
  540ERGO    R5 8024  16.391  17.438   9.324 -0.4286  0.1142  0.0488
  540ERGO    C1 8025  16.284  17.169   9.076 -0.2853  0.2122 -0.1242
  540ERGO    C2 8026  16.307  16.859   8.940  0.0643  0.1131 -0.1716
  541ERGO   ROH 8027   4.605  13.510   9.396 -0.0919  0.0407 -0.0075
  541ERGO    R1 8028   4.561  13.474   9.118  0.0082 -0.1412 -0.0028
  541ERGO    R2 8029   4.509  13.686   8.947 -0.2832 -0.2809 -0.1031
  541ERGO    R3 8030   4.720  13.583   8.809 -0.0976 -0.0246 -0.0149
  541ERGO    R4 8031   4.537  13.681   8.603 -0.1711 -0.3428 -0.0926
  541ERGO    R5 8032   4.621  13.481   8.617  0.1062 -0.2185 -0.0144
  541ERGO    C1 8033   4.751  13.582   8.273  0.0684 -0.1382 -0.0039
  541ERGO    C2 8034   4.897  13.628   7.985 -0.0622  0.1753 -0.0653
  542ERGO   ROH 8035  12.975  14.328  10.077 -0.2504  0.0542 -0.0971
  542ERGO    R1 8036  13.108  14.346   9.828 -0.1338  0.0163 -0.0381
  542ERGO    R2 8037  12.983  14.438   9.599 -0.0434 -0.0729 -0.1225
  542ERGO    R3 8038  13.194  14.609   9.592 -0.0777 -0.0282 -0.0681
  542ERGO    R4 8039  13.146  14.540   9.312 -0.0285  0.0047 -0.0867
  542ERGO    R5 8040  13.335  14.524   9.419 -0.0379  0.0268 -0.0641
  542ERGO    C1 8041  13.439  14.761   9.139 -0.0519  0.0919 -0.0147
  542ERGO    C2 8042  13.606  14.799   8.890  0.0035  0.1414  0.0381
  543ERGO   ROH 8043   6.352  15.703   9.477  0.0300  0.0477  0.0602
  543ERGO    R1 8044   6.369  15.806   9.214  0.1806  0.0264  0.0613
  543ERGO    R2 8045   6.610  15.859   9.090  0.2553 -0.2254  0.1023
  543ERGO    R3 8046   6.509  15.697   8.896  0.1224 -0.1231  0.0843
  543ERGO    R4 8047   6.723  15.848   8.764  0.1527 -0.1643  0.0641
  543ERGO    R5 8048   6.516  15.831   8.698  0.1176 -0.0558  0.1240
  543ERGO    C1 8049   6.695  15.690   8.392 -0.0318 -0.0327  0.0249
  543ERGO    C2 8050   6.871  15.806   8.107 -0.0094  0.2202 -0.1196
  544ERGO   ROH 8051   4.096  17.252   9.292  0.0096 -0.0152 -0.0437
  544ERGO    R1 8052   3.947  17.077   9.127  0.0225 -0.0332 -0.0384
  544ERGO    R2 8053   3.859  17.148   8.875  0.0332 -0.0561 -0.0550
  544ERGO    R3 8054   3.989  16.920   8.801  0.0476 -0.0568 -0.0224
  544ERGO    R4 8055   3.796  16.970   8.586 -0.1748 -0.2844  0.1287
  544ERGO    R5 8056   3.818  16.786   8.700  0.0049 -0.1938  0.2336
  544ERGO    C1 8057   3.880  16.652   8.348 -0.2824 -0.4177  0.2663
  544ERGO    C2 8058   3.942  16.659   7.988  0.0534 -0.1990  0.1516
  545ERGO   ROH 8059  16.367   4.866   9.978  0.1009 -0.1841  0.0493
  545ERGO    R1 8060  16.406   4.958   9.713 -0.0148 -0.0505  0.0779
  545ERGO    R2 8061  16.511   4.798   9.513  0.0968  0.1148  0.0033
  545ERGO    R3 8062  16.284   4.869   9.381  0.0164 -0.0315  0.0608
  545ERGO    R4 8063  16.473   4.796   9.170  0.0443  0.1801  0.0084
  545ERGO    R5 8064  16.362   4.983   9.186 -0.1057  0.0875  0.0791
  545ERGO    C1 8065  16.238   4.861   8.846 -0.0617  0.0807  0.0653
  545ERGO    C2 8066  16.111   4.778   8.615  0.0683 -0.1113 -0.1038
  546ERGO   ROH 8067   8.501  13.972   9.263  0.0280 -0.0161 -0.0172
  546ERGO    R1 8068   8.473  14.109   9.017  0.0907  0.0090 -0.0096
  546ERGO    R2 8069   8.616  14.338   8.956  0.1379 -0.0149  0.0226
  546ERGO    R3 8070   8.688  14.195   8.736  0.1411 -0.0037  0.0280
  546ERGO    R4 8071   8.740  14.474   8.664  0.0188  0.0011 -0.0209
  546ERGO    R5 8072   8.620  14.332   8.552  0.0525 -0.0526  0.0289
  546ERGO    C1 8073   8.880  14.420   8.288 -0.0474  0.0211 -0.0413
  546ERGO    C2 8074   8.937  14.364   7.909 -0.1298  0.1781 -0.0410
  547ERGO   ROH 8075   9.556   0.658   9.896  0.0478  0.1419 -0.2576
  547ERGO    R1 8076   9.431   0.809   9.691 -0.1450  0.0579 -0.2071
  547ERGO    R2 8077   9.510   1.066   9.626 -0.3892  0.1517 -0.2024
  547ERGO    R3 8078   9.531   0.960   9.376 -0.3570  0.1842 -0.2108
  547ERGO    R4 8079   9.470   1.243   9.332 -0.2214  0.1914 -0.2003
  547ERGO    R5 8080   9.362   1.073   9.249 -0.2590  0.2604 -0.2540
  547ERGO    C1 8081   9.466   1.247   8.926 -0.0935  0.2450 -0.2069
  547ERGO    C2 8082   9.620   1.243   8.594  0.0138 -0.2037 -0.0230
  548ERGO   ROH 8083   4.902   0.348   9.235 -0.1119  0.0004  0.0077
  548ERGO    R1 8084   4.979   0.239   8.985  0.0998  0.2325 -0.0306
  548ERGO    R2 8085   4.795   0.153   8.797  0.2611 -0.2065  0.0131
  548ERGO    R3 8086   4.930   0.323   8.634 -0.2107  0.1701 -0.0072
  548ERGO    R4 8087   4.816   0.122   8.454  0.5019 -0.3270  0.0354
  548ERGO    R5 8088   5.025   0.182   8.466  0.3321  0.3701  0.1036
  548ERGO    C1 8089   4.954   0.264   8.100  0.1992 -0.0435  0.0294
  548ERGO    C2 8090   4.883   0.074   7.734 -0.0047  0.0038  0.0611
  549ERGO   ROH 8091   8.496   7.679   9.791  0.0707 -0.0639  0.0186
  549ERGO    R1 8092   8.527   7.624   9.516  0.2029 -0.0927  0.0373
  549ERGO    R2 8093   8.326   7.665   9.331  0.1575 -0.4568 -0.0149
  549ERGO    R3 8094   8.516   7.813   9.205 -0.0450 -0.1887 -0.0121
  549ERGO    R4 8095   8.353   7.700   8.989  0.2289 -0.5617 -0.0190
  549ERGO    R5 8096   8.570   7.686   9.009  0.2460 -0.1834  0.0664
  549ERGO    C1 8097   8.547   7.859   8.670  0.0804 -0.3711 -0.0187
  549ERGO    C2 8098   8.477   7.880   8.318  0.3501 -0.2161 -0.0522
  550ERGO   ROH 8099  15.638   4.313  10.069 -0.2184  0.0376  0.0334
  550ERGO    R1 8100  15.591   4.378   9.798 -0.1411  0.0360  0.0185
  550ERGO    R2 8101  15.757   4.292   9.593 -0.0665  0.0541  0.0641
  550ERGO    R3 8102  15.524   4.195   9.490 -0.0258  0.0302 -0.0017
  550ERGO    R4 8103  15.731   4.111   9.300  0.0353 -0.0070  0.0934
  550ERGO    R5 8104  15.549   4.221   9.254  0.0556 -0.0217  0.0048
  550ERGO    C1 8105  15.498   3.915   9.033  0.1329 -0.0649  0.0486
  550ERGO    C2 8106  15.541   3.617   8.990  0.0273  0.0307 -0.2097
  551ERGO   ROH 8107  15.407  11.500  10.048  0.1928  0.3089 -0.0271
  551ERGO    R1 8108  15.530  11.569   9.803  0.1036  0.1991 -0.1042
  551ERGO    R2 8109  15.428  11.493   9.558 -0.0520  0.1906 -0.0371
  551ERGO    R3 8110  15.441  11.760   9.506  0.0428  0.1738 -0.1025
  551ERGO    R4 8111  15.402  11.635   9.244  0.1469  0.1117 -0.0906
  551ERGO    R5 8112  15.561  11.774   9.299  0.1550  0.0865 -0.0460
  551ERGO    C1 8113  15.400  11.968   9.012  0.3518  0.0500 -0.1831
  551ERGO    C2 8114  15.443  12.161   8.727 -0.3405 -0.0582 -0.1223
  552ERGO   ROH 8115  17.237  12.517  10.203 -0.0339 -0.1500  0.1832
  552ERGO    R1 8116  17.388  12.470   9.968 -0.0353 -0.0997  0.1730
  552ERGO    R2 8117  17.307  12.291   9.774 -0.0268 -0.0687  0.1463
  552ERGO    R3 8118  17.336  12.506   9.609 -0.0411 -0.0411  0.1784
  552ERGO    R4 8119  17.412  12.275   9.445  0.0913 -0.0079  0.1797
  552ERGO    R5 8120  17.531  12.455   9.479  0.0236  0.0312  0.2398
  552ERGO    C1 8121  17.500  12.467   9.099  0.1465  0.0536  0.2294
  552ERGO    C2 8122  17.608  12.457   8.789 -0.0590 -0.2523  0.1725
  553ERGO   ROH 8123   2.954   6.934   9.685  0.0197 -0.0886  0.0680
  553ERGO    R1 8124   3.044   6.743   9.496  0.2109 -0.0137  0.0809
  553ERGO    R2 8125   2.899   6.680   9.270  0.1577 -0.3361  0.2012
  553ERGO    R3 8126   3.132   6.742   9.143 -0.0225  0.0060  0.0206
  553ERGO    R4 8127   2.995   6.556   8.962  0.2743 -0.5151  0.3067
  553ERGO    R5 8128   3.198   6.537   9.038  0.3620  0.0071  0.2426
  553ERGO    C1 8129   3.269   6.542   8.663  0.1731 -0.2982  0.1985
  553ERGO    C2 8130   3.395   6.629   8.333  0.1377  0.1110 -0.1394
  554ERGO   ROH 8131  17.986   3.929   9.908  0.1353  0.0828 -0.0398
  554ERGO    R1 8132  17.951   4.087   9.675  0.1646  0.1317 -0.0109
  554ERGO    R2 8133  18.161   4.158   9.510  0.1402 -0.1305 -0.1592
  554ERGO    R3 8134  18.005   4.046   9.317 -0.1431  0.0652 -0.0539
  554ERGO    R4 8135  18.090   4.304   9.205  0.0871 -0.0237 -0.0971
  554ERGO    R5 8136  17.885   4.231   9.224  0.0064  0.2205  0.0504
  554ERGO    C1 8137  17.903   4.284   8.846 -0.2098  0.2223  0.0380
  554ERGO    C2 8138  17.759   4.235   8.477 -0.1934 -0.1155 -0.1486
  555ERGO   ROH 8139   5.634  11.990   9.413 -0.2015  0.1104 -0.1101
  555ERGO    R1 8140   5.752  11.884   9.179  0.0525  0.2770 -0.0606
  555ERGO    R2 8141   5.607  11.750   8.986  0.3451 -0.0665 -0.0517
  555ERGO    R3 8142   5.719  11.934   8.820  0.0160  0.1159 -0.0808
  555ERGO    R4 8143   5.632  11.716   8.643  0.5023 -0.1349 -0.0345
  555ERGO    R5 8144   5.832  11.803   8.654  0.3327  0.2835 -0.0074
  555ERGO    C1 8145   5.752  11.869   8.287  0.2850 -0.0036 -0.0517
  555ERGO    C2 8146   5.488  11.825   8.047 -0.0400 -0.1107  0.0622
  556ERGO   ROH 8147  14.921   0.472   9.936  0.0183 -0.0014  0.0028
  556ERGO    R1 8148  14.920   0.634   9.704  0.2090  0.0010  0.0024
  556ERGO    R2 8149  15.082   0.582   9.486  0.1447 -0.1966 -0.0006
  556ERGO    R3 8150  14.847   0.588   9.350  0.1455  0.0874  0.0040
  556ERGO    R4 8151  15.052   0.634   9.146  0.2006 -0.1818 -0.0035
  556ERGO    R5 8152  14.878   0.759   9.185  0.3548  0.0398 -0.0084
  556ERGO    C1 8153  14.814   0.669   8.820  0.2339  0.0933 -0.0008
  556ERGO    C2 8154  14.691   0.618   8.572  0.0085  0.3542  0.1389
  557ERGO   ROH 8155   7.570  16.616   9.740  0.2604 -0.2849  0.0267
  557ERGO    R1 8156   7.563  16.730   9.481  0.0222 -0.3492  0.0023
  557ERGO    R2 8157   7.780  16.861   9.370 -0.1890 -0.0657 -0.0926
  557ERGO    R3 8158   7.741  16.684   9.167 -0.0036 -0.1692 -0.0391
  557ERGO    R4 8159   7.831  16.929   9.035 -0.1371 -0.1610 -0.1043
  557ERGO    R5 8160   7.651  16.816   8.989 -0.0419 -0.3032 -0.1172
  557ERGO    C1 8161   7.826  16.803   8.650  0.0671 -0.3139 -0.0609
  557ERGO    C2 8162   7.851  16.833   8.361 -0.3060 -0.1659 -0.4126
  558ERGO   ROH 8163  13.165  17.783   9.690  0.0360  0.1544  0.0893
  558ERGO    R1 8164  13.293  17.819   9.440  0.1064  0.1355  0.1219
  558ERGO    R2 8165  13.182  17.734   9.202  0.3063 -0.1548  0.1227
  558ERGO    R3 8166  13.222  17.992   9.129  0.0386 -0.1530 -0.0256
  558ERGO    R4 8167  13.173  17.850   8.877 -0.0326 -0.3001  0.0766
  558ERGO    R5 8168  13.344  17.977   8.923 -0.1036 -0.1390 -0.1091
  558ERGO    C1 8169  13.205  18.160   8.618 -0.4810 -0.3831 -0.0894
  558ERGO    C2 8170  13.204  18.038   8.250  0.1906 -0.1373 -0.2968
  559ERGO   ROH 8171   6.508  12.169   8.890 -0.1948 -0.2077  0.0391
  559ERGO    R1 8172   6.605  12.035   8.660 -0.3136 -0.0452 -0.1097
  559ERGO    R2 8173   6.539  12.113   8.403 -0.1989  0.3349 -0.0343
  559ERGO    R3 8174   6.809  12.120   8.371 -0.1843  0.0798  0.0176
  559ERGO    R4 8175   6.701  12.198   8.110 -0.0538  0.0617 -0.0365
  559ERGO    R5 8176   6.844  12.039   8.148 -0.2053 -0.0485  0.0631
  559ERGO    C1 8177   7.048  12.254   7.909  0.0443 -0.3370  0.0109
  559ERGO    C2 8178   7.167  12.474   7.589  0.2193 -0.1829  0.1910
  560ERGO   ROH 8179  10.810   6.169   9.697 -0.1387  0.2193 -0.0185
  560ERGO    R1 8180  10.783   6.216   9.419 -0.0728  0.3609 -0.0018
  560ERGO    R2 8181  10.916   6.421   9.290  0.2045  0.2379  0.0768
  560ERGO    R3 8182  11.002   6.220   9.129 -0.0607  0.1778  0.0050
  560ERGO    R4 8183  11.008   6.458   8.958  0.2807  0.2355  0.0975
  560ERGO    R5 8184  10.907   6.269   8.915  0.0234  0.3894  0.0168
  560ERGO    C1 8185  11.142   6.290   8.615  0.0763  0.1777  0.0420
  560ERGO    C2 8186  11.333   6.287   8.380  0.4826  0.2541  0.1414
  561ERGO   ROH 8187   9.399  13.858   9.445 -0.2046 -0.0003 -0.1153
  561ERGO    R1 8188   9.568  13.842   9.218 -0.1233  0.0188 -0.0565
  561ERGO    R2 8189   9.471  13.799   8.962 -0.0241 -0.0550 -0.0828
  561ERGO    R3 8190   9.611  14.025   8.907 -0.0808 -0.0172 -0.0719
  561ERGO    R4 8191   9.602  13.880   8.653  0.0892 -0.0796 -0.0417
  561ERGO    R5 8192   9.780  13.955   8.753  0.0158  0.0087  0.0223
  561ERGO    C1 8193   9.810  14.139   8.421  0.1020 -0.0583 -0.0077
  561ERGO    C2 8194   9.836  14.072   8.132 -0.1999 -0.0894  0.0302
  562ERGO   ROH 8195  15.997   8.559   9.216 -0.1438 -0.3488 -0.1356
  562ERGO    R1 8196  16.167   8.729   9.067 -0.1852 -0.1486  0.0389
  562ERGO    R2 8197  16.367   8.633   8.903  0.0710  0.0805  0.1983
  562ERGO    R3 8198  16.242   8.784   8.715  0.0690 -0.0278  0.1124
  562ERGO    R4 8199  16.487   8.690   8.583  0.1737  0.1048  0.2410
  562ERGO    R5 8200  16.420   8.897   8.601  0.0441  0.0604  0.1731
  562ERGO    C1 8201  16.439   8.865   8.221  0.2317  0.0170  0.1853
  562ERGO    C2 8202  16.457   8.748   7.866  0.1768 -0.0090 -0.0431
  563ERGO   ROH 8203   8.210  15.833   9.104 -0.0937  0.0935 -0.1929
  563ERGO    R1 8204   8.315  15.899   8.850 -0.1303 -0.0762 -0.2550
  563ERGO    R2 8205   8.282  15.738   8.628 -0.3587 -0.1185 -0.1996
  563ERGO    R3 8206   8.183  15.965   8.517 -0.2031 -0.0609 -0.2212
  563ERGO    R4 8207   8.232  15.787   8.290 -0.3027 -0.0956 -0.2039
  563ERGO    R5 8208   8.306  15.991   8.313 -0.1754 -0.1467 -0.2105
  563ERGO    C1 8209   8.109  16.029   7.989 -0.1239 -0.0283 -0.2267
  563ERGO    C2 8210   7.816  16.106   7.751 -0.2967  0.1865  0.0221
  564ERGO   ROH 8211   5.913   4.575   9.983  0.0781  0.2105  0.0696
  564ERGO    R1 8212   6.025   4.681   9.745  0.0959  0.1142  0.0352
  564ERGO    R2 8213   6.093   4.523   9.530  0.1262  0.0255  0.1122
  564ERGO    R3 8214   5.933   4.695   9.393  0.1319 -0.0417  0.0182
  564ERGO    R4 8215   6.102   4.571   9.188  0.1868 -0.1006  0.0948
  564ERGO    R5 8216   6.075   4.785   9.222  0.1561 -0.0888  0.0116
  564ERGO    C1 8217   5.957   4.761   8.860  0.2274 -0.2373 -0.0034
  564ERGO    C2 8218   5.814   4.885   8.512 -0.0411  0.0137 -0.3807
  565ERGO   ROH 8219   6.157  12.142   9.250 -0.1198  0.0321  0.2252
  565ERGO    R1 8220   6.033  12.179   8.998 -0.0410 -0.0235  0.1782
  565ERGO    R2 8221   6.127  12.361   8.812 -0.0671  0.0368  0.2267
  565ERGO    R3 8222   6.129  12.143   8.649  0.1168  0.0466  0.2123
  565ERGO    R4 8223   6.148  12.373   8.467 -0.1962  0.0882  0.2200
  565ERGO    R5 8224   6.001  12.211   8.458 -0.0261 -0.0759  0.2593
  565ERGO    C1 8225   6.161  12.176   8.113 -0.0988  0.1273  0.2024
  565ERGO    C2 8226   6.264  12.012   7.899  0.0242 -0.0112  0.2185
  566ERGO   ROH 8227   8.761   9.884   9.546  0.0942  0.1512 -0.0458
  566ERGO    R1 8228   8.652   9.965   9.298  0.0329  0.0466 -0.0535
  566ERGO    R2 8229   8.697  10.216   9.190 -0.1771  0.0809 -0.0635
  566ERGO    R3 8230   8.781  10.073   8.975 -0.0470  0.1421 -0.0546
  566ERGO    R4 8231   8.714  10.336   8.866  0.0688  0.1921 -0.0117
  566ERGO    R5 8232   8.638  10.144   8.796  0.0879  0.2262 -0.1310
  566ERGO    C1 8233   8.802  10.272   8.476  0.3340  0.3143  0.0269
  566ERGO    C2 8234   9.014  10.178   8.183 -0.0686  0.1084  0.3172
  567ERGO   ROH 8235  15.071   6.031  10.241  0.1479 -0.1872 -0.1021
  567ERGO    R1 8236  15.058   6.160   9.990  0.1007 -0.1168 -0.0635
  567ERGO    R2 8237  15.245   6.116   9.790  0.0897 -0.0248 -0.0926
  567ERGO    R3 8238  15.024   6.060   9.642  0.0872 -0.0220 -0.0903
  567ERGO    R4 8239  15.231   6.124   9.445  0.1094 -0.0974 -0.0955
  567ERGO    R5 8240  15.033   6.215   9.459  0.1218 -0.0618 -0.1240
  567ERGO    C1 8241  15.016   6.076   9.104  0.1185 -0.1371 -0.0949
  567ERGO    C2 8242  14.976   5.881   8.754 -0.1527  0.3015  0.0122
  568ERGO   ROH 8243   4.649  12.588   9.407  0.1619  0.0139  0.2121
  568ERGO    R1 8244   4.878  12.614   9.243  0.1059  0.1817  0.1571
  568ERGO    R2 8245   4.945  12.428   9.049  0.3208  0.1043  0.2967
  568ERGO    R3 8246   4.947  12.646   8.887  0.0050 -0.0202  0.1192
  568ERGO    R4 8247   5.164  12.476   8.786  0.2495  0.2129  0.2573
  568ERGO    R5 8248   5.179  12.686   8.844 -0.0522  0.2831  0.0863
  568ERGO    C1 8249   5.293  12.709   8.480 -0.0885  0.1593  0.0676
  568ERGO    C2 8250   5.324  12.690   8.152 -0.0633  0.2334 -0.1132
  569ERGO   ROH 8251   3.770  12.767   9.461  0.2035  0.2143 -0.0345
  569ERGO    R1 8252   3.719  12.794   9.184  0.2828 -0.1231 -0.0876
  569ERGO    R2 8253   3.621  13.027   9.072 -0.2360 -0.4269 -0.3234
  569ERGO    R3 8254   3.839  13.003   8.912 -0.0755 -0.0254 -0.1734
  569ERGO    R4 8255   3.636  13.129   8.742 -0.1965 -0.4306 -0.3212
  569ERGO    R5 8256   3.750  12.949   8.697  0.1802 -0.2180 -0.2294
  569ERGO    C1 8257   3.850  13.166   8.400 -0.0228 -0.0559 -0.1790
  569ERGO    C2 8258   4.035  13.343   8.195 -0.2913 -0.1510  0.0574
  570ERGO   ROH 8259  15.116   7.028  10.202 -0.0582  0.3112  0.0292
  570ERGO    R1 8260  15.053   7.012   9.926 -0.0184  0.2441  0.0233
  570ERGO    R2 8261  15.079   7.227   9.754  0.0081  0.2041 -0.0280
  570ERGO    R3 8262  15.231   7.053   9.612  0.0290  0.1666  0.0409
  570ERGO    R4 8263  15.096   7.216   9.409  0.0751  0.1158 -0.0216
  570ERGO    R5 8264  15.097   6.999   9.421  0.0675  0.1227  0.0300
  570ERGO    C1 8265  15.249   7.045   9.075  0.1337  0.0291  0.0468
  570ERGO    C2 8266  15.411   6.899   8.819 -0.2025 -0.1243 -0.2169
  571ERGO   ROH 8267  13.517   4.020   9.787  0.1555  0.0764 -0.2158
  571ERGO    R1 8268  13.349   4.084   9.569  0.1572 -0.1547 -0.2876
  571ERGO    R2 8269  13.301   4.345   9.488 -0.3134 -0.1993 -0.1892
  571ERGO    R3 8270  13.385   4.251   9.247  0.0285  0.0754 -0.1853
  571ERGO    R4 8271  13.223   4.486   9.183 -0.3609 -0.1816 -0.1685
  571ERGO    R5 8272  13.198   4.285   9.102  0.0608 -0.1908 -0.2944
  571ERGO    C1 8273  13.255   4.480   8.779 -0.0675  0.0866 -0.1529
  571ERGO    C2 8274  13.126   4.668   8.522  0.0327  0.2961  0.3085
  572ERGO   ROH 8275  10.987   1.611   9.676  0.0029  0.0855  0.0588
  572ERGO    R1 8276  10.845   1.596   9.431  0.0288  0.0671  0.0451
  572ERGO    R2 8277  10.880   1.780   9.228  0.0817  0.0274  0.0186
  572ERGO    R3 8278  10.929   1.559   9.079  0.0632 -0.0056  0.0608
  572ERGO    R4 8279  10.913   1.777   8.884  0.0184 -0.0524  0.0126
  572ERGO    R5 8280  10.800   1.591   8.880  0.0252 -0.0580  0.0768
  572ERGO    C1 8281  10.979   1.568   8.544 -0.0358 -0.1299  0.0486
  572ERGO    C2 8282  10.914   1.550   8.200 -0.1178  0.2046 -0.2766
  573ERGO   ROH 8283   5.759   9.774   9.404 -0.3462 -0.2096 -0.0074
  573ERGO    R1 8284   5.679   9.668   9.154 -0.3221 -0.1947 -0.0221
  573ERGO    R2 8285   5.509   9.803   8.983 -0.2239 -0.1368 -0.0788
  573ERGO    R3 8286   5.711   9.764   8.804 -0.1896 -0.2293 -0.0195
  573ERGO    R4 8287   5.499   9.895   8.650 -0.0689 -0.1022 -0.0743
  573ERGO    R5 8288   5.599   9.708   8.600 -0.1547 -0.1506 -0.0587
  573ERGO    C1 8289   5.682   9.912   8.288  0.0536 -0.1689 -0.0160
  573ERGO    C2 8290   5.689  10.020   8.033  0.0840 -0.0656 -0.0317
  574ERGO   ROH 8291  13.959  12.823   9.962  0.0024 -0.2248 -0.0926
  574ERGO    R1 8292  14.092  12.878   9.717  0.0320 -0.0672 -0.0442
  574ERGO    R2 8293  14.237  12.686   9.581  0.1449  0.0459 -0.0979
  574ERGO    R3 8294  14.075  12.756   9.375  0.1525  0.0643 -0.0959
  574ERGO    R4 8295  14.314  12.646   9.247  0.1200  0.0247 -0.1002
  574ERGO    R5 8296  14.224  12.841   9.208  0.1537  0.0322 -0.1042
  574ERGO    C1 8297  14.207  12.689   8.858  0.1127  0.0297 -0.0995
  574ERGO    C2 8298  14.066  12.725   8.583  0.0417  0.0889 -0.4477
  575ERGO   ROH 8299   7.145  13.500   9.154  0.1488  0.0050  0.0828
  575ERGO    R1 8300   7.056  13.360   8.925  0.1216 -0.0160  0.1067
  575ERGO    R2 8301   7.011  13.485   8.682 -0.0363 -0.0145  0.1380
  575ERGO    R3 8302   7.181  13.294   8.590  0.0162  0.0738  0.0478
  575ERGO    R4 8303   7.042  13.391   8.351  0.0135  0.1784  0.0859
  575ERGO    R5 8304   7.058  13.184   8.416  0.0540  0.1422 -0.0261
  575ERGO    C1 8305   7.219  13.156   8.072  0.0918  0.3734 -0.0291
  575ERGO    C2 8306   7.263  12.978   7.845 -0.3595  0.0540  0.0375
  576ERGO   ROH 8307  16.736   0.587   9.631  0.1746  0.1437 -0.0197
  576ERGO    R1 8308  16.863   0.487   9.398  0.0635  0.0310 -0.0330
  576ERGO    R2 8309  16.840   0.224   9.318 -0.0047 -0.0009  0.0853
  576ERGO    R3 8310  16.758   0.336   9.084 -0.0901 -0.0865  0.0733
  576ERGO    R4 8311  16.823   0.058   9.015  0.0433 -0.0647  0.1171
  576ERGO    R5 8312  16.901   0.238   8.918 -0.0606 -0.0435  0.0748
  576ERGO    C1 8313  16.736   0.068   8.619 -0.0091 -0.1822  0.1245
  576ERGO    C2 8314  16.563  -0.303   8.416  0.1837  0.0138 -0.2312
  577ERGO   ROH 8315   7.379  10.646   9.572 -0.1953 -0.2801 -0.0570
  577ERGO    R1 8316   7.360  10.801   9.336 -0.1518 -0.2821 -0.0626
  577ERGO    R2 8317   7.508  10.746   9.109 -0.1155 -0.2910 -0.0414
  577ERGO    R3 8318   7.264  10.746   8.989 -0.0981 -0.2858 -0.0757
  577ERGO    R4 8319   7.455  10.738   8.768 -0.0750 -0.1180 -0.0526
  577ERGO    R5 8320   7.293  10.881   8.794 -0.1098 -0.1750  0.0027
  577ERGO    C1 8321   7.195  10.733   8.457 -0.0350 -0.0125 -0.0913
  577ERGO    C2 8322   6.964  10.826   8.206 -0.1122  0.0599 -0.2717
  578ERGO   ROH 8323  16.120  17.854   9.794 -0.1535 -0.0095 -0.1384
  578ERGO    R1 8324  16.053  17.699   9.567 -0.2733  0.0752 -0.1613
  578ERGO    R2 8325  15.867  17.782   9.380 -0.0767  0.3336 -0.2454
  578ERGO    R3 8326  16.071  17.739   9.206 -0.0580  0.0381 -0.1566
  578ERGO    R4 8327  15.829  17.692   9.049 -0.0556  0.1036 -0.1872
  578ERGO    R5 8328  15.997  17.555   9.071 -0.1645 -0.0131 -0.0333
  578ERGO    C1 8329  15.998  17.598   8.692 -0.0259 -0.3077 -0.0700
  578ERGO    C2 8330  16.118  17.704   8.313  0.0918  0.0280  0.1423
  579ERGO   ROH 8331   1.509   7.406   9.883 -0.1550 -0.0110  0.1176
  579ERGO    R1 8332   1.557   7.305   9.623  0.0681  0.0720  0.1249
  579ERGO    R2 8333   1.407   7.381   9.404 -0.0068 -0.1597  0.0946
  579ERGO    R3 8334   1.650   7.443   9.299 -0.0746  0.2349  0.1512
  579ERGO    R4 8335   1.463   7.465   9.073 -0.0435 -0.2436  0.0665
  579ERGO    R5 8336   1.646   7.345   9.080  0.1844  0.0956  0.2033
  579ERGO    C1 8337   1.724   7.571   8.782 -0.1286  0.0780  0.1033
  579ERGO    C2 8338   1.991   7.492   8.471  0.3433 -0.1937 -0.1516
  580ERGO   ROH 8339   9.556  16.009   9.492  0.0925 -0.2192 -0.1074
  580ERGO    R1 8340   9.635  16.157   9.264  0.1373 -0.1711 -0.0609
  580ERGO    R2 8341   9.766  16.042   9.050 -0.0605 -0.1829 -0.1776
  580ERGO    R3 8342   9.562  16.153   8.908 -0.0182  0.0872 -0.0356
  580ERGO    R4 8343   9.789  16.150   8.722 -0.1609 -0.2832 -0.2181
  580ERGO    R5 8344   9.667  16.322   8.775  0.1293 -0.0892 -0.1519
  580ERGO    C1 8345   9.610  16.316   8.398 -0.1797 -0.0884 -0.1083
  580ERGO    C2 8346   9.521  16.330   8.056 -0.1552  0.0644  0.0453
  581ERGO   ROH 8347   6.547  10.387   9.534  0.1319  0.0796  0.0756
  581ERGO    R1 8348   6.590  10.316   9.263  0.0155 -0.0649  0.0948
  581ERGO    R2 8349   6.415  10.154   9.123 -0.2267  0.1396  0.1584
  581ERGO    R3 8350   6.414  10.362   8.948  0.0599  0.0901  0.0907
  581ERGO    R4 8351   6.393  10.123   8.779 -0.3017  0.0557  0.1696
  581ERGO    R5 8352   6.540  10.283   8.760 -0.0666 -0.1582  0.1035
  581ERGO    C1 8353   6.379  10.301   8.415 -0.0763 -0.0396  0.1125
  581ERGO    C2 8354   6.185  10.016   8.245 -0.1576  0.1595  0.1361
  582ERGO   ROH 8355   1.136   2.454   9.697  0.0248 -0.1521 -0.0766
  582ERGO    R1 8356   0.996   2.477   9.452  0.0719 -0.2805 -0.1162
  582ERGO    R2 8357   0.990   2.712   9.306 -0.2906 -0.2146  0.0040
  582ERGO    R3 8358   1.079   2.552   9.106  0.0717  0.0430 -0.0517
  582ERGO    R4 8359   0.943   2.773   8.970 -0.5638 -0.2604  0.0311
  582ERGO    R5 8360   0.904   2.560   8.941 -0.0211 -0.3753  0.0064
  582ERGO    C1 8361   0.999   2.659   8.585 -0.3827 -0.0453 -0.0055
  582ERGO    C2 8362   1.079   2.825   8.276 -0.2007 -0.0596 -0.0535
  583ERGO   ROH 8363  12.204  12.214   9.671  0.1498  0.2280  0.2159
  583ERGO    R1 8364  12.120  12.092   9.430  0.1390  0.0721  0.2973
  583ERGO    R2 8365  12.044  12.238   9.208 -0.0921 -0.0695  0.2782
  583ERGO    R3 8366  12.232  12.086   9.084 -0.0196  0.0493  0.2467
  583ERGO    R4 8367  12.025  12.127   8.881 -0.0889 -0.1203  0.2954
  583ERGO    R5 8368  12.107  11.936   8.946  0.0574 -0.0515  0.2931
  583ERGO    C1 8369  12.191  11.919   8.575 -0.0191 -0.0384  0.2758
  583ERGO    C2 8370  12.159  12.099   8.306  0.2829  0.1185  0.1253
  584ERGO   ROH 8371  15.857  11.334   9.956 -0.0492 -0.0286 -0.0540
  584ERGO    R1 8372  15.928  11.338   9.682  0.0634 -0.0543 -0.0254
  584ERGO    R2 8373  15.903  11.117   9.519 -0.0685 -0.0097 -0.0640
  584ERGO    R3 8374  15.759  11.288   9.364  0.1443  0.1400 -0.1009
  584ERGO    R4 8375  15.808  11.055   9.192 -0.2076  0.0005 -0.0263
  584ERGO    R5 8376  15.853  11.264   9.145  0.0788 -0.0739 -0.1089
  584ERGO    C1 8377  15.618  11.180   8.856 -0.0888  0.1470 -0.0392
  584ERGO    C2 8378  15.572  11.359   8.518 -0.1566 -0.2510  0.2597
  585ERGO   ROH 8379  16.813   4.626  10.051  0.0057  0.0160  0.0361
  585ERGO    R1 8380  16.774   4.621   9.771 -0.0228 -0.0578  0.0420
  585ERGO    R2 8381  16.961   4.716   9.593 -0.0742 -0.0382  0.0037
  585ERGO    R3 8382  16.937   4.468   9.484 -0.0069 -0.0687  0.0554
  585ERGO    R4 8383  16.969   4.649   9.254 -0.0317 -0.1033  0.0168
  585ERGO    R5 8384  16.808   4.504   9.285 -0.0026 -0.1376  0.0363
  585ERGO    C1 8385  16.950   4.377   8.954  0.0567 -0.1698  0.0728
  585ERGO    C2 8386  16.917   4.331   8.640 -0.0142 -0.2733  0.3369
  586ERGO   ROH 8387   6.126   0.212   9.577  0.0390  0.0721  0.0420
  586ERGO    R1 8388   6.105   0.244   9.297  0.0862  0.0003  0.0297
  586ERGO    R2 8389   6.061   0.489   9.177 -0.0617 -0.0519 -0.0320
  586ERGO    R3 8390   6.284   0.425   9.037  0.0225  0.0784  0.0410
  586ERGO    R4 8391   6.111   0.563   8.844 -0.0930 -0.2372 -0.0783
  586ERGO    R5 8392   6.202   0.366   8.819  0.1124 -0.1601  0.0720
  586ERGO    C1 8393   6.351   0.545   8.517 -0.0321 -0.2228 -0.0369
  586ERGO    C2 8394   6.559   0.761   8.260  0.2273 -0.2115  0.0576
  587ERGO   ROH 8395   8.563   1.174   9.966 -0.0014 -0.2564 -0.0559
  587ERGO    R1 8396   8.492   1.103   9.701 -0.0246 -0.0573 -0.1051
  587ERGO    R2 8397   8.384   1.283   9.523  0.0225  0.0956  0.0177
  587ERGO    R3 8398   8.591   1.202   9.365 -0.0012  0.1451 -0.0395
  587ERGO    R4 8399   8.386   1.295   9.177 -0.0553  0.1385  0.0186
  587ERGO    R5 8400   8.485   1.101   9.176 -0.0279  0.1538 -0.0284
  587ERGO    C1 8401   8.581   1.227   8.829 -0.1228  0.2100 -0.0347
  587ERGO    C2 8402   8.554   1.212   8.483 -0.3113  0.1130 -0.0001
  588ERGO   ROH 8403   7.083   8.465   9.570 -0.1430 -0.1052  0.0369
  588ERGO    R1 8404   7.028   8.486   9.293 -0.1196 -0.0146  0.0387
  588ERGO    R2 8405   7.227   8.489   9.102 -0.1015  0.0990  0.0599
  588ERGO    R3 8406   7.085   8.283   8.997 -0.0466  0.1072 -0.0319
  588ERGO    R4 8407   7.182   8.432   8.764  0.1594  0.0725  0.0275
  588ERGO    R5 8408   6.975   8.377   8.806  0.1166  0.1040 -0.1298
  588ERGO    C1 8409   7.022   8.205   8.469  0.3628  0.0648 -0.0775
  588ERGO    C2 8410   6.972   8.075   8.242  0.0740 -0.0899  0.3404
  589ERGO   ROH 8411   0.160   3.018   9.637 -0.0147 -0.0676  0.2700
  589ERGO    R1 8412   0.064   2.917   9.391  0.0131 -0.0514  0.2522
  589ERGO    R2 8413  -0.187   2.807   9.364  0.0072 -0.0308  0.2116
  589ERGO    R3 8414  -0.212   2.990   9.165  0.0514 -0.0213  0.2149
  589ERGO    R4 8415  -0.377   2.762   9.079  0.1228 -0.0426  0.1362
  589ERGO    R5 8416  -0.217   2.859   8.964  0.1496 -0.0076  0.2035
  589ERGO    C1 8417  -0.511   2.908   8.725  0.2317 -0.0405  0.0955
  589ERGO    C2 8418  -0.803   3.036   8.448  0.3685 -0.1837 -0.1246
  590ERGO   ROH 8419   5.533  10.254   9.389 -0.0896  0.0180  0.1864
  590ERGO    R1 8420   5.525  10.260   9.106  0.0113 -0.0226  0.1816
  590ERGO    R2 8421   5.294  10.209   8.963  0.0572 -0.0369  0.1039
  590ERGO    R3 8422   5.350  10.450   8.850  0.1064 -0.0536  0.0947
  590ERGO    R4 8423   5.213  10.300   8.640  0.2600 -0.0976  0.0345
  590ERGO    R5 8424   5.406  10.399   8.623  0.2575 -0.0845  0.1416
  590ERGO    C1 8425   5.217  10.580   8.346  0.4243 -0.1483 -0.0145
  590ERGO    C2 8426   4.993  10.614   8.160  0.1457 -0.1572  0.2392
  591ERGO   ROH 8427   7.529  14.269   9.251 -0.0654  0.1972 -0.0953
  591ERGO    R1 8428   7.467  14.310   8.978  0.0518  0.0292 -0.1487
  591ERGO    R2 8429   7.656  14.387   8.792  0.1116  0.0076 -0.0953
  591ERGO    R3 8430   7.568  14.166   8.660  0.2661 -0.0971 -0.0264
  591ERGO    R4 8431   7.622  14.363   8.449  0.0966 -0.1100 -0.0862
  591ERGO    R5 8432   7.436  14.253   8.480  0.1809 -0.2447 -0.0382
  591ERGO    C1 8433   7.520  14.142   8.125  0.2329 -0.2768 -0.0162
  591ERGO    C2 8434   7.562  13.978   7.724  0.2103 -0.0734  0.2662
  592ERGO   ROH 8435   6.589  15.294   9.220 -0.0585 -0.0462  0.0707
  592ERGO    R1 8436   6.525  15.206   8.959 -0.0351 -0.1818  0.1096
  592ERGO    R2 8437   6.341  15.336   8.799 -0.1180 -0.3376  0.0721
  592ERGO    R3 8438   6.547  15.341   8.621 -0.1325 -0.3000  0.0563
  592ERGO    R4 8439   6.312  15.422   8.465 -0.1001 -0.0650  0.1379
  592ERGO    R5 8440   6.450  15.261   8.417 -0.1853 -0.0937  0.0011
  592ERGO    C1 8441   6.488  15.476   8.104 -0.1031  0.1291  0.1615
  592ERGO    C2 8442   6.426  15.521   7.767  0.0404 -0.1743  0.1888
  593ERGO   ROH 8443   1.068   3.326   9.836  0.0032 -0.1301 -0.0257
  593ERGO    R1 8444   1.081   3.381   9.559  0.0093 -0.0737 -0.0140
  593ERGO    R2 8445   0.965   3.217   9.369  0.0617 -0.0639 -0.0520
  593ERGO    R3 8446   0.844   3.447   9.291  0.0125 -0.0777 -0.0186
  593ERGO    R4 8447   0.772   3.253   9.084 -0.0617 -0.1024  0.0257
  593ERGO    R5 8448   0.864   3.448   9.053 -0.0874 -0.0966 -0.0288
  593ERGO    C1 8449   0.546   3.490   8.846 -0.1797 -0.1378  0.1022
  593ERGO    C2 8450   0.345   3.629   8.672  0.1190  0.1377  0.2446
  594ERGO   ROH 8451   3.468  13.828   9.390 -0.1634  0.0145 -0.0537
  594ERGO    R1 8452   3.258  13.900   9.215 -0.1067  0.0970 -0.0890
  594ERGO    R2 8453   3.206  14.162   9.145 -0.0480  0.1269 -0.0289
  594ERGO    R3 8454   3.228  14.065   8.892  0.0049  0.1939 -0.0502
  594ERGO    R4 8455   3.134  14.341   8.858  0.0880  0.2258 -0.0021
  594ERGO    R5 8456   3.042  14.161   8.775  0.0675  0.2745 -0.0816
  594ERGO    C1 8457   3.113  14.353   8.453  0.2168  0.3464 -0.0064
  594ERGO    C2 8458   3.060  14.588   8.197 -0.2627  0.0819 -0.1325
  595ERGO   ROH 8459   5.857   2.398  10.139 -0.1251 -0.0744 -0.0112
  595ERGO    R1 8460   5.849   2.334   9.864 -0.1156  0.0321 -0.0359
  595ERGO    R2 8461   5.694   2.129   9.763 -0.0043 -0.0160 -0.0993
  595ERGO    R3 8462   5.598   2.325   9.601 -0.1365 -0.0092 -0.0162
  595ERGO    R4 8463   5.659   2.102   9.421 -0.1808  0.0262 -0.0866
  595ERGO    R5 8464   5.730   2.307   9.402 -0.2347  0.0496 -0.0919
  595ERGO    C1 8465   5.549   2.270   9.069 -0.4078  0.0571 -0.0012
  595ERGO    C2 8466   5.461   2.159   8.788  0.0816 -0.2026 -0.1370
  596ERGO   ROH 8467   6.398   1.478   9.997  0.0297 -0.1539 -0.0659
  596ERGO    R1 8468   6.333   1.543   9.729  0.1142 -0.0978 -0.0732
  596ERGO    R2 8469   6.510   1.672   9.561  0.2302 -0.2131 -0.0425
  596ERGO    R3 8470   6.461   1.460   9.399  0.1059 -0.1735 -0.0573
  596ERGO    R4 8471   6.454   1.692   9.220  0.1991 -0.1523 -0.0340
  596ERGO    R5 8472   6.299   1.540   9.242  0.1268 -0.0783 -0.0305
  596ERGO    C1 8473   6.375   1.503   8.870  0.0645 -0.0798 -0.0430
  596ERGO    C2 8474   6.258   1.586   8.443 -0.3449  0.0932 -0.2949
  597ERGO   ROH 8475   8.111  10.149   9.425 -0.0892 -0.0812 -0.1073
  597ERGO    R1 8476   8.242  10.157   9.174 -0.0240  0.1634 -0.0669
  597ERGO    R2 8477   8.158  10.007   8.958  0.2914  0.0412 -0.1025
  597ERGO    R3 8478   8.155  10.249   8.833 -0.0753  0.0516 -0.0865
  597ERGO    R4 8479   8.062  10.059   8.630  0.4623 -0.1431 -0.1846
  597ERGO    R5 8480   8.226  10.201   8.609  0.2149  0.1897 -0.0345
  597ERGO    C1 8481   8.003  10.316   8.322  0.2176 -0.2405 -0.2173
  597ERGO    C2 8482   8.006  10.435   7.996  0.0424 -0.3389 -0.3766
  598ERGO   ROH 8483   0.458   1.033   9.898 -0.0764 -0.1937 -0.1003
  598ERGO    R1 8484   0.365   1.110   9.641 -0.1704 -0.3879 -0.1256
  598ERGO    R2 8485   0.508   1.281   9.476 -0.4585 -0.1204 -0.1010
  598ERGO    R3 8486   0.481   1.077   9.298 -0.0275 -0.1897 -0.0984
  598ERGO    R4 8487   0.534   1.313   9.133 -0.1961 -0.1410 -0.0862
  598ERGO    R5 8488   0.367   1.175   9.112  0.0026 -0.3710 -0.2158
  598ERGO    C1 8489   0.524   1.140   8.766  0.3612 -0.2181 -0.0752
  598ERGO    C2 8490   0.504   1.018   8.376  0.0404  0.0229  0.0862
  599ERGO   ROH 8491   2.932  17.148   9.486 -0.0967 -0.0030  0.1610
  599ERGO    R1 8492   3.013  17.058   9.230 -0.0283  0.1056  0.1444
  599ERGO    R2 8493   2.999  16.793   9.154  0.1726  0.1100  0.0967
  599ERGO    R3 8494   2.857  16.894   8.946  0.0966  0.0387  0.1124
  599ERGO    R4 8495   2.851  16.604   8.906  0.2682  0.0300  0.0995
  599ERGO    R5 8496   2.915  16.753   8.761  0.1703  0.0793  0.1006
  599ERGO    C1 8497   2.631  16.588   8.566  0.2524 -0.0833  0.1159
  599ERGO    C2 8498   2.430  16.254   8.499 -0.0157  0.0428 -0.0212
  600ERGO   ROH 8499  12.119   3.300  10.068  0.1596 -0.0200 -0.1153
  600ERGO    R1 8500  12.150   3.371   9.796  0.1200 -0.0032 -0.1156
  600ERGO    R2 8501  11.967   3.298   9.602  0.1376 -0.0709 -0.1102
  600ERGO    R3 8502  11.964   3.565   9.551  0.0326 -0.0706 -0.1020
  600ERGO    R4 8503  11.902   3.439   9.293  0.1703 -0.0843 -0.1231
  600ERGO    R5 8504  12.059   3.585   9.332  0.0903 -0.0161 -0.0697
  600ERGO    C1 8505  11.861   3.771   9.065  0.0908 -0.0917 -0.1230
  600ERGO    C2 8506  11.836   3.929   8.715  0.0920  0.2228  0.1240
  601ERGO   ROH 8507   1.608  14.794   9.898  0.1766 -0.1254  0.0332
  601ERGO    R1 8508   1.530  14.695   9.644  0.1083  0.0543 -0.0175
  601ERGO    R2 8509   1.589  14.827   9.409  0.3377  0.0560  0.0383
  601ERGO    R3 8510   1.698  14.588   9.340  0.0463 -0.0679 -0.0097
  601ERGO    R4 8511   1.671  14.734   9.086  0.3498  0.0765  0.0355
  601ERGO    R5 8512   1.595  14.535   9.130  0.0596  0.1566 -0.0768
  601ERGO    C1 8513   1.821  14.456   8.833  0.0831 -0.0276 -0.0112
  601ERGO    C2 8514   1.894  14.552   8.573 -0.0284 -0.0333  0.3601
  602ERGO   ROH 8515   8.964   8.844   9.642 -0.1362  0.0552  0.0635
  602ERGO    R1 8516   9.072   8.838   9.380 -0.1657  0.0804  0.0512
  602ERGO    R2 8517   9.303   8.702   9.317 -0.0162  0.3232  0.0729
  602ERGO    R3 8518   9.145   8.585   9.130  0.0930  0.0678  0.1351
  602ERGO    R4 8519   9.417   8.566   9.021  0.0937  0.5267  0.0204
  602ERGO    R5 8520   9.243   8.651   8.921 -0.0978  0.2462  0.0960
  602ERGO    C1 8521   9.335   8.378   8.671  0.2603  0.4054  0.0483
  602ERGO    C2 8522   9.358   8.153   8.426 -0.1395 -0.2240  0.1527
  603ERGO   ROH 8523   5.631  10.700   9.289  0.0833  0.1303 -0.0444
  603ERGO    R1 8524   5.616  10.857   9.054  0.1555 -0.0101 -0.1430
  603ERGO    R2 8525   5.726  10.775   8.813 -0.0839 -0.3193 -0.1496
  603ERGO    R3 8526   5.474  10.820   8.721 -0.0808 -0.0551 -0.0405
  603ERGO    R4 8527   5.650  10.896   8.499 -0.0928 -0.4735 -0.2082
  603ERGO    R5 8528   5.494  11.019   8.589  0.1193 -0.1839 -0.2150
  603ERGO    C1 8529   5.369  11.009   8.228 -0.0950 -0.3154 -0.1400
  603ERGO    C2 8530   5.224  11.071   7.908 -0.0083 -0.1130 -0.1771
  604ERGO   ROH 8531  10.751  14.470   9.751  0.3104 -0.1816  0.0351
  604ERGO    R1 8532  10.768  14.307   9.520  0.3128 -0.0347 -0.0691
  604ERGO    R2 8533  10.549  14.254   9.360  0.1800 -0.3943  0.2193
  604ERGO    R3 8534  10.711  14.349   9.163 -0.2835  0.0384  0.0236
  604ERGO    R4 8535  10.548  14.143   9.033  0.1976 -0.5280  0.2641
  604ERGO    R5 8536  10.765  14.156   9.033  0.1838  0.1381  0.0519
  604ERGO    C1 8537  10.699  14.167   8.657 -0.2272 -0.1997  0.1065
  604ERGO    C2 8538  10.761  14.134   8.400  0.2220 -0.1401 -0.0921
  605ERGO   ROH 8539  12.285  17.747   9.766 -0.0385 -0.0454  0.1844
  605ERGO    R1 8540  12.313  17.589   9.533 -0.0614  0.0003  0.1512
  605ERGO    R2 8541  12.134  17.601   9.322 -0.0252  0.1161  0.1283
  605ERGO    R3 8542  12.359  17.650   9.177  0.0142  0.0683  0.1719
  605ERGO    R4 8543  12.166  17.543   8.983 -0.0498  0.3139  0.0902
  605ERGO    R5 8544  12.368  17.469   9.020 -0.0955  0.1602  0.0545
  605ERGO    C1 8545  12.396  17.554   8.649 -0.0274  0.3843  0.1089
  605ERGO    C2 8546  12.486  17.355   8.312  0.3067  0.0060 -0.0290
  606ERGO   ROH 8547   9.371   3.034   9.936  0.3647  0.2061  0.0772
  606ERGO    R1 8548   9.547   3.110   9.727  0.2075  0.1589 -0.0765
  606ERGO    R2 8549   9.581   2.959   9.499  0.0704  0.0792 -0.0493
  606ERGO    R3 8550   9.519   3.192   9.374 -0.0570  0.0247 -0.0885
  606ERGO    R4 8551   9.661   3.036   9.171  0.0996  0.1059 -0.0353
  606ERGO    R5 8552   9.709   3.238   9.236 -0.0557  0.1428 -0.0442
  606ERGO    C1 8553   9.650   3.300   8.864 -0.0030  0.0703 -0.0639
  606ERGO    C2 8554   9.573   3.217   8.548 -0.1868 -0.1753 -0.0530
  607ERGO   ROH 8555   4.054   8.023   9.462 -0.0039  0.0097 -0.0650
  607ERGO    R1 8556   3.936   8.048   9.206 -0.0481  0.0343 -0.0422
  607ERGO    R2 8557   3.894   8.292   9.085  0.2095  0.0322 -0.1395
  607ERGO    R3 8558   4.034   8.179   8.881  0.0185 -0.2287 -0.1311
  607ERGO    R4 8559   3.808   8.313   8.750  0.1870  0.0675 -0.1316
  607ERGO    R5 8560   3.866   8.104   8.728 -0.1181 -0.0281 -0.0850
  607ERGO    C1 8561   3.890   8.219   8.365 -0.0055 -0.1570 -0.1191
  607ERGO    C2 8562   3.724   8.342   8.140  0.0697  0.3796 -0.1535
  608ERGO   ROH 8563  11.529  16.734   9.741 -0.3135  0.0734  0.1599
  608ERGO    R1 8564  11.575  16.793   9.468 -0.1806  0.1102  0.1900
  608ERGO    R2 8565  11.393  16.732   9.270 -0.0157 -0.0069  0.0743
  608ERGO    R3 8566  11.417  16.996   9.211 -0.1544  0.0115  0.0943
  608ERGO    R4 8567  11.376  16.864   8.951  0.2466 -0.0376  0.0451
  608ERGO    R5 8568  11.539  16.999   9.004  0.0844  0.0955  0.2308
  608ERGO    C1 8569  11.389  17.189   8.710  0.2689 -0.0382  0.0468
  608ERGO    C2 8570  11.285  17.150   8.436  0.1732 -0.2133  0.0589
  609ERGO   ROH 8571  12.410  15.338   9.796 -0.0563  0.0367 -0.0801
  609ERGO    R1 8572  12.452  15.453   9.541 -0.0151 -0.0132 -0.0955
  609ERGO    R2 8573  12.696  15.557   9.463 -0.0047 -0.0254 -0.0739
  609ERGO    R3 8574  12.665  15.387   9.253  0.0346 -0.0660 -0.0476
  609ERGO    R4 8575  12.879  15.569   9.170 -0.0518  0.0160 -0.1018
  609ERGO    R5 8576  12.696  15.525   9.060 -0.0516 -0.0751 -0.0699
  609ERGO    C1 8577  12.955  15.417   8.802 -0.0421  0.0017 -0.0934
  609ERGO    C2 8578  13.160  15.554   8.498  0.2004  0.1596  0.3931
  610ERGO   ROH 8579   2.279   8.962   9.767 -0.3865  0.0873  0.0683
  610ERGO    R1 8580   2.333   9.027   9.497 -0.1502  0.0721  0.1089
  610ERGO    R2 8581   2.499   8.875   9.337 -0.1614 -0.0469  0.2074
  610ERGO    R3 8582   2.283   8.871   9.173 -0.0572  0.1429  0.0603
  610ERGO    R4 8583   2.511   8.822   8.996  0.0203 -0.0370  0.2110
  610ERGO    R5 8584   2.358   8.975   8.971  0.1641  0.0915  0.1153
  610ERGO    C1 8585   2.314   8.787   8.643  0.2239  0.1470  0.0750
  610ERGO    C2 8586   2.474   8.870   8.392 -0.0172  0.4282 -0.2344
  611ERGO   ROH 8587  11.229  13.866   9.558  0.3627  0.1101 -0.0113
  611ERGO    R1 8588  11.144  13.969   9.308  0.1138  0.0131  0.0296
  611ERGO    R2 8589  11.321  14.050   9.112 -0.0770  0.1788 -0.0834
  611ERGO    R3 8590  11.180  13.876   8.958  0.0025  0.0265  0.0148
  611ERGO    R4 8591  11.330  14.038   8.767 -0.1289  0.0296 -0.0793
  611ERGO    R5 8592  11.116  14.004   8.767 -0.1059 -0.0994 -0.0308
  611ERGO    C1 8593  11.202  13.867   8.422 -0.0845 -0.2004  0.0152
  611ERGO    C2 8594  11.273  13.879   8.031 -0.1436  0.4065  0.0340
  612ERGO   ROH 8595   2.465  14.950  10.000 -0.1721 -0.1429 -0.0821
  612ERGO    R1 8596   2.603  14.985   9.756 -0.1516  0.1029 -0.0370
  612ERGO    R2 8597   2.566  14.818   9.538  0.1304  0.1036 -0.0845
  612ERGO    R3 8598   2.516  15.052   9.409 -0.1485  0.0690 -0.0457
  612ERGO    R4 8599   2.543  14.854   9.195  0.2582  0.1523 -0.0889
  612ERGO    R5 8600   2.651  15.043   9.212 -0.0234  0.3163  0.0200
  612ERGO    C1 8601   2.482  15.095   8.874  0.0707  0.1483 -0.0551
  612ERGO    C2 8602   2.433  15.199   8.571  0.1321  0.2242 -0.3037
  613ERGO   ROH 8603   6.547  12.281   9.376  0.1593 -0.1811  0.0753
  613ERGO    R1 8604   6.796  12.327   9.247  0.1701 -0.2116  0.0863
  613ERGO    R2 8605   6.932  12.128   9.111  0.0611 -0.1835 -0.0627
  613ERGO    R3 8606   6.924  12.307   8.907  0.1321 -0.0376  0.0605
  613ERGO    R4 8607   7.142  12.124   8.837  0.0608 -0.0786 -0.0654
  613ERGO    R5 8608   7.154  12.341   8.850  0.1474 -0.0892  0.0854
  613ERGO    C1 8609   7.257  12.290   8.486  0.1273  0.1196  0.0487
  613ERGO    C2 8610   7.403  12.064   8.218 -0.0549 -0.0810 -0.0934
  614ERGO   ROH 8611   6.580  17.122   9.530  0.2735  0.2783  0.1348
  614ERGO    R1 8612   6.654  17.118   9.257  0.0854  0.1634  0.0836
  614ERGO    R2 8613   6.742  16.889   9.130 -0.0660  0.0924  0.0991
  614ERGO    R3 8614   6.542  16.947   8.955 -0.1720  0.0901  0.2187
  614ERGO    R4 8615   6.715  16.759   8.811 -0.2623  0.0947  0.1141
  614ERGO    R5 8616   6.650  16.956   8.742 -0.3047  0.0912  0.1531
  614ERGO    C1 8617   6.511  16.739   8.461 -0.4761  0.0938  0.2351
  614ERGO    C2 8618   6.513  16.608   8.128 -0.0964 -0.1055 -0.1327
  615ERGO   ROH 8619   4.109   6.567   9.263  0.2792  0.0454  0.0219
  615ERGO    R1 8620   4.122   6.560   8.980  0.1803 -0.1892  0.0199
  615ERGO    R2 8621   4.178   6.784   8.829 -0.1502 -0.2480 -0.2044
  615ERGO    R3 8622   4.374   6.626   8.726  0.0074 -0.1030 -0.1297
  615ERGO    R4 8623   4.289   6.794   8.501 -0.0228 -0.1625 -0.1587
  615ERGO    R5 8624   4.300   6.577   8.504  0.1354 -0.1531 -0.1599
  615ERGO    C1 8625   4.537   6.651   8.214  0.1995  0.0235 -0.0618
  615ERGO    C2 8626   4.687   6.444   7.976 -0.0445 -0.1704  0.1642
  616ERGO   ROH 8627  11.903   8.321  10.022 -0.0204 -0.0045  0.0186
  616ERGO    R1 8628  11.904   8.118   9.825 -0.0609 -0.0451  0.0602
  616ERGO    R2 8629  11.690   8.075   9.655 -0.0313  0.0248  0.0064
  616ERGO    R3 8630  11.880   8.103   9.463  0.0386 -0.1076  0.0558
  616ERGO    R4 8631  11.693   7.907   9.353 -0.0406 -0.0223  0.0324
  616ERGO    R5 8632  11.908   7.882   9.374 -0.0580 -0.1377  0.0966
  616ERGO    C1 8633  11.873   7.834   8.997  0.0198 -0.1739  0.0939
  616ERGO    C2 8634  11.902   7.837   8.635  0.1632  0.1414 -0.1288
  617ERGO   ROH 8635   8.091   2.894  10.035  0.1230  0.0293 -0.0028
  617ERGO    R1 8636   8.008   2.843   9.770  0.1984 -0.1607  0.0091
  617ERGO    R2 8637   8.018   3.035   9.571 -0.0051 -0.2197 -0.0554
  617ERGO    R3 8638   8.161   2.845   9.439  0.2194 -0.1068  0.0180
  617ERGO    R4 8639   8.094   3.044   9.234 -0.0570 -0.2765 -0.0697
  617ERGO    R5 8640   8.055   2.830   9.225  0.2083 -0.3369  0.0342
  617ERGO    C1 8641   8.272   2.872   8.914  0.1236 -0.2036 -0.0091
  617ERGO    C2 8642   8.342   3.117   8.548  0.0051  0.0767 -0.3687
  618ERGO   ROH 8643   2.737  13.115   9.359  0.1475 -0.1682 -0.0574
  618ERGO    R1 8644   2.615  13.081   9.106  0.1235 -0.0624 -0.0605
  618ERGO    R2 8645   2.545  13.294   8.944  0.1533  0.0042  0.0133
  618ERGO    R3 8646   2.695  13.161   8.760  0.1157  0.0347 -0.0396
  618ERGO    R4 8647   2.523  13.340   8.603  0.1789  0.1565  0.0315
  618ERGO    R5 8648   2.545  13.124   8.577  0.1099  0.1610 -0.0606
  618ERGO    C1 8649   2.651  13.243   8.231  0.1585  0.2741 -0.0077
  618ERGO    C2 8650   2.621  13.332   7.806  0.0370 -0.0056 -0.1093
  619ERGO   ROH 8651  10.720  13.760   9.433 -0.1410  0.1547 -0.1674
  619ERGO    R1 8652  10.807  13.695   9.171 -0.1379  0.3247 -0.2100
  619ERGO    R2 8653  10.672  13.514   9.011  0.1242  0.0668 -0.1463
  619ERGO    R3 8654  10.672  13.721   8.834 -0.3540  0.0793 -0.1466
  619ERGO    R4 8655  10.696  13.481   8.668  0.1445  0.1181 -0.1503
  619ERGO    R5 8656  10.828  13.654   8.665 -0.2267  0.4155 -0.1707
  619ERGO    C1 8657  10.711  13.656   8.302 -0.2926  0.1598 -0.1528
  619ERGO    C2 8658  10.734  13.852   7.931  0.0043 -0.0882 -0.3739
  620ERGO   ROH 8659  14.687   4.964  10.423  0.1335  0.0497  0.0442
  620ERGO    R1 8660  14.712   4.765  10.223  0.0154  0.1048 -0.0253
  620ERGO    R2 8661  14.540   4.748  10.007 -0.0167  0.2601 -0.0088
  620ERGO    R3 8662  14.771   4.758   9.864 -0.0295  0.1953 -0.0357
  620ERGO    R4 8663  14.570   4.660   9.674 -0.0706  0.1935  0.0031
  620ERGO    R5 8664  14.760   4.566   9.721 -0.0792  0.1686  0.0003
  620ERGO    C1 8665  14.803   4.617   9.346 -0.1139  0.0939 -0.0153
  620ERGO    C2 8666  14.763   4.802   9.058 -0.1042  0.0872 -0.2440
  621ERGO   ROH 8667  11.344   4.135  10.099 -0.0063 -0.0840 -0.0940
  621ERGO    R1 8668  11.223   3.934   9.939 -0.0482 -0.0890 -0.0559
  621ERGO    R2 8669  10.950   3.924   9.895 -0.0394  0.0108 -0.1263
  621ERGO    R3 8670  11.026   3.923   9.634  0.0294 -0.1148 -0.1057
  621ERGO    R4 8671  10.748   3.830   9.631  0.0199 -0.0860 -0.1375
  621ERGO    R5 8672  10.920   3.730   9.541  0.0327 -0.1447 -0.0468
  621ERGO    C1 8673  10.702   3.774   9.232  0.1189 -0.2604 -0.1246
  621ERGO    C2 8674  10.471   3.811   8.931  0.2050  0.0339  0.1955
  622ERGO   ROH 8675   8.459   2.610   9.884  0.2579 -0.0198  0.1998
  622ERGO    R1 8676   8.586   2.709   9.651  0.2961 -0.1992  0.1423
  622ERGO    R2 8677   8.713   2.544   9.469  0.0533 -0.3714  0.1288
  622ERGO    R3 8678   8.548   2.667   9.292  0.1366 -0.2155  0.1583
  622ERGO    R4 8679   8.782   2.588   9.134  0.1097 -0.3342  0.1460
  622ERGO    R5 8680   8.695   2.788   9.147  0.2342 -0.2725  0.1986
  622ERGO    C1 8681   8.667   2.729   8.772  0.2207 -0.1661  0.1837
  622ERGO    C2 8682   8.770   2.804   8.534 -0.0491  0.3421 -0.0639
  623ERGO   ROH 8683   7.016  10.333   9.536  0.0698  0.0608 -0.1347
  623ERGO    R1 8684   7.090  10.409   9.273  0.1248 -0.1011 -0.1670
  623ERGO    R2 8685   7.143  10.224   9.074 -0.2307 -0.2253 -0.1516
  623ERGO    R3 8686   6.955  10.366   8.938 -0.0406  0.0643 -0.1240
  623ERGO    R4 8687   7.100  10.217   8.732 -0.3204 -0.1987 -0.1414
  623ERGO    R5 8688   7.065  10.432   8.736  0.0242 -0.1348 -0.1574
  623ERGO    C1 8689   6.898  10.344   8.404 -0.1942  0.0884 -0.1095
  623ERGO    C2 8690   6.810  10.312   8.133  0.0350 -0.0002  0.0088
  624ERGO   ROH 8691   9.342  10.770   9.657 -0.0085 -0.0065 -0.0691
  624ERGO    R1 8692   9.407  10.942   9.441 -0.2366  0.1274 -0.0341
  624ERGO    R2 8693   9.534  10.852   9.213  0.0278  0.3683  0.0138
  624ERGO    R3 8694   9.321  10.966   9.088 -0.1418 -0.0178 -0.0685
  624ERGO    R4 8695   9.529  10.949   8.882  0.0583  0.5520  0.0658
  624ERGO    R5 8696   9.420  11.128   8.941 -0.3801  0.2886  0.0960
  624ERGO    C1 8697   9.328  11.114   8.571 -0.0833  0.2964  0.0187
  624ERGO    C2 8698   9.345  11.013   8.206 -0.2869 -0.1140 -0.1010
  625ERGO   ROH 8699  11.349   7.452  10.240  0.1108 -0.0111 -0.0489
  625ERGO    R1 8700  11.420   7.230  10.081  0.0630 -0.0543 -0.0118
  625ERGO    R2 8701  11.300   7.176   9.838 -0.0607 -0.1599  0.0674
  625ERGO    R3 8702  11.556   7.176   9.747 -0.1085 -0.1422 -0.0675
  625ERGO    R4 8703  11.405   7.031   9.543 -0.1760 -0.2733  0.0819
  625ERGO    R5 8704  11.584   6.961   9.646 -0.1078 -0.1805  0.0201
  625ERGO    C1 8705  11.706   6.946   9.285 -0.2879 -0.3227 -0.0363
  625ERGO    C2 8706  11.776   6.954   8.920 -0.0068  0.0142 -0.0971
  626ERGO   ROH 8707   9.833   9.428   9.640  0.0703 -0.1813  0.0072
  626ERGO    R1 8708   9.930   9.454   9.376  0.0487 -0.2376 -0.0051
  626ERGO    R2 8709  10.045   9.244   9.237 -0.1420 -0.3136 -0.0362
  626ERGO    R3 8710   9.857   9.307   9.051 -0.1179 -0.1524 -0.0097
  626ERGO    R4 8711  10.074   9.184   8.898 -0.1807 -0.2405 -0.0537
  626ERGO    R5 8712   9.982   9.378   8.861 -0.0752 -0.1692  0.0044
  626ERGO    C1 8713   9.914   9.209   8.526 -0.1805 -0.0465 -0.0389
  626ERGO    C2 8714   9.974   9.007   8.220 -0.0038 -0.1393  0.3422
  627ERGO   ROH 8715   0.614  16.809  10.125  0.0396 -0.2043 -0.0149
  627ERGO    R1 8716   0.607  16.910   9.861 -0.0642  0.0188  0.0702
  627ERGO    R2 8717   0.748  16.794   9.653 -0.0014  0.2971 -0.0495
  627ERGO    R3 8718   0.504  16.789   9.534 -0.0129  0.2213 -0.0225
  627ERGO    R4 8719   0.692  16.830   9.314 -0.0449  0.1772 -0.0555
  627ERGO    R5 8720   0.518  16.953   9.360 -0.0573  0.1654 -0.0778
  627ERGO    C1 8721   0.430  16.847   9.005 -0.0811  0.0358 -0.0335
  627ERGO    C2 8722   0.353  16.907   8.667 -0.0162  0.0635 -0.1608
  628ERGO   ROH 8723   1.461   9.473   9.655 -0.0403 -0.0175 -0.1348
  628ERGO    R1 8724   1.541   9.515   9.387  0.0244  0.0692 -0.1041
  628ERGO    R2 8725   1.516   9.320   9.191  0.0767  0.1241 -0.1790
  628ERGO    R3 8726   1.382   9.517   9.061  0.0994  0.1646 -0.1377
  628ERGO    R4 8727   1.464   9.331   8.850  0.1443  0.2602 -0.1841
  628ERGO    R5 8728   1.501   9.545   8.856  0.1327  0.2502 -0.0983
  628ERGO    C1 8729   1.307   9.522   8.529  0.2050  0.3776 -0.1482
  628ERGO    C2 8730   1.028   9.484   8.322 -0.0176  0.0491  0.1456
  629ERGO   ROH 8731   6.962   5.672   9.913 -0.1002  0.0760 -0.1010
  629ERGO    R1 8732   7.085   5.661   9.659  0.1157  0.1462 -0.0019
  629ERGO    R2 8733   7.360   5.666   9.626  0.1595 -0.1782  0.2525
  629ERGO    R3 8734   7.315   5.438   9.486 -0.0154  0.0006  0.0094
  629ERGO    R4 8735   7.583   5.525   9.403  0.1697 -0.2568  0.3126
  629ERGO    R5 8736   7.415   5.480   9.272  0.2159  0.0724  0.1279
  629ERGO    C1 8737   7.671   5.229   9.141  0.0115 -0.1346  0.1194
  629ERGO    C2 8738   8.064   5.072   8.954 -0.2769 -0.0125  0.0603
  630ERGO   ROH 8739   7.673   2.719  10.097 -0.0061  0.0894 -0.0500
  630ERGO    R1 8740   7.549   2.704   9.843  0.0214  0.1001 -0.0643
  630ERGO    R2 8741   7.578   2.899   9.651  0.0674  0.0925 -0.0639
  630ERGO    R3 8742   7.656   2.690   9.496  0.0595  0.0809 -0.0522
  630ERGO    R4 8743   7.611   2.911   9.307  0.1394  0.0979 -0.0570
  630ERGO    R5 8744   7.523   2.711   9.298  0.1024  0.1131 -0.0793
  630ERGO    C1 8745   7.703   2.721   8.961  0.1738  0.0902 -0.0420
  630ERGO    C2 8746   7.859   2.795   8.570  0.1558  0.1456 -0.0210
  631ERGO   ROH 8747  10.075  10.402   9.565  0.0018  0.1552 -0.1725
  631ERGO    R1 8748  10.217  10.277   9.354  0.1708  0.1383 -0.0508
  631ERGO    R2 8749  10.129  10.282   9.092  0.1513 -0.2491 -0.0583
  631ERGO    R3 8750  10.377  10.383   9.045  0.0129  0.0552 -0.1620
  631ERGO    R4 8751  10.294  10.269   8.788  0.1738 -0.3447 -0.0421
  631ERGO    R5 8752  10.479  10.225   8.896  0.2388  0.0329  0.0109
  631ERGO    C1 8753  10.623  10.356   8.568  0.0570 -0.1145 -0.1300
  631ERGO    C2 8754  10.618  10.451   8.263  0.1957 -0.2093  0.0963
  632ERGO   ROH 8755   5.114   8.309   9.747 -0.0707 -0.0142  0.0663
  632ERGO    R1 8756   5.086   8.538   9.583  0.0212  0.0938  0.1984
  632ERGO    R2 8757   5.302   8.692   9.503  0.1048 -0.0481  0.1442
  632ERGO    R3 8758   5.203   8.644   9.255 -0.0902  0.1583  0.1793
  632ERGO    R4 8759   5.407   8.850   9.214  0.2126 -0.1424  0.1310
  632ERGO    R5 8760   5.199   8.858   9.150  0.1900  0.1919  0.2307
  632ERGO    C1 8761   5.374   8.897   8.813  0.0923 -0.0037  0.1563
  632ERGO    C2 8762   5.588   8.811   8.637  0.1838  0.1441 -0.0509
  633ERGO   ROH 8763  11.730  12.159   9.725  0.1627  0.0374 -0.1781
  633ERGO    R1 8764  11.696  11.974   9.513  0.1071  0.0866 -0.2124
  633ERGO    R2 8765  11.507  12.008   9.314  0.0039  0.0917 -0.1127
  633ERGO    R3 8766  11.722  11.981   9.150 -0.0702  0.1893 -0.2241
  633ERGO    R4 8767  11.491  11.983   8.970 -0.2002 -0.3490 -0.0777
  633ERGO    R5 8768  11.648  11.832   8.978  0.0143 -0.1252  0.0055
  633ERGO    C1 8769  11.684  11.943   8.615 -0.3886 -0.5142 -0.1620
  633ERGO    C2 8770  11.598  11.973   8.367 -0.2237 -0.0757  0.2042
  634ERGO   ROH 8771   9.613   4.937  10.114 -0.0603  0.1270  0.1094
  634ERGO    R1 8772   9.432   5.086   9.956 -0.0358  0.1330  0.0849
  634ERGO    R2 8773   9.509   5.307   9.808  0.0053  0.0883  0.0324
  634ERGO    R3 8774   9.394   5.169   9.604 -0.0304  0.0654  0.0694
  634ERGO    R4 8775   9.396   5.447   9.513  0.0857  0.0301 -0.0256
  634ERGO    R5 8776   9.223   5.315   9.522  0.0353  0.1024  0.0038
  634ERGO    C1 8777   9.221   5.399   9.150  0.0991 -0.0253 -0.0245
  634ERGO    C2 8778   9.327   5.275   8.786  0.0653  0.0539  0.2092
  635ERGO   ROH 8779   3.837  17.743   9.375  0.2312  0.0089 -0.0539
  635ERGO    R1 8780   3.751  17.576   9.164  0.0501 -0.0026  0.0256
  635ERGO    R2 8781   3.561  17.656   8.979  0.0475  0.0725  0.0458
  635ERGO    R3 8782   3.754  17.587   8.800 -0.0430 -0.1213  0.0237
  635ERGO    R4 8783   3.524  17.659   8.635  0.0746  0.2481  0.0448
  635ERGO    R5 8784   3.636  17.474   8.626 -0.1813  0.1057 -0.0233
  635ERGO    C1 8785   3.683  17.596   8.267  0.0054  0.1682  0.0233
  635ERGO    C2 8786   3.723  17.775   7.997  0.0917 -0.1369  0.0236
  636ERGO   ROH 8787   4.865  13.058   9.324  0.2570 -0.0705 -0.0652
  636ERGO    R1 8788   4.964  13.217   9.111  0.0482  0.0105 -0.1051
  636ERGO    R2 8789   5.152  13.124   8.931  0.1003  0.1808 -0.1440
  636ERGO    R3 8790   4.967  13.199   8.748 -0.0234 -0.0217 -0.1038
  636ERGO    R4 8791   5.206  13.138   8.590  0.0206  0.2688 -0.1528
  636ERGO    R5 8792   5.091  13.323   8.584 -0.1971  0.1361 -0.1188
  636ERGO    C1 8793   5.063  13.216   8.219 -0.1418  0.1299 -0.1203
  636ERGO    C2 8794   5.114  13.162   7.898  0.0762  0.0999  0.1724
  637ERGO   ROH 8795   9.848  17.653   9.898 -0.0088 -0.0829 -0.0501
  637ERGO    R1 8796   9.740  17.856   9.732  0.0587 -0.0230 -0.0220
  637ERGO    R2 8797   9.886  17.979   9.532  0.1143 -0.0116  0.0219
  637ERGO    R3 8798   9.677  17.902   9.377  0.1179  0.0654 -0.0207
  637ERGO    R4 8799   9.754  18.165   9.273  0.1174  0.1125  0.1089
  637ERGO    R5 8800   9.555  18.104   9.338  0.1184  0.0822  0.0738
  637ERGO    C1 8801   9.480  18.201   8.976  0.1226  0.2569  0.1196
  637ERGO    C2 8802   9.606  18.490   8.836 -0.1890  0.1050  0.1225
  638ERGO   ROH 8803   7.876   0.407   9.911  0.0038  0.0058  0.0214
  638ERGO    R1 8804   7.977   0.337   9.656 -0.0020 -0.0927  0.0441
  638ERGO    R2 8805   7.821   0.217   9.462 -0.0095 -0.1719  0.0887
  638ERGO    R3 8806   7.905   0.426   9.310 -0.0155 -0.2248  0.0149
  638ERGO    R4 8807   7.698   0.298   9.149 -0.2275 -0.0862  0.1962
  638ERGO    R5 8808   7.901   0.344   9.086 -0.2616 -0.2118  0.0194
  638ERGO    C1 8809   7.705   0.542   8.825 -0.3601 -0.0859  0.1895
  638ERGO    C2 8810   7.731   0.660   8.522 -0.0211 -0.2313  0.0694
  639ERGO   ROH 8811   2.581  12.283   9.521 -0.1341  0.1099  0.1275
  639ERGO    R1 8812   2.619  12.135   9.283  0.0845  0.1007  0.1666
  639ERGO    R2 8813   2.534  12.227   9.036 -0.0713 -0.0979  0.1464
  639ERGO    R3 8814   2.794  12.184   8.967 -0.0032  0.2854  0.1450
  639ERGO    R4 8815   2.656  12.233   8.713 -0.1071 -0.0275  0.1338
  639ERGO    R5 8816   2.781  12.061   8.762  0.1723  0.1836  0.1920
  639ERGO    C1 8817   2.971  12.196   8.460 -0.0639  0.3733  0.1250
  639ERGO    C2 8818   3.203  12.252   8.289 -0.2938 -0.4695 -0.2260
  640ERGO   ROH 8819   3.146  16.797   9.723  0.0187  0.0026 -0.0057
  640ERGO    R1 8820   3.104  16.552   9.588 -0.0606 -0.0951  0.1942
  640ERGO    R2 8821   2.876  16.400   9.623 -0.2442  0.1556  0.0991
  640ERGO    R3 8822   2.861  16.417   9.353  0.0721 -0.1018  0.0587
  640ERGO    R4 8823   2.640  16.240   9.428 -0.2934  0.3159  0.0247
  640ERGO    R5 8824   2.797  16.197   9.283 -0.1960 -0.0835  0.2281
  640ERGO    C1 8825   2.489  16.163   9.060 -0.0252  0.1677 -0.0566
  640ERGO    C2 8826   2.209  16.061   8.945  0.0997  0.0954 -0.2424
  641ERGO   ROH 8827  10.904   8.665   9.708 -0.1782  0.0095  0.0462
  641ERGO    R1 8828  10.903   8.479   9.494 -0.1048  0.0096  0.0450
  641ERGO    R2 8829  10.737   8.506   9.275 -0.0353  0.0068 -0.0116
  641ERGO    R3 8830  10.970   8.488   9.137  0.0118  0.0132  0.0672
  641ERGO    R4 8831  10.770   8.362   8.963  0.1037 -0.1161  0.0587
  641ERGO    R5 8832  10.959   8.275   9.028  0.1070 -0.0345  0.1532
  641ERGO    C1 8833  11.008   8.262   8.650  0.2287 -0.1815  0.1734
  641ERGO    C2 8834  10.899   8.361   8.366 -0.1028  0.2209 -0.1846
  642ERGO   ROH 8835  11.275   0.271   9.917 -0.0841  0.2067 -0.1337
  642ERGO    R1 8836  11.262   0.346   9.645  0.0355  0.1652 -0.1520
  642ERGO    R2 8837  11.421   0.230   9.451 -0.0928 -0.0816 -0.1154
  642ERGO    R3 8838  11.182   0.184   9.329 -0.1451  0.1958 -0.1224
  642ERGO    R4 8839  11.378   0.180   9.111 -0.1118 -0.2271 -0.0918
  642ERGO    R5 8840  11.197   0.302   9.121  0.0627  0.0481 -0.1928
  642ERGO    C1 8841  11.129   0.108   8.799 -0.1720 -0.0514 -0.0846
  642ERGO    C2 8842  11.156  -0.043   8.538  0.0278 -0.1614 -0.1395
  643ERGO   ROH 8843   1.279  18.037  10.172 -0.1142  0.0392 -0.2246
  643ERGO    R1 8844   1.316  18.068   9.893 -0.1278 -0.0827 -0.2408
  643ERGO    R2 8845   1.567  18.082   9.777 -0.1331  0.0482 -0.2378
  643ERGO    R3 8846   1.472  17.878   9.625  0.0301 -0.1092 -0.1323
  643ERGO    R4 8847   1.673  18.009   9.456 -0.3141  0.1882 -0.3306
  643ERGO    R5 8848   1.465  17.967   9.403 -0.3086 -0.1284 -0.1367
  643ERGO    C1 8849   1.645  17.775   9.127 -0.2662  0.1219 -0.2858
  643ERGO    C2 8850   1.774  17.520   8.865  0.1305 -0.0641  0.2735
  644ERGO   ROH 8851   4.509  14.494   9.528 -0.0671 -0.2850 -0.1567
  644ERGO    R1 8852   4.598  14.599   9.281  0.0246  0.0260  0.0029
  644ERGO    R2 8853   4.509  14.503   9.037  0.3050  0.1548 -0.1532
  644ERGO    R3 8854   4.447  14.764   8.993  0.0860  0.1390  0.0334
  644ERGO    R4 8855   4.424  14.637   8.730  0.2920  0.3160 -0.0804
  644ERGO    R5 8856   4.543  14.812   8.780  0.1212  0.3907  0.1001
  644ERGO    C1 8857   4.317  14.960   8.510  0.0787  0.3950  0.1371
  644ERGO    C2 8858   4.199  15.126   8.215  0.4814 -0.0134  0.2194
  645ERGO   ROH 8859  14.553  11.941  10.096  0.2395 -0.0348 -0.0388
  645ERGO    R1 8860  14.520  11.913   9.817  0.1260 -0.0624 -0.0229
  645ERGO    R2 8861  14.381  12.097   9.664  0.0482 -0.0875  0.0179
  645ERGO    R3 8862  14.611  12.102   9.519 -0.0121 -0.0818 -0.0786
  645ERGO    R4 8863  14.416  12.245   9.354 -0.0433  0.0610  0.0775
  645ERGO    R5 8864  14.539  12.076   9.292 -0.1184  0.0548 -0.0620
  645ERGO    C1 8865  14.652  12.336   9.037 -0.1530  0.1527  0.0216
  645ERGO    C2 8866  14.646  12.381   8.711 -0.0350  0.0265  0.3474
  646ERGO   ROH 8867  17.422  15.312  10.177  0.0917  0.0914 -0.0099
  646ERGO    R1 8868  17.484  15.091  10.011  0.0871  0.1339 -0.0683
  646ERGO    R2 8869  17.428  14.830  10.083  0.2498  0.1018 -0.0559
  646ERGO    R3 8870  17.298  14.826   9.844  0.1012  0.0650  0.0248
  646ERGO    R4 8871  17.316  14.545   9.924  0.3290  0.0596 -0.0361
  646ERGO    R5 8872  17.382  14.630   9.735  0.1564  0.1365 -0.0630
  646ERGO    C1 8873  17.129  14.374   9.607  0.2357  0.0003  0.0513
  646ERGO    C2 8874  17.022  14.145   9.537 -0.2826  0.4071 -0.3604
  647ERGO   ROH 8875   7.640  11.716   9.693  0.0021 -0.4367  0.0273
  647ERGO    R1 8876   7.822  11.766   9.482  0.0008 -0.2119  0.0775
  647ERGO    R2 8877   7.966  11.565   9.360  0.0703 -0.0690 -0.0729
  647ERGO    R3 8878   7.857  11.668   9.133  0.0568  0.0773 -0.0015
  647ERGO    R4 8879   8.096  11.524   9.042 -0.0992 -0.1112 -0.1385
  647ERGO    R5 8880   8.046  11.732   9.001  0.0590 -0.0540 -0.0680
  647ERGO    C1 8881   8.069  11.597   8.645 -0.2105  0.0016 -0.1096
  647ERGO    C2 8882   8.087  11.414   8.312  0.1123  0.1697  0.1817
  648ERGO   ROH 8883  16.884   9.746   9.728 -0.5255 -0.4580 -0.0184
  648ERGO    R1 8884  16.785   9.694   9.468 -0.2151 -0.0515 -0.2301
  648ERGO    R2 8885  16.831   9.863   9.255  0.3546  0.1066 -0.0022
  648ERGO    R3 8886  16.926   9.637   9.138  0.2049  0.0832 -0.0795
  648ERGO    R4 8887  16.919   9.835   8.922  0.2159  0.1225 -0.0402
  648ERGO    R5 8888  16.828   9.637   8.919  0.1233  0.1668 -0.0416
  648ERGO    C1 8889  17.059   9.607   8.618 -0.0057  0.1097 -0.1350
  648ERGO    C2 8890  17.074   9.610   8.349 -0.4397  0.0546  0.1954
  649ERGO   ROH 8891  13.636   7.295   9.933 -0.0033 -0.1364  0.0439
  649ERGO    R1 8892  13.758   7.219   9.689 -0.0515 -0.1234  0.0148
  649ERGO    R2 8893  13.613   7.172   9.458 -0.0870  0.0172  0.0035
  649ERGO    R3 8894  13.784   7.355   9.353 -0.0014 -0.0328  0.0562
  649ERGO    R4 8895  13.638   7.248   9.122 -0.0535  0.1127  0.0279
  649ERGO    R5 8896  13.855   7.258   9.146 -0.0515  0.0011  0.0262
  649ERGO    C1 8897  13.814   7.464   8.827  0.0463  0.1213  0.0915
  649ERGO    C2 8898  13.925   7.453   8.561 -0.4534  0.1100 -0.0841
  650ERGO   ROH 8899  13.554  15.548   9.789 -0.4341 -0.0955 -0.0178
  650ERGO    R1 8900  13.744  15.525   9.582 -0.3168 -0.1241  0.0923
  650ERGO    R2 8901  13.679  15.433   9.329 -0.1885 -0.0934  0.0492
  650ERGO    R3 8902  13.793  15.667   9.250 -0.0894 -0.1142  0.1277
  650ERGO    R4 8903  13.860  15.476   9.038  0.0940 -0.1518  0.2125
  650ERGO    R5 8904  14.000  15.601   9.149  0.0032 -0.1506  0.3320
  650ERGO    C1 8905  14.073  15.720   8.794  0.3517 -0.2056  0.3812
  650ERGO    C2 8906  14.104  15.981   8.463  0.0742  0.1802 -0.0857
  651ERGO   ROH 8907   2.130  12.311   9.567 -0.2226  0.2926 -0.0304
  651ERGO    R1 8908   2.181  12.185   9.319 -0.1503  0.2180  0.0223
  651ERGO    R2 8909   1.991  12.034   9.186 -0.1786  0.3510 -0.0847
  651ERGO    R3 8910   2.047  12.204   8.981  0.0961  0.2775 -0.0757
  651ERGO    R4 8911   1.966  11.953   8.851 -0.1621  0.3574 -0.0880
  651ERGO    R5 8912   2.150  12.065   8.816 -0.0106  0.1387 -0.0316
  651ERGO    C1 8913   2.004  12.065   8.463  0.1054  0.2919 -0.0814
  651ERGO    C2 8914   1.878  12.046   8.071 -0.0228 -0.0768 -0.0388
  652ERGO   ROH 8915   6.611  13.340   9.257  0.0479 -0.0246  0.0313
  652ERGO    R1 8916   6.591  13.171   9.031 -0.0508  0.0432 -0.0122
  652ERGO    R2 8917   6.454  13.244   8.802  0.0727  0.2221 -0.0349
  652ERGO    R3 8918   6.690  13.185   8.681  0.0523  0.0330  0.0172
  652ERGO    R4 8919   6.494  13.187   8.464  0.1110  0.2212 -0.0297
  652ERGO    R5 8920   6.632  13.025   8.512 -0.0390  0.1000 -0.0121
  652ERGO    C1 8921   6.738  13.097   8.153  0.1142  0.0432  0.0223
  652ERGO    C2 8922   6.827  13.247   7.779  0.1140  0.2151  0.1182
  653ERGO   ROH 8923   0.420   8.686   9.601 -0.1288  0.1201 -0.0806
  653ERGO    R1 8924   0.324   8.675   9.335 -0.2634  0.0461 -0.0306
  653ERGO    R2 8925   0.477   8.580   9.126 -0.2455  0.2997 -0.1373
  653ERGO    R3 8926   0.264   8.416   9.087 -0.0464  0.0120 -0.0503
  653ERGO    R4 8927   0.371   8.463   8.818 -0.3432  0.3506 -0.1226
  653ERGO    R5 8928   0.166   8.494   8.883 -0.3401  0.0101  0.0834
  653ERGO    C1 8929   0.109   8.242   8.602 -0.2132  0.1101 -0.0323
  653ERGO    C2 8930   0.050   8.089   8.352  0.0165  0.2481 -0.2075
  654ERGO   ROH 8931   0.593  15.828  10.381 -0.0795 -0.1064  0.0664
  654ERGO    R1 8932   0.682  15.676  10.160 -0.1766 -0.0141 -0.0371
  654ERGO    R2 8933   0.606  15.732   9.901 -0.0205  0.3069 -0.0164
  654ERGO    R3 8934   0.874  15.737   9.857  0.0045  0.0356  0.0861
  654ERGO    R4 8935   0.761  15.630   9.608 -0.0332  0.3719 -0.0464
  654ERGO    R5 8936   0.917  15.539   9.729 -0.1785  0.0889 -0.0634
  654ERGO    C1 8937   1.103  15.576   9.398 -0.0171  0.1551  0.0324
  654ERGO    C2 8938   1.215  15.574   9.078 -0.0719 -0.1608  0.1692
  655ERGO   ROH 8939   5.846  16.611   9.286 -0.2036  0.1490 -0.1023
  655ERGO    R1 8940   5.841  16.625   9.003 -0.0026  0.2062 -0.1056
  655ERGO    R2 8941   6.067  16.679   8.852  0.1539  0.0314  0.0504
  655ERGO    R3 8942   5.999  16.447   8.727  0.0242  0.1125 -0.0279
  655ERGO    R4 8943   6.090  16.622   8.512  0.1246  0.1178  0.0346
  655ERGO    R5 8944   5.900  16.517   8.521  0.0702  0.2272 -0.0054
  655ERGO    C1 8945   6.040  16.372   8.197 -0.0143  0.2439 -0.0480
  655ERGO    C2 8946   5.945  16.247   7.851  0.0948 -0.2617 -0.1315
  656ERGO   ROH 8947  12.045  10.532   9.901  0.0307 -0.0753 -0.2211
  656ERGO    R1 8948  12.128  10.672   9.669  0.0249  0.0397 -0.1539
  656ERGO    R2 8949  12.281  10.554   9.472  0.0782  0.1591 -0.1808
  656ERGO    R3 8950  12.080  10.640   9.310  0.0793  0.1752 -0.1745
  656ERGO    R4 8951  12.258  10.489   9.133 -0.0113  0.0283 -0.1504
  656ERGO    R5 8952  12.189  10.693   9.103  0.0638  0.0480 -0.2189
  656ERGO    C1 8953  12.056  10.531   8.784 -0.0625 -0.0330 -0.1269
  656ERGO    C2 8954  12.029  10.359   8.500  0.1858 -0.0691  0.3530
  657ERGO   ROH 8955   8.649  15.834   9.133 -0.0905 -0.1338  0.0235
  657ERGO    R1 8956   8.804  15.843   8.896 -0.0286  0.0422  0.0695
  657ERGO    R2 8957   8.738  15.699   8.670  0.1804 -0.0014  0.0368
  657ERGO    R3 8958   8.751  15.942   8.549 -0.0242  0.0247  0.0634
  657ERGO    R4 8959   8.676  15.756   8.335  0.0212 -0.0010  0.0655
  657ERGO    R5 8960   8.844  15.896   8.333 -0.0698  0.1122  0.0231
  657ERGO    C1 8961   8.653  16.018   8.027 -0.2635  0.0239  0.1069
  657ERGO    C2 8962   8.580  16.006   7.677 -0.1349 -0.0389  0.3885
  658ERGO   ROH 8963  12.200   1.257   9.721 -0.2420 -0.0577 -0.0506
  658ERGO    R1 8964  12.315   1.333   9.474 -0.2980  0.0193 -0.0521
  658ERGO    R2 8965  12.385   1.149   9.279 -0.1930  0.0699 -0.0544
  658ERGO    R3 8966  12.228   1.304   9.122 -0.2908 -0.0239 -0.0523
  658ERGO    R4 8967  12.362   1.122   8.936 -0.0313  0.1693 -0.0754
  658ERGO    R5 8968  12.357   1.339   8.924 -0.2422  0.1785  0.0073
  658ERGO    C1 8969  12.200   1.252   8.588 -0.0289  0.1390 -0.0857
  658ERGO    C2 8970  12.184   1.156   8.386 -0.5677  0.1404  0.1084
  659ERGO   ROH 8971   1.826   2.066   9.354 -0.1516 -0.0309  0.0885
  659ERGO    R1 8972   1.926   2.060   9.090 -0.0030 -0.0459  0.1452
  659ERGO    R2 8973   1.821   2.215   8.887 -0.0612 -0.2527  0.0220
  659ERGO    R3 8974   2.078   2.296   8.859 -0.1300  0.0114  0.1164
  659ERGO    R4 8975   1.951   2.364   8.604 -0.0079 -0.5789 -0.1311
  659ERGO    R5 8976   2.132   2.246   8.631  0.1233 -0.3242  0.2361
  659ERGO    C1 8977   2.269   2.527   8.413 -0.0415 -0.5208 -0.1317
  659ERGO    C2 8978   2.452   2.803   8.339  0.0870  0.0683 -0.1710
  660ERGO   ROH 8979   4.891   4.594   9.456  0.1619  0.1674 -0.1028
  660ERGO    R1 8980   4.717   4.443   9.292  0.0978  0.1132  0.0140
  660ERGO    R2 8981   4.561   4.558   9.095  0.0140  0.0494  0.0441
  660ERGO    R3 8982   4.683   4.374   8.936 -0.0478  0.0047  0.0478
  660ERGO    R4 8983   4.428   4.430   8.803 -0.0412  0.0723  0.0588
  660ERGO    R5 8984   4.504   4.234   8.859 -0.0944  0.0521  0.0661
  660ERGO    C1 8985   4.465   4.183   8.483 -0.1313  0.0436  0.0709
  660ERGO    C2 8986   4.323   3.907   8.312  0.0802 -0.0487  0.0912
  661ERGO   ROH 8987  14.064   9.201  10.025 -0.1561  0.0533  0.0923
  661ERGO    R1 8988  14.247   9.183   9.810 -0.1560  0.0291  0.0945
  661ERGO    R2 8989  14.405   8.960   9.766 -0.2126 -0.0059  0.0748
  661ERGO    R3 8990  14.292   8.970   9.519 -0.2037  0.0480  0.0727
  661ERGO    R4 8991  14.537   8.815   9.481 -0.2692 -0.0608  0.0761
  661ERGO    R5 8992  14.478   8.992   9.369 -0.1894 -0.0313  0.0771
  661ERGO    C1 8993  14.509   8.741   9.083 -0.2938 -0.0421  0.0747
  661ERGO    C2 8994  14.401   8.675   8.783  0.0605 -0.1250 -0.2126
  662ERGO   ROH 8995   6.245   9.828   9.434  0.1834 -0.0827  0.0132
  662ERGO    R1 8996   6.149   9.705   9.198  0.2582 -0.2259  0.0571
  662ERGO    R2 8997   6.122   9.842   8.959 -0.0363 -0.2669  0.0679
  662ERGO    R3 8998   6.276   9.639   8.863  0.2129 -0.0535  0.0036
  662ERGO    R4 8999   6.113   9.722   8.635  0.1001 -0.1764  0.0291
  662ERGO    R5 9000   6.132   9.520   8.713  0.3484 -0.1843 -0.0308
  662ERGO    C1 9001   6.252   9.463   8.356  0.4135  0.0766 -0.0539
  662ERGO    C2 9002   6.357   9.424   8.084  0.2043  0.1635  0.2480
  663ERGO   ROH 9003  10.165  16.791   8.115 -0.0092 -0.1700  0.0469
  663ERGO    R1 9004  10.291  16.921   8.333 -0.0519 -0.0451 -0.0014
  663ERGO    R2 9005  10.151  17.068   8.520 -0.1091 -0.0705 -0.0207
  663ERGO    R3 9006  10.278  16.903   8.696  0.0013  0.0403  0.0045
  663ERGO    R4 9007  10.118  17.082   8.864 -0.0546  0.0077 -0.0189
  663ERGO    R5 9008  10.332  17.044   8.881 -0.0344  0.1166 -0.0447
  663ERGO    C1 9009  10.217  16.936   9.229  0.0809  0.1572  0.0058
  663ERGO    C2 9010  10.348  16.813   9.528 -0.1753  0.3609  0.4556
  664ERGO   ROH 9011   9.297   3.952  10.092  0.0027  0.0858 -0.0559
  664ERGO    R1 9012   9.301   3.984   9.811 -0.0993  0.0966 -0.0557
  664ERGO    R2 9013   9.072   3.971   9.656 -0.1661  0.2194  0.0434
  664ERGO    R3 9014   9.157   4.214   9.569 -0.0833  0.1799  0.0100
  664ERGO    R4 9015   8.982   4.114   9.355 -0.0142  0.1311 -0.0459
  664ERGO    R5 9016   9.187   4.185   9.333  0.0177  0.0921  0.0262
  664ERGO    C1 9017   9.009   4.426   9.097  0.1519  0.0426 -0.1293
  664ERGO    C2 9018   9.000   4.427   8.689 -0.1596  0.0253  0.0896
  665ERGO   ROH 9019  10.251   2.411   9.722  0.1669 -0.0441 -0.0710
  665ERGO    R1 9020  10.231   2.499   9.454 -0.0447 -0.2138 -0.1133
  665ERGO    R2 9021  10.437   2.631   9.324 -0.2873  0.0569 -0.2313
  665ERGO    R3 9022  10.405   2.433   9.140 -0.0138 -0.0963 -0.1219
  665ERGO    R4 9023  10.531   2.652   8.992 -0.3477  0.0186 -0.2513
  665ERGO    R5 9024  10.347   2.549   8.939 -0.2051 -0.2858 -0.1808
  665ERGO    C1 9025  10.555   2.479   8.626 -0.1261 -0.1476 -0.1601
  665ERGO    C2 9026  10.732   2.611   8.378  0.0685 -0.3318  0.0833
  666ERGO   ROH 9027  16.845   0.994   9.813  0.2353 -0.0653 -0.0382
  666ERGO    R1 9028  16.741   1.003   9.549  0.2743 -0.1754 -0.0584
  666ERGO    R2 9029  16.632   1.233   9.440  0.0023 -0.2994 -0.0606
  666ERGO    R3 9030  16.813   1.185   9.243  0.1059 -0.0548 -0.0273
  666ERGO    R4 9031  16.621   1.372   9.124  0.0961 -0.0117  0.0599
  666ERGO    R5 9032  16.682   1.180   9.043  0.1976  0.0845 -0.0916
  666ERGO    C1 9033  16.784   1.409   8.755  0.2479  0.3854  0.1613
  666ERGO    C2 9034  16.984   1.781   8.584 -0.1534 -0.1392  0.0666
  667ERGO   ROH 9035   9.999   6.755  10.109  0.0938 -0.0653 -0.1340
  667ERGO    R1 9036  10.164   6.834   9.893  0.1170  0.0206 -0.0849
  667ERGO    R2 9037  10.098   6.784   9.630  0.2158 -0.0029 -0.1024
  667ERGO    R3 9038  10.134   7.052   9.603  0.0961  0.0156 -0.0877
  667ERGO    R4 9039  10.061   6.959   9.334  0.0314  0.0069 -0.0750
  667ERGO    R5 9040  10.237   7.077   9.388  0.0073  0.0757 -0.1273
  667ERGO    C1 9041  10.073   7.313   9.137 -0.1882  0.0299 -0.0454
  667ERGO    C2 9042   9.773   7.470   8.914  0.1622  0.2447 -0.0091
  668ERGO   ROH 9043  11.980  15.368   9.516 -0.3201 -0.0174  0.0323
  668ERGO    R1 9044  12.049  15.552   9.313 -0.4197  0.0341  0.0437
  668ERGO    R2 9045  12.258  15.509   9.137 -0.2344  0.2698  0.1946
  668ERGO    R3 9046  12.066  15.551   8.949 -0.1663 -0.0220  0.0552
  668ERGO    R4 9047  12.320  15.589   8.807 -0.1230  0.1839  0.1945
  668ERGO    R5 9048  12.153  15.729   8.815 -0.2783  0.0086  0.0268
  668ERGO    C1 9049  12.176  15.675   8.438  0.0059 -0.1403  0.0634
  668ERGO    C2 9050  12.449  15.739   8.125  0.2189  0.1896  0.1248
  669ERGO   ROH 9051  11.976  16.803   9.759 -0.3669  0.1351 -0.1013
  669ERGO    R1 9052  12.211  16.749   9.610 -0.2944  0.1536  0.0068
  669ERGO    R2 9053  12.258  16.504   9.492 -0.2233  0.1634  0.0287
  669ERGO    R3 9054  12.290  16.655   9.268 -0.1240  0.1629  0.0409
  669ERGO    R4 9055  12.450  16.415   9.218 -0.1841  0.1000  0.0759
  669ERGO    R5 9056  12.519  16.621   9.205 -0.1129  0.0868  0.0988
  669ERGO    C1 9057  12.592  16.505   8.850 -0.0680  0.0626  0.1148
  669ERGO    C2 9058  12.803  16.471   8.630 -0.2472  0.0425  0.3357
  670ERGO   ROH 9059   2.739   1.918   9.460 -0.0404  0.0065 -0.0044
  670ERGO    R1 9060   2.880   1.918   9.214 -0.0602 -0.0235 -0.0155
  670ERGO    R2 9061   2.956   1.685   9.086 -0.0253 -0.0375  0.0337
  670ERGO    R3 9062   2.822   1.795   8.877 -0.0623 -0.1135  0.0170
  670ERGO    R4 9063   2.961   1.564   8.762  0.0692 -0.0498  0.0394
  670ERGO    R5 9064   2.970   1.770   8.691 -0.0290 -0.0455  0.0321
  670ERGO    C1 9065   2.838   1.597   8.377  0.0895 -0.1282  0.0270
  670ERGO    C2 9066   2.613   1.520   8.130 -0.1452 -0.1176  0.0775
  671ERGO   ROH 9067  12.708   7.680  10.067 -0.2653 -0.1273 -0.0047
  671ERGO    R1 9068  12.860   7.739   9.835 -0.2368 -0.0180  0.0408
  671ERGO    R2 9069  12.827   7.603   9.597 -0.1598  0.0463 -0.0095
  671ERGO    R3 9070  12.792   7.852   9.496 -0.2039  0.0702  0.0643
  671ERGO    R4 9071  12.804   7.678   9.260 -0.3958  0.1218  0.0213
  671ERGO    R5 9072  12.926   7.855   9.297 -0.3496  0.0972 -0.0321
  671ERGO    C1 9073  12.758   7.956   8.969 -0.5747  0.1881  0.1086
  671ERGO    C2 9074  12.779   8.001   8.600  0.2706  0.2924 -0.2389
  672ERGO   ROH 9075  18.019  10.576   9.837  0.2719  0.0992  0.0691
  672ERGO    R1 9076  18.065  10.676   9.577  0.2820  0.0827  0.0664
  672ERGO    R2 9077  17.887  10.640   9.369  0.3626 -0.0584  0.0302
  672ERGO    R3 9078  17.902  10.911   9.350  0.2060 -0.0500 -0.0206
  672ERGO    R4 9079  17.828  10.821   9.080  0.0625 -0.1350  0.0378
  672ERGO    R5 9080  17.997  10.949   9.133  0.0370 -0.0341 -0.0976
  672ERGO    C1 9081  17.809  11.180   8.895 -0.2594 -0.1716 -0.0053
  672ERGO    C2 9082  17.917  11.301   8.542  0.0314 -0.1706 -0.0068
  673ERGO   ROH 9083   8.211  13.506   8.986 -0.2643 -0.0129 -0.1728
  673ERGO    R1 9084   8.383  13.665   8.828 -0.1192 -0.1902 -0.1989
  673ERGO    R2 9085   8.450  13.598   8.569 -0.2462 -0.2477 -0.2269
  673ERGO    R3 9086   8.360  13.849   8.515  0.0116 -0.1438 -0.1788
  673ERGO    R4 9087   8.473  13.753   8.261 -0.2142 -0.2520 -0.2252
  673ERGO    R5 9088   8.524  13.939   8.364  0.0386 -0.3170 -0.2449
  673ERGO    C1 9089   8.403  14.079   8.031  0.0464 -0.1569 -0.1791
  673ERGO    C2 9090   8.439  14.490   7.938 -0.3581 -0.3073  0.0041
  674ERGO   ROH 9091  16.716   8.523   9.932 -0.0409  0.1375  0.0507
  674ERGO    R1 9092  16.670   8.381   9.692  0.1489  0.1803 -0.0130
  674ERGO    R2 9093  16.442   8.231   9.650  0.3785 -0.1745 -0.0447
  674ERGO    R3 9094  16.422   8.384   9.426  0.0898 -0.0879  0.0358
  674ERGO    R4 9095  16.290   8.131   9.356  0.3574 -0.2147 -0.0201
  674ERGO    R5 9096  16.451   8.229   9.246  0.1909  0.0318 -0.0522
  674ERGO    C1 9097  16.183   8.216   8.975  0.0741 -0.1569  0.0697
  674ERGO    C2 9098  16.115   8.299   8.651 -0.1867  0.2654 -0.0048
  675PSPI    C1 9099   5.230   4.188   5.896 -0.0679  0.0098  0.0276
  675PSPI    C2 9100   5.403   4.376   5.587 -0.2150  0.2266  0.0751
  675PSPI    C3 9101   5.054   4.507   5.731 -0.2314  0.0230  0.2254
  675PSPI   PO4 9102   5.368   4.171   6.050  0.2578  0.2722 -0.3183
  675PSPI   GL1 9103   5.485   4.343   6.397  0.0682 -0.0883 -0.0675
  675PSPI   GL2 9104   5.257   4.428   6.633 -0.0984 -0.0310 -0.2511
  675PSPI   C1A 9105   5.648   4.220   6.823 -0.3133 -0.2964 -0.1664
  675PSPI   C2A 9106   5.511   4.129   7.142 -0.2267  0.0521  0.0433
  675PSPI   C3A 9107   5.411   3.933   7.504  0.0039 -0.2156 -0.0433
  675PSPI   C4A 9108   5.410   4.008   7.991 -0.4363  0.3089 -0.0200
  675PSPI   C1B 9109   5.109   4.279   6.953 -0.0238  0.0366  0.0697
  675PSPI   C2B 9110   4.920   4.165   7.368 -0.2060  0.2555  0.1776
  675PSPI   C3B 9111   4.876   4.276   7.741  0.2230  0.0616  0.2257
  675PSPI   C4B 9112   4.796   4.112   8.030 -0.0919 -0.0188  0.0280
  676PSPI    C1 9113  13.173  14.006   5.671 -0.0102  0.0020 -0.0950
  676PSPI    C2 9114  13.537  13.841   5.653  0.0521  0.1233  0.0336
  676PSPI    C3 9115  13.402  14.060   5.347  0.0388 -0.0197 -0.0642
  676PSPI   PO4 9116  13.145  13.970   5.937 -0.2588 -0.0294  0.0764
  676PSPI   GL1 9117  13.058  13.663   6.255 -0.0819 -0.2461  0.3391
  676PSPI   GL2 9118  13.429  13.876   6.296 -0.1147 -0.3227  0.0886
  676PSPI   C1A 9119  12.827  13.642   6.577  0.0951  0.0413  0.0294
  676PSPI   C2A 9120  12.938  13.518   7.024 -0.3266 -0.3455 -0.1188
  676PSPI   C3A 9121  12.781  13.477   7.329  0.0827 -0.0835 -0.2172
  676PSPI   C4A 9122  12.617  13.804   7.645 -0.0739 -0.2359  0.2329
  676PSPI   C1B 9123  13.405  13.577   6.612  0.1720 -0.0477  0.0728
  676PSPI   C2B 9124  13.521  13.208   6.885 -0.0533 -0.1364  0.0710
  676PSPI   C3B 9125  13.478  13.014   7.297 -0.0394 -0.1602  0.2772
  676PSPI   C4B 9126  13.475  12.585   7.433  0.2325  0.0663 -0.0696
  677PSPI    C1 9127  15.711   3.580   5.994  0.0827  0.1163  0.1987
  677PSPI    C2 9128  16.090   3.707   6.012  0.2358 -0.2885 -0.0372
  677PSPI    C3 9129  15.977   3.454   5.724 -0.2130 -0.1880  0.0424
  677PSPI   PO4 9130  15.625   3.579   6.344  0.0263 -0.2365  0.1349
  677PSPI   GL1 9131  15.618   3.476   6.724 -0.0352 -0.2624  0.2503
  677PSPI   GL2 9132  15.739   3.709   6.930  0.2001  0.1701  0.1607
  677PSPI   C1A 9133  15.568   3.153   7.123  0.1180 -0.4898  0.0977
  677PSPI   C2A 9134  15.847   3.210   7.401 -0.1111  0.1053 -0.0192
  677PSPI   C3A 9135  16.014   3.073   7.798 -0.2420 -0.5355 -0.1281
  677PSPI   C4A 9136  16.176   3.137   8.203 -0.1875 -0.0185 -0.1151
  677PSPI   C1B 9137  15.770   3.769   7.379  0.0700 -0.2451  0.2374
  677PSPI   C2B 9138  15.775   3.557   7.795 -0.3257 -0.1636  0.3035
  677PSPI   C3B 9139  15.722   3.385   8.195  0.0688 -0.0993 -0.0496
  677PSPI   C4B 9140  15.615   3.056   8.222  0.0267 -0.0826  0.0715
  678PSPI    C1 9141   8.008   6.178   5.813  0.1266  0.0835  0.2675
  678PSPI    C2 9142   8.247   6.092   5.505  0.1922 -0.0356  0.3509
  678PSPI    C3 9143   7.870   5.959   5.508  0.0152  0.4336  0.0608
  678PSPI   PO4 9144   8.091   6.080   6.030 -0.1004  0.1638 -0.2279
  678PSPI   GL1 9145   8.081   6.264   6.417  0.2164  0.1245  0.0398
  678PSPI   GL2 9146   7.876   6.537   6.316  0.0595  0.1777 -0.3044
  678PSPI   C1A 9147   7.768   6.201   6.759  0.1958 -0.2775  0.1870
  678PSPI   C2A 9148   7.723   5.873   7.146  0.0280  0.0122  0.0938
  678PSPI   C3A 9149   7.779   5.928   7.676 -0.0347 -0.0874  0.0861
  678PSPI   C4A 9150   7.851   5.802   8.105 -0.0557 -0.1499  0.2234
  678PSPI   C1B 9151   7.921   6.779   6.675 -0.1195 -0.1388 -0.0333
  678PSPI   C2B 9152   7.873   6.764   7.168  0.2108  0.1918  0.0040
  678PSPI   C3B 9153   7.817   6.698   7.535  0.0696  0.2864  0.1270
  678PSPI   C4B 9154   7.717   6.847   7.940 -0.0024 -0.1128  0.3368
  679PSPI    C1 9155  16.017  14.186   6.085  0.2558  0.0484 -0.0634
  679PSPI    C2 9156  15.833  14.086   5.745  0.1828 -0.0932  0.0171
  679PSPI    C3 9157  16.091  14.391   5.750  0.3817 -0.2535 -0.2241
  679PSPI   PO4 9158  15.815  14.027   6.325 -0.1583  0.2395  0.0902
  679PSPI   GL1 9159  15.609  13.859   6.708  0.1117  0.2989 -0.2262
  679PSPI   GL2 9160  15.595  13.599   6.766 -0.0217 -0.2364  0.2629
  679PSPI   C1A 9161  15.768  14.037   7.089 -0.2192 -0.1281 -0.1096
  679PSPI   C2A 9162  15.802  13.915   7.499  0.0978  0.0157 -0.1284
  679PSPI   C3A 9163  15.901  13.839   7.904  0.4888 -0.0051  0.0695
  679PSPI   C4A 9164  15.984  13.881   8.371  0.2510 -0.0223  0.0637
  679PSPI   C1B 9165  15.832  13.400   7.028 -0.2736 -0.0846 -0.0403
  679PSPI   C2B 9166  15.804  13.355   7.411  0.1874  0.3176  0.1265
  679PSPI   C3B 9167  15.679  13.129   7.824  0.0140 -0.0034  0.1814
  679PSPI   C4B 9168  15.867  12.984   8.205  0.0748  0.0447  0.0823
  680PSPI    C1 9169  11.866   1.765   5.720 -0.0085 -0.1374  0.0049
  680PSPI    C2 9170  12.259   1.798   5.791  0.0379 -0.1618 -0.2334
  680PSPI    C3 9171  12.029   2.126   5.779  0.0292 -0.1571  0.0217
  680PSPI   PO4 9172  11.793   1.520   5.821 -0.0760  0.0303 -0.1805
  680PSPI   GL1 9173  11.878   1.353   6.132  0.1315 -0.0178  0.0836
  680PSPI   GL2 9174  11.760   1.031   6.130  0.1790  0.0085 -0.1706
  680PSPI   C1A 9175  11.844   1.338   6.525 -0.1056  0.0868  0.1993
  680PSPI   C2A 9176  11.546   1.324   6.908  0.0416 -0.0117 -0.0303
  680PSPI   C3A 9177  11.244   1.570   7.295 -0.0180  0.0498 -0.2136
  680PSPI   C4A 9178  10.809   1.629   7.207 -0.0571  0.0405 -0.1689
  680PSPI   C1B 9179  11.461   1.029   6.402  0.5326 -0.1143 -0.2541
  680PSPI   C2B 9180  11.382   0.872   6.685  0.0282 -0.1190  0.1767
  680PSPI   C3B 9181  11.451   0.572   6.886 -0.1396  0.2840  0.2322
  680PSPI   C4B 9182  11.533   0.337   7.200 -0.1412  0.1535 -0.2915
  681PSPI    C1 9183  16.108  16.769   6.504 -0.0855 -0.1223  0.0154
  681PSPI    C2 9184  16.325  16.884   6.188 -0.0659  0.0356  0.0853
  681PSPI    C3 9185  16.005  16.649   6.137 -0.0621  0.0598 -0.0518
  681PSPI   PO4 9186  16.293  16.760   6.674  0.0548  0.0255 -0.1502
  681PSPI   GL1 9187  16.159  16.541   7.030 -0.0284 -0.2456  0.0326
  681PSPI   GL2 9188  16.167  16.315   7.131  0.0733  0.1175 -0.0997
  681PSPI   C1A 9189  15.837  16.737   7.358 -0.0414  0.2576  0.1978
  681PSPI   C2A 9190  15.578  17.068   7.522  0.2775 -0.1161 -0.1712
  681PSPI   C3A 9191  15.445  17.319   7.762  0.0165  0.0153  0.1757
  681PSPI   C4A 9192  15.704  17.553   8.041 -0.0304  0.1850 -0.2426
  681PSPI   C1B 9193  15.914  16.357   7.603  0.0113  0.0125  0.1167
  681PSPI   C2B 9194  15.725  16.684   7.864  0.1979 -0.1818  0.0640
  681PSPI   C3B 9195  15.683  17.036   8.095 -0.0592 -0.1329  0.0105
  681PSPI   C4B 9196  15.542  17.157   8.435 -0.1958  0.2201  0.2533
  682PSPI    C1 9197   5.850  15.578   5.478 -0.2405 -0.1857 -0.0167
  682PSPI    C2 9198   6.208  15.448   5.357 -0.1210  0.0243  0.1054
  682PSPI    C3 9199   5.984  15.672   5.113  0.0064  0.2282  0.1723
  682PSPI   PO4 9200   5.741  15.343   5.542 -0.1745 -0.0020  0.1764
  682PSPI   GL1 9201   5.679  15.055   5.838  0.0333 -0.0573 -0.1447
  682PSPI   GL2 9202   5.780  14.765   5.928 -0.1615  0.1712 -0.3754
  682PSPI   C1A 9203   5.665  15.181   6.187  0.2084  0.3910  0.3737
  682PSPI   C2A 9204   5.687  15.161   6.600  0.1984  0.2686  0.1501
  682PSPI   C3A 9205   5.804  15.237   6.995  0.2176  0.0394  0.0474
  682PSPI   C4A 9206   5.808  15.294   7.384  0.1956  0.1235  0.3018
  682PSPI   C1B 9207   5.755  14.571   6.382  0.0971  0.2344 -0.0348
  682PSPI   C2B 9208   5.474  14.365   6.657 -0.1218 -0.1473  0.0306
  682PSPI   C3B 9209   5.489  14.330   7.145 -0.0589  0.0036  0.0978
  682PSPI   C4B 9210   5.813  14.350   7.454 -0.2762 -0.0426  0.1058
  683PSPI    C1 9211  14.289   5.744   6.268  0.0578  0.0790 -0.1453
  683PSPI    C2 9212  14.241   5.761   5.872 -0.0979 -0.2137 -0.1421
  683PSPI    C3 9213  14.582   5.620   6.026  0.0074  0.0065 -0.1696
  683PSPI   PO4 9214  14.015   5.775   6.400 -0.0710  0.0430  0.3144
  683PSPI   GL1 9215  13.954   5.864   6.814 -0.2513  0.1217  0.0407
  683PSPI   GL2 9216  14.256   6.000   6.883 -0.1273 -0.1074  0.0746
  683PSPI   C1A 9217  13.918   5.746   7.250 -0.0556  0.1616  0.2057
  683PSPI   C2A 9218  13.675   5.671   7.452 -0.1142  0.0638  0.2329
  683PSPI   C3A 9219  13.619   5.521   7.777 -0.1295 -0.2093  0.1432
  683PSPI   C4A 9220  13.305   5.410   8.106 -0.0036  0.2443  0.0741
  683PSPI   C1B 9221  14.164   6.201   7.317  0.2751 -0.2139 -0.0255
  683PSPI   C2B 9222  13.820   6.227   7.639  0.0266 -0.0430  0.1990
  683PSPI   C3B 9223  13.611   6.547   7.975  0.0334 -0.0742 -0.1059
  683PSPI   C4B 9224  13.612   6.938   8.296  0.1259 -0.1826 -0.0315
  684PSPI    C1 9225  13.729   3.351   5.864  0.0292 -0.2167 -0.0755
  684PSPI    C2 9226  13.672   3.613   5.568 -0.0341 -0.0145  0.1130
  684PSPI    C3 9227  13.598   3.224   5.508  0.2783 -0.0250 -0.2385
  684PSPI   PO4 9228  13.694   3.585   6.078 -0.1644  0.0555  0.0070
  684PSPI   GL1 9229  13.630   3.844   6.389  0.1143  0.3645 -0.1411
  684PSPI   GL2 9230  13.777   4.013   6.417 -0.1467 -0.2759  0.3119
  684PSPI   C1A 9231  13.447   3.826   6.830  0.2127  0.1375 -0.0297
  684PSPI   C2A 9232  13.475   3.686   7.166 -0.0067 -0.1670 -0.0158
  684PSPI   C3A 9233  13.650   3.767   7.502  0.2275  0.0062  0.0364
  684PSPI   C4A 9234  13.940   3.632   7.916  0.4686  0.0904  0.2934
  684PSPI   C1B 9235  13.940   4.011   6.828 -0.1587  0.0947 -0.0115
  684PSPI   C2B 9236  13.903   4.122   7.184 -0.0744 -0.1880 -0.2350
  684PSPI   C3B 9237  14.010   4.122   7.698 -0.0591 -0.0527  0.0065
  684PSPI   C4B 9238  14.171   4.174   8.156 -0.2953  0.2379  0.0098
  685PSPI    C1 9239  15.666  13.534   6.148 -0.0451 -0.0616 -0.0958
  685PSPI    C2 9240  15.699  13.465   5.755 -0.0885  0.0238 -0.1147
  685PSPI    C3 9241  15.991  13.657   5.949 -0.1592  0.1644 -0.1461
  685PSPI   PO4 9242  15.510  13.335   6.190 -0.0623  0.0932 -0.1725
  685PSPI   GL1 9243  15.397  13.155   6.659  0.0323 -0.0547  0.1541
  685PSPI   GL2 9244  15.085  13.318   6.740 -0.1824  0.3377 -0.1478
  685PSPI   C1A 9245  15.460  13.056   6.979  0.2867 -0.1834  0.2098
  685PSPI   C2A 9246  15.281  13.177   7.364  0.2166 -0.0342  0.2993
  685PSPI   C3A 9247  15.038  13.330   7.523  0.0864  0.1047 -0.0120
  685PSPI   C4A 9248  14.679  13.466   7.449 -0.0676 -0.1602 -0.2244
  685PSPI   C1B 9249  15.090  13.586   7.073  0.0627  0.1593  0.5496
  685PSPI   C2B 9250  15.379  13.646   7.299 -0.2198 -0.1994  0.0774
  685PSPI   C3B 9251  15.400  13.671   7.666  0.2718  0.2116  0.3617
  685PSPI   C4B 9252  15.524  13.577   8.055  0.1917 -0.1817  0.1388
  686PSPI    C1 9253  10.982   5.621   5.818  0.0196 -0.0068  0.0197
  686PSPI    C2 9254  11.367   5.526   5.768  0.0271  0.1057 -0.1440
  686PSPI    C3 9255  11.163   5.698   5.470 -0.2312 -0.2211 -0.1615
  686PSPI   PO4 9256  10.979   5.683   6.087 -0.2540 -0.0374  0.1621
  686PSPI   GL1 9257  10.962   5.998   6.408 -0.0031  0.1703 -0.0015
  686PSPI   GL2 9258  10.703   6.108   6.538  0.0554 -0.0084 -0.0071
  686PSPI   C1A 9259  11.254   5.884   6.726  0.2040 -0.0989 -0.2651
  686PSPI   C2A 9260  11.414   6.116   7.030  0.2928  0.0685 -0.1949
  686PSPI   C3A 9261  11.267   6.116   7.403 -0.2469 -0.0130  0.1147
  686PSPI   C4A 9262  11.358   6.216   7.873  0.0575 -0.0889 -0.1476
  686PSPI   C1B 9263  10.784   6.071   6.942 -0.1365 -0.1587 -0.0470
  686PSPI   C2B 9264  10.760   6.163   7.416  0.0829 -0.1936  0.1084
  686PSPI   C3B 9265  10.652   6.343   7.895  0.0058 -0.1693  0.2507
  686PSPI   C4B 9266  10.641   6.432   8.226 -0.2505 -0.0988  0.0427
  687PSPI    C1 9267   7.745   5.531   5.913  0.1885 -0.1542  0.1622
  687PSPI    C2 9268   7.417   5.414   5.717  0.0526  0.1007  0.2326
  687PSPI    C3 9269   7.775   5.392   5.540  0.0201 -0.3187  0.2085
  687PSPI   PO4 9270   7.681   5.416   6.164 -0.0778  0.0812  0.1754
  687PSPI   GL1 9271   7.377   5.215   6.497  0.1384  0.1502 -0.1675
  687PSPI   GL2 9272   7.422   5.512   6.606  0.0615  0.1263  0.0889
  687PSPI   C1A 9273   7.440   5.056   6.883 -0.1405  0.1553 -0.2007
  687PSPI   C2A 9274   7.306   5.039   7.302  0.2870 -0.0421 -0.1485
  687PSPI   C3A 9275   7.196   4.895   7.737  0.0886  0.2941  0.0009
  687PSPI   C4A 9276   7.137   4.626   7.997  0.1005 -0.1132  0.0281
  687PSPI   C1B 9277   7.361   5.532   7.040  0.0231  0.0600 -0.2809
  687PSPI   C2B 9278   7.497   5.484   7.507  0.1163  0.0804 -0.2433
  687PSPI   C3B 9279   7.813   5.396   7.788 -0.1056  0.3693  0.1091
  687PSPI   C4B 9280   7.969   5.325   8.207  0.1280  0.2278  0.0220
  688PSPI    C1 9281  12.705   6.466   5.803 -0.1890  0.0787 -0.4870
  688PSPI    C2 9282  13.070   6.627   5.831 -0.1508 -0.0971  0.1901
  688PSPI    C3 9283  13.005   6.323   5.579  0.1763 -0.0838  0.0844
  688PSPI   PO4 9284  12.697   6.394   6.021 -0.3891 -0.0400  0.0842
  688PSPI   GL1 9285  12.562   6.604   6.367 -0.1733  0.0735  0.0777
  688PSPI   GL2 9286  12.688   6.940   6.540  0.3466  0.0220  0.1024
  688PSPI   C1A 9287  12.223   6.776   6.655  0.1432 -0.2176  0.0660
  688PSPI   C2A 9288  12.183   6.850   7.140  0.1595 -0.1207 -0.0726
  688PSPI   C3A 9289  11.995   6.920   7.477  0.1038  0.1234 -0.0779
  688PSPI   C4A 9290  11.902   7.019   7.926  0.2211 -0.0284  0.0396
  688PSPI   C1B 9291  12.411   7.234   6.773  0.1894  0.0748 -0.0154
  688PSPI   C2B 9292  12.490   7.620   7.140 -0.0751 -0.1649 -0.0868
  688PSPI   C3B 9293  12.533   7.610   7.568  0.3331 -0.2912 -0.0524
  688PSPI   C4B 9294  12.251   7.851   7.923 -0.0228 -0.2201 -0.2164
  689PSPI    C1 9295  14.461  10.419   5.877 -0.2181 -0.0358 -0.0724
  689PSPI    C2 9296  14.456  10.026   5.956  0.0649  0.0157  0.2260
  689PSPI    C3 9297  14.477  10.155   5.577 -0.0294 -0.2546  0.1265
  689PSPI   PO4 9298  14.366  10.562   6.092  0.3337  0.3095  0.1338
  689PSPI   GL1 9299  14.272  10.375   6.435 -0.2694  0.3696 -0.2258
  689PSPI   GL2 9300  13.957  10.409   6.312  0.0160  0.2002  0.2064
  689PSPI   C1A 9301  14.364  10.545   6.829  0.1392 -0.1909 -0.1276
  689PSPI   C2A 9302  14.208  10.487   7.197  0.4926 -0.0226  0.1535
  689PSPI   C3A 9303  14.378  10.503   7.576  0.1244  0.1521 -0.2400
  689PSPI   C4A 9304  14.415  10.509   8.043  0.1556 -0.4045  0.2207
  689PSPI   C1B 9305  13.832  10.310   6.785  0.0596 -0.1982  0.0101
  689PSPI   C2B 9306  13.735  10.306   7.179 -0.0673  0.1888  0.2491
  689PSPI   C3B 9307  13.868  10.351   7.593  0.0055 -0.2309 -0.1800
  689PSPI   C4B 9308  13.627  10.317   7.969 -0.0172  0.1827 -0.1642
  690PSPI    C1 9309   6.340   8.108   5.624 -0.0178 -0.0304 -0.0540
  690PSPI    C2 9310   6.717   7.973   5.637  0.0090  0.0546  0.0637
  690PSPI    C3 9311   6.479   7.872   5.332  0.1009 -0.0681  0.0319
  690PSPI   PO4 9312   6.223   8.056   5.807  0.2198 -0.2136  0.3014
  690PSPI   GL1 9313   6.228   7.892   6.134  0.1488 -0.4806  0.0002
  690PSPI   GL2 9314   5.868   7.940   6.232 -0.2705  0.0555 -0.1020
  690PSPI   C1A 9315   6.108   7.708   6.573 -0.3879  0.0376 -0.1748
  690PSPI   C2A 9316   6.154   7.518   6.981  0.0965  0.1283 -0.0969
  690PSPI   C3A 9317   6.058   7.582   7.406  0.2145  0.0916 -0.0489
  690PSPI   C4A 9318   5.797   7.752   7.633 -0.1446  0.1902 -0.0813
  690PSPI   C1B 9319   5.815   8.179   6.638  0.1902 -0.0792  0.1323
  690PSPI   C2B 9320   5.791   8.338   6.998 -0.1503 -0.0763  0.3051
  690PSPI   C3B 9321   6.009   8.059   7.228 -0.0211  0.0627  0.2882
  690PSPI   C4B 9322   6.210   8.054   7.632 -0.0488 -0.0254 -0.1774
  691PSPI    C1 9323   8.161   9.634   5.413  0.0753  0.1695 -0.1947
  691PSPI    C2 9324   8.408   9.455   5.154  0.0323 -0.2417  0.0397
  691PSPI    C3 9325   8.111   9.247   5.323 -0.1065  0.0922  0.2158
  691PSPI   PO4 9326   8.201   9.648   5.713 -0.1033  0.0033 -0.3224
  691PSPI   GL1 9327   8.064   9.775   6.133 -0.0817 -0.0877 -0.1605
  691PSPI   GL2 9328   7.839   9.916   6.044  0.2994  0.0690 -0.2072
  691PSPI   C1A 9329   7.853   9.765   6.490  0.1220  0.1015 -0.0125
  691PSPI   C2A 9330   7.711   9.834   6.918  0.1041 -0.2283 -0.2065
  691PSPI   C3A 9331   7.589  10.048   7.195  0.0897  0.0406 -0.2944
  691PSPI   C4A 9332   7.473  10.328   7.532 -0.0005  0.1976  0.1397
  691PSPI   C1B 9333   7.966  10.258   6.298 -0.1143  0.1369  0.3043
  691PSPI   C2B 9334   8.124  10.428   6.709  0.0887 -0.4606 -0.2273
  691PSPI   C3B 9335   8.310  10.375   7.158  0.0491 -0.1097  0.0675
  691PSPI   C4B 9336   8.241  10.581   7.520 -0.0450 -0.0373  0.0252
  692PSPI    C1 9337  16.009   6.982   6.117 -0.3688 -0.0436 -0.1381
  692PSPI    C2 9338  15.895   7.230   5.825  0.1409  0.0709 -0.2493
  692PSPI    C3 9339  16.142   6.926   5.744  0.2250  0.0575  0.0471
  692PSPI   PO4 9340  15.928   7.167   6.335  0.4883 -0.0725 -0.1148
  692PSPI   GL1 9341  15.680   7.410   6.752  0.2849 -0.1959 -0.1675
  692PSPI   GL2 9342  15.954   7.126   6.823 -0.0731 -0.3127 -0.1736
  692PSPI   C1A 9343  15.701   7.492   7.197 -0.3438 -0.0210 -0.0710
  692PSPI   C2A 9344  15.644   7.634   7.584  0.0359  0.0993 -0.3461
  692PSPI   C3A 9345  15.804   7.571   8.032  0.2051 -0.4505  0.2943
  692PSPI   C4A 9346  15.966   7.420   8.462 -0.3603  0.0614 -0.0544
  692PSPI   C1B 9347  16.250   7.151   7.118 -0.0466  0.0705 -0.1102
  692PSPI   C2B 9348  16.088   7.278   7.574  0.0492  0.3175  0.0492
  692PSPI   C3B 9349  16.025   7.130   7.937 -0.0543  0.2980 -0.4695
  692PSPI   C4B 9350  16.239   7.015   8.413 -0.0058 -0.0552  0.3022
  693PSPI    C1 9351  18.046  13.595   6.402 -0.1135 -0.0922 -0.0615
  693PSPI    C2 9352  18.436  13.569   6.318 -0.1339 -0.1303 -0.1454
  693PSPI    C3 9353  18.202  13.816   6.108 -0.1034  0.0999  0.0864
  693PSPI   PO4 9354  17.991  13.390   6.472  0.1713 -0.2829 -0.0941
  693PSPI   GL1 9355  17.927  13.131   6.835  0.1600 -0.1548  0.0478
  693PSPI   GL2 9356  17.847  13.407   6.918  0.0663  0.1654  0.2985
  693PSPI   C1A 9357  18.139  12.826   7.064 -0.1643  0.0675  0.4025
  693PSPI   C2A 9358  18.479  12.792   7.294  0.2103  0.4197  0.2406
  693PSPI   C3A 9359  18.680  12.746   7.641 -0.0007 -0.0203 -0.0018
  693PSPI   C4A 9360  18.864  12.607   8.020 -0.3321  0.1827 -0.0600
  693PSPI   C1B 9361  17.762  13.586   7.318  0.2443 -0.0312  0.0331
  693PSPI   C2B 9362  17.865  13.771   7.665  0.0789  0.2444  0.5683
  693PSPI   C3B 9363  17.904  13.738   8.055 -0.0114  0.0337  0.0315
  693PSPI   C4B 9364  17.977  13.755   8.536  0.2148  0.4205  0.0672
  694PSPI    C1 9365  11.244   8.585   5.793 -0.1545 -0.3253 -0.2833
  694PSPI    C2 9366  10.878   8.722   5.706 -0.0815  0.0666  0.0035
  694PSPI    C3 9367  11.197   8.860   5.507 -0.0469  0.0326  0.0352
  694PSPI   PO4 9368  11.152   8.492   6.129  0.0349  0.2754 -0.1445
  694PSPI   GL1 9369  11.100   8.415   6.600 -0.0647  0.1558 -0.1848
  694PSPI   GL2 9370  11.394   8.216   6.458 -0.3023  0.0197 -0.0497
  694PSPI   C1A 9371  10.785   8.393   6.885 -0.0537  0.1780 -0.1461
  694PSPI   C2A 9372  10.887   8.523   7.246 -0.2572  0.1379 -0.1605
  694PSPI   C3A 9373  11.006   8.626   7.624 -0.2243  0.1124 -0.1510
  694PSPI   C4A 9374  10.902   8.636   7.957 -0.1978  0.0485 -0.0045
  694PSPI   C1B 9375  11.547   8.122   6.917 -0.0089 -0.2528 -0.2190
  694PSPI   C2B 9376  11.719   8.032   7.284  0.1237 -0.0871 -0.1624
  694PSPI   C3B 9377  11.783   7.945   7.761 -0.0192 -0.3097 -0.0271
  694PSPI   C4B 9378  11.722   7.986   8.118  0.1959  0.1127  0.0764
  695POPI    C1 9379  17.488   2.097   5.753  0.0255  0.0020  0.0616
  695POPI    C2 9380  17.745   1.801   5.672  0.0113  0.0453 -0.1480
  695POPI    C3 9381  17.514   1.951   5.382 -0.0242  0.2220 -0.0303
  695POPI   PO4 9382  17.619   2.164   5.987  0.0539 -0.3188  0.0468
  695POPI   GL1 9383  17.603   2.058   6.338  0.1285  0.3095 -0.1711
  695POPI   GL2 9384  17.366   1.845   6.499  0.0936  0.0528 -0.0310
  695POPI   C1A 9385  17.685   2.318   6.682 -0.0619 -0.1522 -0.3824
  695POPI   D2A 9386  17.836   2.491   7.083 -0.0587 -0.0702 -0.1445
  695POPI   C3A 9387  17.622   2.480   7.413 -0.5408  0.1341  0.0211
  695POPI   C4A 9388  17.476   2.335   7.778 -0.3661  0.1482  0.0366
  695POPI   C1B 9389  17.541   1.872   6.931  0.1566 -0.3106  0.0606
  695POPI   C2B 9390  17.587   1.912   7.386 -0.0654  0.1132  0.1009
  695POPI   C3B 9391  17.608   1.781   7.852 -0.1466  0.2599 -0.1398
  695POPI   C4B 9392  17.388   1.563   8.200 -0.0119  0.1236  0.1481
  696POPI    C1 9393   1.376  15.310   5.836 -0.0237 -0.1277 -0.0131
  696POPI    C2 9394   1.141  14.991   5.781  0.0439 -0.1655 -0.0866
  696POPI    C3 9395   1.260  15.207   5.467 -0.1200  0.0188 -0.0244
  696POPI   PO4 9396   1.289  15.417   6.116  0.1751  0.3800  0.0062
  696POPI   GL1 9397   1.441  15.845   6.398  0.2128  0.1277 -0.1317
  696POPI   GL2 9398   1.240  15.666   6.603  0.0178  0.0939 -0.0497
  696POPI   C1A 9399   1.770  15.578   6.691 -0.1452 -0.0595 -0.2417
  696POPI   D2A 9400   2.212  15.586   6.837 -0.2964  0.0158  0.0329
  696POPI   C3A 9401   2.676  15.326   6.947  0.2819  0.2053 -0.2466
  696POPI   C4A 9402   2.971  15.132   6.683 -0.0225 -0.0747 -0.1309
  696POPI   C1B 9403   1.322  15.636   6.985 -0.0751 -0.0608  0.4530
  696POPI   C2B 9404   1.808  15.547   7.206  0.0608  0.1310 -0.0467
  696POPI   C3B 9405   2.290  15.348   7.379  0.1935  0.4248  0.1928
  696POPI   C4B 9406   2.366  15.002   7.658 -0.1497  0.2239 -0.2377
  697POPI    C1 9407   0.149  16.004   6.338 -0.0046  0.1515  0.0346
  697POPI    C2 9408  -0.236  16.023   6.234 -0.0504  0.1080  0.1939
  697POPI    C3 9409  -0.038  15.677   6.203  0.0495  0.1917 -0.1405
  697POPI   PO4 9410   0.157  16.039   6.599 -0.1912 -0.2118 -0.1014
  697POPI   GL1 9411  -0.060  16.132   7.008  0.0300  0.3748 -0.3778
  697POPI   GL2 9412  -0.245  16.395   7.087 -0.1030  0.1678  0.2324
  697POPI   C1A 9413  -0.224  15.903   7.336 -0.0098  0.3472 -0.1337
  697POPI   D2A 9414  -0.295  15.699   7.734 -0.0204 -0.3284 -0.2504
  697POPI   C3A 9415  -0.316  16.080   8.024 -0.0787  0.5217  0.1425
  697POPI   C4A 9416  -0.446  16.486   8.060  0.2319  0.0879 -0.1503
  697POPI   C1B 9417  -0.601  16.556   7.414 -0.0680 -0.0227  0.2228
  697POPI   C2B 9418  -0.755  16.741   7.766  0.0234 -0.2355 -0.3379
  697POPI   C3B 9419  -0.937  16.555   8.040  0.1695 -0.1884  0.1446
  697POPI   C4B 9420  -1.212  16.312   8.334  0.0375 -0.1353 -0.0557
  698POPI    C1 9421  13.591   9.925   5.684 -0.0352  0.0562 -0.0606
  698POPI    C2 9422  13.644   9.772   5.318  0.2007 -0.0079 -0.0015
  698POPI    C3 9423  13.550  10.159   5.362 -0.0105 -0.0423 -0.1354
  698POPI   PO4 9424  13.487   9.670   5.830 -0.1221 -0.0985  0.0866
  698POPI   GL1 9425  13.142   9.611   6.160  0.3083 -0.0709 -0.0260
  698POPI   GL2 9426  12.994   9.378   6.027 -0.2000  0.3402  0.0356
  698POPI   C1A 9427  13.129   9.434   6.580  0.0076 -0.0988 -0.1764
  698POPI   D2A 9428  13.330   9.532   6.935  0.1920  0.0721 -0.0472
  698POPI   C3A 9429  13.348   9.451   7.260 -0.1181  0.0418  0.2372
  698POPI   C4A 9430  13.303   9.185   7.683 -0.1399 -0.3290  0.4805
  698POPI   C1B 9431  12.709   9.109   6.291 -0.1856 -0.0523 -0.1062
  698POPI   C2B 9432  12.475   8.966   6.568 -0.1560  0.2264  0.0871
  698POPI   C3B 9433  12.369   8.764   6.985 -0.0630  0.3579  0.0105
  698POPI   C4B 9434  12.380   8.479   7.233  0.0565 -0.0085 -0.1389
  699POPI    C1 9435  12.213  15.667   5.927  0.1146  0.3777  0.4983
  699POPI    C2 9436  12.255  15.954   5.652 -0.0011 -0.1321 -0.0736
  699POPI    C3 9437  11.927  15.725   5.654  0.0890 -0.2665  0.3714
  699POPI   PO4 9438  12.220  15.833   6.213 -0.2719 -0.0049 -0.1990
  699POPI   GL1 9439  12.392  15.834   6.480 -0.0027  0.1303  0.0226
  699POPI   GL2 9440  12.794  15.814   6.406 -0.0300 -0.0861 -0.0815
  699POPI   C1A 9441  12.111  15.822   6.832  0.2866  0.0323 -0.1728
  699POPI   D2A 9442  12.007  15.787   7.264  0.0516  0.0048  0.1504
  699POPI   C3A 9443  11.681  15.735   7.561 -0.0544 -0.3347  0.1494
  699POPI   C4A 9444  11.626  15.359   7.780 -0.1120 -0.0735 -0.0799
  699POPI   C1B 9445  12.889  15.897   6.835 -0.1388  0.0912 -0.0936
  699POPI   C2B 9446  12.889  15.976   7.258 -0.2738 -0.2461  0.2779
  699POPI   C3B 9447  12.778  16.194   7.672 -0.0946 -0.2288 -0.1141
  699POPI   C4B 9448  12.510  16.481   7.742 -0.0075 -0.3795 -0.2811
  700POPI    C1 9449   6.082  11.279   5.094  0.1524  0.0642 -0.1477
  700POPI    C2 9450   6.469  11.288   4.992  0.1496 -0.1226 -0.1793
  700POPI    C3 9451   6.200  11.488   4.774  0.2198 -0.0444 -0.1948
  700POPI   PO4 9452   6.114  11.061   5.287  0.2878 -0.0572 -0.1372
  700POPI   GL1 9453   6.257  11.082   5.730  0.1146  0.1980 -0.2558
  700POPI   GL2 9454   6.387  11.081   6.109 -0.0113 -0.0314  0.2007
  700POPI   C1A 9455   6.327  10.678   5.847 -0.1138  0.2509 -0.0976
  700POPI   D2A 9456   6.324  10.296   6.165  0.0019  0.1027 -0.1793
  700POPI   C3A 9457   6.116  10.066   6.518 -0.2443  0.0509  0.0360
  700POPI   C4A 9458   6.199   9.949   6.895  0.0677 -0.2348 -0.2504
  700POPI   C1B 9459   6.466  10.998   6.515 -0.0814  0.0617 -0.1572
  700POPI   C2B 9460   6.426  10.916   6.922  0.1357  0.0940  0.3248
  700POPI   C3B 9461   6.509  10.953   7.398 -0.3732  0.2489 -0.2642
  700POPI   C4B 9462   6.672  10.627   7.770 -0.0404 -0.3474  0.1058
  701POPI    C1 9463   5.228  13.721   5.419  0.1706  0.0852 -0.0443
  701POPI    C2 9464   4.915  13.681   5.173  0.1201 -0.1464  0.0549
  701POPI    C3 9465   5.160  13.995   5.137 -0.0846  0.0009 -0.0669
  701POPI   PO4 9466   5.039  13.599   5.724  0.0645 -0.0109 -0.1210
  701POPI   GL1 9467   5.060  13.687   6.093  0.1310  0.0085  0.0436
  701POPI   GL2 9468   5.322  13.443   6.174 -0.2118  0.0432 -0.1340
  701POPI   C1A 9469   5.026  13.725   6.568 -0.2180 -0.1810 -0.0798
  701POPI   D2A 9470   5.129  13.669   7.069  0.2395 -0.1974 -0.0672
  701POPI   C3A 9471   5.096  13.822   7.517  0.0762  0.0069  0.1006
  701POPI   C4A 9472   5.255  13.958   7.938  0.1161 -0.1037  0.3447
  701POPI   C1B 9473   5.416  13.384   6.508 -0.3053 -0.0464 -0.1685
  701POPI   C2B 9474   5.568  13.414   6.986 -0.0228  0.2330 -0.3387
  701POPI   C3B 9475   5.757  13.409   7.360  0.0762  0.0065  0.3817
  701POPI   C4B 9476   5.594  13.637   7.697  0.3566  0.0367  0.1144
  702POPI    C1 9477   5.302  17.724   5.223 -0.1819 -0.1374 -0.2343
  702POPI    C2 9478   5.655  17.581   5.102 -0.0092 -0.1295  0.2391
  702POPI    C3 9479   5.608  17.974   5.161 -0.0992 -0.1299  0.1727
  702POPI   PO4 9480   5.243  17.486   5.427  0.0065  0.2478  0.0604
  702POPI   GL1 9481   5.365  17.518   5.890 -0.0178 -0.0574  0.0489
  702POPI   GL2 9482   5.284  17.241   5.919  0.2340  0.0465  0.0890
  702POPI   C1A 9483   5.329  17.557   6.356  0.0670 -0.1234  0.2800
  702POPI   D2A 9484   5.476  17.499   6.759 -0.1624 -0.0423 -0.1905
  702POPI   C3A 9485   5.314  17.322   7.162  0.3463 -0.0758 -0.0123
  702POPI   C4A 9486   5.109  17.479   7.591  0.2782  0.1177 -0.1616
  702POPI   C1B 9487   5.298  17.026   6.333 -0.0468  0.1242 -0.1758
  702POPI   C2B 9488   5.184  17.043   6.770  0.0419 -0.0676  0.0761
  702POPI   C3B 9489   5.280  16.832   7.202 -0.1040  0.0289  0.0499
  702POPI   C4B 9490   5.264  16.841   7.648 -0.2272 -0.1442 -0.3609
  703POPI    C1 9491   5.082   9.477   5.146 -0.0079  0.0559 -0.1143
  703POPI    C2 9492   5.167   9.159   4.920 -0.0688  0.0413 -0.1167
  703POPI    C3 9493   4.901   9.429   4.792 -0.1530 -0.0015 -0.0332
  703POPI   PO4 9494   5.052   9.366   5.342 -0.1648  0.3308  0.3005
  703POPI   GL1 9495   4.972   9.470   5.754  0.1032  0.3739 -0.0636
  703POPI   GL2 9496   4.672   9.412   5.819 -0.4382  0.4596 -0.0344
  703POPI   C1A 9497   5.062   9.778   6.058  0.1061 -0.0168  0.1813
  703POPI   D2A 9498   5.272   9.828   6.466  0.0254  0.1975 -0.0598
  703POPI   C3A 9499   5.341   9.556   6.749  0.0653 -0.0239 -0.0872
  703POPI   C4A 9500   5.389   9.110   6.855 -0.1679  0.1949  0.0960
  703POPI   C1B 9501   4.660   9.511   6.214  0.2168 -0.1080  0.4168
  703POPI   C2B 9502   4.492   9.313   6.651  0.0429 -0.1734 -0.0701
  703POPI   C3B 9503   4.512   9.409   7.160 -0.0907  0.0477  0.0304
  703POPI   C4B 9504   4.601   9.738   7.459 -0.1860 -0.0185  0.0557
  704POPI    C1 9505   9.981   9.741   5.490  0.1473  0.0923  0.1187
  704POPI    C2 9506   9.862   9.743   5.108 -0.0550  0.0467  0.1800
  704POPI    C3 9507   9.995   9.404   5.275  0.1933  0.1039  0.1033
  704POPI   PO4 9508   9.755   9.918   5.582  0.0386  0.0980  0.0832
  704POPI   GL1 9509   9.594   9.709   5.940  0.1297  0.2224 -0.2998
  704POPI   GL2 9510   9.351   9.837   6.041  0.0879 -0.0174  0.1486
  704POPI   C1A 9511   9.627   9.595   6.350 -0.0909  0.3370  0.0074
  704POPI   D2A 9512   9.738   9.341   6.723 -0.2924 -0.0255 -0.1086
  704POPI   C3A 9513   9.858   9.533   7.104 -0.2603  0.3521  0.0342
  704POPI   C4A 9514  10.039   9.766   7.391  0.2413 -0.1576 -0.0385
  704POPI   C1B 9515   9.147   9.921   6.407 -0.0543 -0.2600  0.1092
  704POPI   C2B 9516   9.084   9.996   6.774 -0.0104  0.2981  0.0313
  704POPI   C3B 9517   8.731   9.983   7.082 -0.1474 -0.1189 -0.1700
  704POPI   C4B 9518   8.632  10.019   7.501  0.1694 -0.1653  0.2728
  705POPI    C1 9519   6.940  10.761   5.068  0.3697 -0.2884  0.0412
  705POPI    C2 9520   6.707  10.613   4.779  0.0812 -0.0288  0.1352
  705POPI    C3 9521   7.030  10.829   4.685 -0.0425  0.1020  0.0052
  705POPI   PO4 9522   6.991  10.525   5.305 -0.1771  0.1327 -0.0114
  705POPI   GL1 9523   6.844  10.512   5.640  0.1322  0.0432  0.0495
  705POPI   GL2 9524   6.783  10.813   5.861 -0.2565  0.0002 -0.1824
  705POPI   C1A 9525   7.009  10.304   6.051  0.2246  0.0994  0.1213
  705POPI   D2A 9526   7.409  10.225   6.299  0.1459  0.0385  0.2984
  705POPI   C3A 9527   7.469  10.231   6.697  0.0455  0.0687  0.0549
  705POPI   C4A 9528   7.328  10.529   6.960  0.1525  0.0534 -0.2518
  705POPI   C1B 9529   6.694  10.676   6.207 -0.2228 -0.0033 -0.3534
  705POPI   C2B 9530   6.501  10.508   6.623 -0.1483 -0.1433  0.2193
  705POPI   C3B 9531   6.503  10.410   7.016 -0.0300 -0.1555 -0.0714
  705POPI   C4B 9532   6.323  10.217   7.354  0.0698 -0.1831  0.2747
  706POPI    C1 9533   3.137  17.239   5.447  0.0442  0.0016 -0.0446
  706POPI    C2 9534   3.198  16.884   5.621 -0.1035 -0.0028 -0.0010
  706POPI    C3 9535   2.870  16.945   5.401 -0.0948  0.1170  0.0187
  706POPI   PO4 9536   3.233  17.455   5.712 -0.2322 -0.0460  0.0975
  706POPI   GL1 9537   3.163  17.281   6.152 -0.1599  0.0215  0.2142
  706POPI   GL2 9538   3.096  17.015   6.175  0.0146 -0.1279 -0.0869
  706POPI   C1A 9539   3.346  17.361   6.499  0.1139  0.1930 -0.0369
  706POPI   D2A 9540   3.465  17.675   6.762  0.2836  0.0428  0.2131
  706POPI   C3A 9541   3.654  17.910   7.104  0.1500 -0.0521 -0.0695
  706POPI   C4A 9542   3.814  17.841   7.460 -0.1101 -0.0495  0.2433
  706POPI   C1B 9543   2.968  17.037   6.593 -0.1924 -0.0908  0.2597
  706POPI   C2B 9544   3.027  17.129   7.060 -0.0627  0.0601  0.0154
  706POPI   C3B 9545   3.280  16.871   7.400  0.1703 -0.0752  0.1168
  706POPI   C4B 9546   3.487  16.855   7.662  0.0217 -0.0245 -0.0117
  707POPI    C1 9547  16.256   2.722   5.788 -0.0579 -0.1458 -0.1540
  707POPI    C2 9548  15.894   2.671   5.625 -0.1149  0.1307 -0.1188
  707POPI    C3 9549  16.125   2.976   5.507  0.0186  0.0814  0.0123
  707POPI   PO4 9550  16.162   2.571   6.109 -0.1791 -0.0623 -0.3075
  707POPI   GL1 9551  16.063   2.233   6.463 -0.0806 -0.0950 -0.0923
  707POPI   GL2 9552  16.375   2.040   6.522  0.1289 -0.0046 -0.0306
  707POPI   C1A 9553  16.150   2.395   6.873  0.1789 -0.0557  0.0251
  707POPI   D2A 9554  16.209   2.432   7.277 -0.0609 -0.2473  0.0297
  707POPI   C3A 9555  15.989   2.623   7.548 -0.0400 -0.1801  0.0589
  707POPI   C4A 9556  15.778   2.645   8.004  0.0282 -0.2818  0.0932
  707POPI   C1B 9557  16.373   1.986   7.005 -0.0749  0.2486 -0.0916
  707POPI   C2B 9558  16.419   1.977   7.398 -0.1757  0.1529  0.5831
  707POPI   C3B 9559  16.616   2.162   7.899 -0.1349 -0.1512 -0.2400
  707POPI   C4B 9560  16.754   2.497   8.193  0.1281  0.2546 -0.0925
  708POPI    C1 9561   9.675  10.485   5.264  0.0311  0.1535  0.0015
  708POPI    C2 9562   9.929  10.390   4.970 -0.2215 -0.0864 -0.1440
  708POPI    C3 9563   9.646  10.666   4.908  0.0223  0.2101  0.0308
  708POPI   PO4 9564   9.822  10.566   5.519  0.2476  0.2649  0.1541
  708POPI   GL1 9565   9.788  10.277   5.927 -0.0016 -0.0700  0.0962
  708POPI   GL2 9566  10.098  10.227   5.848  0.1279  0.0722 -0.1834
  708POPI   C1A 9567   9.662  10.124   6.299  0.2028 -0.0777  0.0168
  708POPI   D2A 9568   9.632   9.953   6.689  0.0161  0.0567 -0.1597
  708POPI   C3A 9569   9.537   9.899   7.035  0.1178  0.0009 -0.1051
  708POPI   C4A 9570   9.234  10.097   7.291  0.3136 -0.2076 -0.0860
  708POPI   C1B 9571  10.145  10.361   6.284  0.0309 -0.1138 -0.0560
  708POPI   C2B 9572  10.395  10.461   6.704  0.1593  0.2125 -0.1221
  708POPI   C3B 9573  10.640  10.554   7.057 -0.4255 -0.0865  0.0061
  708POPI   C4B 9574  10.637  10.661   7.438 -0.1224 -0.0586  0.0450
  709POPI    C1 9575   5.082  15.090   5.004  0.0810  0.2158  0.1147
  709POPI    C2 9576   4.770  15.103   4.754  0.1211 -0.0366  0.0487
  709POPI    C3 9577   5.132  15.221   4.629  0.1098 -0.0156  0.0360
  709POPI   PO4 9578   5.011  14.891   5.141 -0.0412  0.0960 -0.1298
  709POPI   GL1 9579   5.039  15.000   5.632 -0.2028  0.1809 -0.0468
  709POPI   GL2 9580   4.828  15.007   5.768 -0.4200  0.0852  0.1504
  709POPI   C1A 9581   5.188  15.255   6.027  0.0991 -0.3249  0.2465
  709POPI   D2A 9582   5.289  15.452   6.420  0.0587  0.4559  0.0027
  709POPI   C3A 9583   5.425  15.470   6.826 -0.3436 -0.0002  0.1350
  709POPI   C4A 9584   5.270  15.266   7.141 -0.1054  0.3874  0.0393
  709POPI   C1B 9585   4.787  15.076   6.240 -0.1536  0.0915  0.1928
  709POPI   C2B 9586   4.792  14.744   6.558  0.0533 -0.1381 -0.1644
  709POPI   C3B 9587   5.173  14.717   6.876  0.1931 -0.1933  0.1981
  709POPI   C4B 9588   5.607  14.770   6.916  0.0168 -0.1572  0.1532
  710POPI    C1 9589  14.648  14.040   5.922  0.0429 -0.1648 -0.0746
  710POPI    C2 9590  14.487  13.697   5.795 -0.0767 -0.1306 -0.0176
  710POPI    C3 9591  14.478  14.021   5.560 -0.1991 -0.0965  0.0331
  710POPI   PO4 9592  14.861  13.956   6.155  0.0165 -0.0128 -0.0870
  710POPI   GL1 9593  15.128  14.218   6.439  0.0055  0.0173 -0.0983
  710POPI   GL2 9594  15.392  14.329   6.533  0.0523  0.1776 -0.2232
  710POPI   C1A 9595  15.156  14.099   6.913 -0.1002  0.2053 -0.2044
  710POPI   D2A 9596  15.308  14.163   7.296 -0.0760 -0.2490  0.0333
  710POPI   C3A 9597  15.338  14.177   7.745 -0.0207 -0.1159  0.2510
  710POPI   C4A 9598  15.435  14.020   8.197 -0.2619  0.2395 -0.3439
  710POPI   C1B 9599  15.554  14.451   6.985  0.1146  0.2519 -0.0032
  710POPI   C2B 9600  15.712  14.481   7.324 -0.3373 -0.0769 -0.0970
  710POPI   C3B 9601  15.770  14.364   7.706 -0.1167 -0.1999 -0.1797
  710POPI   C4B 9602  15.899  14.299   8.068 -0.2021  0.4466  0.2412
  711POPI    C1 9603  15.225   3.355   6.050 -0.0656 -0.1488 -0.1556
  711POPI    C2 9604  14.942   3.513   5.815 -0.0522 -0.0604 -0.1125
  711POPI    C3 9605  15.130   3.178   5.704 -0.1175 -0.0751 -0.1792
  711POPI   PO4 9606  15.132   3.433   6.259 -0.1817  0.0711  0.1738
  711POPI   GL1 9607  15.156   3.759   6.586  0.1368 -0.4533  0.1968
  711POPI   GL2 9608  15.408   4.034   6.608  0.1358  0.0853  0.1341
  711POPI   C1A 9609  14.917   3.978   6.840  0.2257 -0.1481  0.0944
  711POPI   D2A 9610  14.876   3.988   7.261  0.0028 -0.0166  0.0222
  711POPI   C3A 9611  14.827   4.004   7.750 -0.0829 -0.0389 -0.2032
  711POPI   C4A 9612  14.716   3.994   8.166 -0.0498 -0.1014 -0.0183
  711POPI   C1B 9613  15.349   4.062   7.060  0.0251  0.1707 -0.0180
  711POPI   C2B 9614  15.497   4.144   7.511  0.2354 -0.2088  0.0497
  711POPI   C3B 9615  15.382   4.119   7.878 -0.1491 -0.2904  0.0255
  711POPI   C4B 9616  15.126   4.243   8.176  0.2067 -0.2215 -0.1395
  712POPI    C1 9617  17.357  14.165   6.371 -0.1527  0.0606 -0.0343
  712POPI    C2 9618  17.721  14.055   6.246 -0.1965  0.0892 -0.1900
  712POPI    C3 9619  17.570  14.408   6.135 -0.2879  0.0603 -0.1582
  712POPI   PO4 9620  17.345  14.107   6.603 -0.2186 -0.0594  0.3459
  712POPI   GL1 9621  17.030  13.914   6.761 -0.0506  0.3719 -0.0673
  712POPI   GL2 9622  16.740  14.051   6.756  0.0418  0.0054 -0.0081
  712POPI   C1A 9623  16.944  13.712   7.024 -0.0752  0.1386  0.3120
  712POPI   D2A 9624  16.881  13.778   7.417 -0.1518 -0.1010 -0.0901
  712POPI   C3A 9625  16.906  13.617   7.816 -0.0527 -0.3323 -0.3191
  712POPI   C4A 9626  17.135  13.594   8.209 -0.0557  0.0121 -0.1409
  712POPI   C1B 9627  16.674  14.135   7.140  0.2977 -0.0753 -0.0898
  712POPI   C2B 9628  16.747  14.231   7.597 -0.1187  0.1267  0.1952
  712POPI   C3B 9629  17.095  14.237   7.817  0.0735 -0.3224 -0.0090
  712POPI   C4B 9630  17.266  14.341   8.207 -0.1880  0.0394  0.2698
  713POPI    C1 9631  13.987  17.349   6.003 -0.4410 -0.1011  0.1758
  713POPI    C2 9632  14.050  16.981   5.859 -0.2964 -0.1394  0.3340
  713POPI    C3 9633  13.884  17.261   5.627 -0.1652 -0.2307  0.1279
  713POPI   PO4 9634  13.998  17.211   6.303  0.1879  0.1294 -0.1876
  713POPI   GL1 9635  13.824  16.965   6.679 -0.0724 -0.2030 -0.1144
  713POPI   GL2 9636  13.636  17.213   6.692  0.1559  0.2881 -0.2791
  713POPI   C1A 9637  13.895  16.849   7.084  0.0576 -0.0687  0.1007
  713POPI   D2A 9638  13.786  17.093   7.470  0.1017  0.0662 -0.1823
  713POPI   C3A 9639  13.485  17.022   7.776 -0.2463 -0.0488  0.0078
  713POPI   C4A 9640  13.272  16.852   8.094  0.2518 -0.3199 -0.4911
  713POPI   C1B 9641  13.486  17.186   7.053  0.3297  0.0322  0.2861
  713POPI   C2B 9642  13.337  17.322   7.381 -0.4176  0.0248  0.4714
  713POPI   C3B 9643  13.033  17.215   7.655  0.0085 -0.0466 -0.1723
  713POPI   C4B 9644  12.699  17.095   7.882 -0.0998  0.0049 -0.1210
  714POPI    C1 9645  12.872   9.855   5.778 -0.1137  0.1809 -0.0259
  714POPI    C2 9646  13.083  10.084   6.029  0.1771  0.0193 -0.1181
  714POPI    C3 9647  13.126  10.128   5.633  0.2759 -0.2270 -0.1366
  714POPI   PO4 9648  12.646   9.849   5.887  0.0677 -0.2673  0.0836
  714POPI   GL1 9649  12.737   9.747   6.379  0.1161  0.3648 -0.1288
  714POPI   GL2 9650  12.474   9.807   6.374  0.4113  0.1006  0.1968
  714POPI   C1A 9651  12.670   9.524   6.777 -0.4870  0.4438 -0.2258
  714POPI   D2A 9652  12.829   9.513   7.227 -0.0151  0.2445 -0.1198
  714POPI   C3A 9653  12.722   9.388   7.608 -0.2582 -0.1834  0.0270
  714POPI   C4A 9654  12.870   9.278   8.021 -0.0500 -0.0061 -0.0916
  714POPI   C1B 9655  12.400   9.939   6.849  0.0110  0.0909 -0.0476
  714POPI   C2B 9656  12.431   9.830   7.248  0.2475 -0.1365 -0.2630
  714POPI   C3B 9657  12.488   9.824   7.638  0.2275 -0.2991 -0.0245
  714POPI   C4B 9658  12.460   9.619   8.028 -0.3001 -0.1989  0.0564
  715POPI    C1 9659  13.247   8.526   5.593 -0.1863  0.0049 -0.5644
  715POPI    C2 9660  13.620   8.384   5.605 -0.1684  0.0753 -0.0014
  715POPI    C3 9661  13.337   8.186   5.402  0.0448 -0.2966  0.0549
  715POPI   PO4 9662  13.322   8.678   5.820  0.0159  0.1311 -0.5039
  715POPI   GL1 9663  13.383   8.755   6.255 -0.0134 -0.2848  0.0240
  715POPI   GL2 9664  13.584   8.489   6.256  0.4386  0.0494 -0.0355
  715POPI   C1A 9665  13.038   8.698   6.553 -0.2821  0.1232  0.1912
  715POPI   D2A 9666  12.904   9.027   6.829  0.0399  0.2199 -0.1704
  715POPI   C3A 9667  12.819   8.970   7.286  0.0444  0.2948 -0.0555
  715POPI   C4A 9668  12.938   8.894   7.712 -0.2306 -0.1258 -0.1802
  715POPI   C1B 9669  13.819   8.581   6.652 -0.1208 -0.1334  0.1540
  715POPI   C2B 9670  13.998   8.864   6.859  0.2121 -0.1597  0.1016
  715POPI   C3B 9671  14.076   8.859   7.312 -0.2017  0.2309  0.2240
  715POPI   C4B 9672  13.847   8.793   7.639  0.0826  0.0448 -0.1432
  716POPI    C1 9673   0.437  11.284   5.835  0.1006 -0.0275  0.1792
  716POPI    C2 9674   0.415  11.660   5.703  0.1765 -0.0152  0.2009
  716POPI    C3 9675   0.427  11.358   5.442  0.2277  0.0035  0.1814
  716POPI   PO4 9676   0.302  11.260   6.039  0.2892 -0.0665  0.1563
  716POPI   GL1 9677   0.311  11.226   6.493  0.0870 -0.0607  0.0812
  716POPI   GL2 9678   0.634  11.034   6.460  0.1136  0.1246 -0.1474
  716POPI   C1A 9679   0.262  11.345   6.908 -0.1993  0.1285 -0.1573
  716POPI   D2A 9680   0.344  11.389   7.408  0.1006  0.4238  0.1691
  716POPI   C3A 9681   0.235  11.281   7.824  0.2759 -0.4450  0.2279
  716POPI   C4A 9682   0.201  11.180   8.215  0.0228 -0.0322  0.1872
  716POPI   C1B 9683   0.706  11.142   6.898 -0.2065  0.0806  0.1151
  716POPI   C2B 9684   0.774  11.118   7.271 -0.2977  0.2361 -0.0572
  716POPI   C3B 9685   0.974  10.995   7.721  0.0199 -0.1793 -0.2499
  716POPI   C4B 9686   0.796  10.986   8.164 -0.4911 -0.0942 -0.1374
  717POPI    C1 9687   0.414   7.834   5.771  0.1928  0.1633  0.0981
  717POPI    C2 9688   0.706   8.064   5.623  0.3231 -0.1011 -0.0646
  717POPI    C3 9689   0.758   7.669   5.651  0.0934 -0.1163  0.1906
  717POPI   PO4 9690   0.352   7.900   6.085 -0.0288 -0.1222 -0.2679
  717POPI   GL1 9691   0.448   7.799   6.493 -0.0363 -0.0837  0.0937
  717POPI   GL2 9692   0.148   7.931   6.605 -0.2316  0.1672 -0.1032
  717POPI   C1A 9693   0.731   7.745   6.678 -0.0746 -0.0840 -0.2746
  717POPI   D2A 9694   1.087   7.821   6.966 -0.0945 -0.3145  0.2980
  717POPI   C3A 9695   0.872   7.843   7.329 -0.2135  0.0285  0.1379
  717POPI   C4A 9696   0.613   7.959   7.672 -0.1630  0.1059  0.0994
  717POPI   C1B 9697   0.158   7.934   7.017  0.3627 -0.0198 -0.3247
  717POPI   C2B 9698   0.118   7.832   7.498  0.2833  0.0685  0.0532
  717POPI   C3B 9699  -0.014   7.713   7.882  0.1014 -0.0867  0.1882
  717POPI   C4B 9700  -0.258   7.573   8.254 -0.0837 -0.0979 -0.4522
  718POPI    C1 9701   2.615  15.141   5.771  0.0568 -0.1671  0.0102
  718POPI    C2 9702   2.334  15.400   5.887  0.1351 -0.1443  0.1522
  718POPI    C3 9703   2.351  15.281   5.505  0.0622  0.0135  0.0985
  718POPI   PO4 9704   2.575  14.923   5.989  0.1297 -0.0546  0.2568
  718POPI   GL1 9705   2.278  14.711   6.311  0.0554 -0.1093  0.2351
  718POPI   GL2 9706   2.330  14.561   6.503  0.0693  0.0238  0.1751
  718POPI   C1A 9707   2.513  14.915   6.726 -0.0294 -0.3161 -0.2275
  718POPI   D2A 9708   2.365  14.843   7.164 -0.1394  0.0429  0.1388
  718POPI   C3A 9709   2.473  14.597   7.393  0.0098  0.1620  0.1819
  718POPI   C4A 9710   2.456  14.249   7.697  0.0370  0.7211 -0.2715
  718POPI   C1B 9711   2.492  14.417   6.910 -0.0812 -0.1373  0.1647
  718POPI   C2B 9712   2.706  14.261   7.142  0.0920  0.0841 -0.0474
  718POPI   C3B 9713   2.986  14.217   7.390  0.0058  0.2467  0.2391
  718POPI   C4B 9714   3.280  14.375   7.780 -0.1732  0.0035  0.1365
  719POPI    C1 9715   1.756   8.567   5.808 -0.0971 -0.1269  0.0530
  719POPI    C2 9716   2.056   8.346   5.662 -0.0698 -0.0361 -0.0300
  719POPI    C3 9717   1.763   8.470   5.420 -0.0069  0.1439 -0.0149
  719POPI   PO4 9718   1.885   8.587   6.150 -0.1221 -0.1584  0.2193
  719POPI   GL1 9719   1.629   8.758   6.501 -0.4259  0.1147  0.0203
  719POPI   GL2 9720   1.354   8.656   6.644  0.0960 -0.1486  0.0697
  719POPI   C1A 9721   1.821   8.886   6.840 -0.0476  0.0940 -0.0560
  719POPI   D2A 9722   2.026   8.923   7.184 -0.0965 -0.2050  0.4429
  719POPI   C3A 9723   1.808   8.997   7.554  0.0056  0.1418  0.0038
  719POPI   C4A 9724   1.584   8.824   7.842 -0.0931 -0.0052  0.0881
  719POPI   C1B 9725   1.448   8.662   7.036  0.4069  0.2343 -0.0260
  719POPI   C2B 9726   1.207   8.851   7.435 -0.2626  0.1827  0.2944
  719POPI   C3B 9727   0.959   8.917   7.819  0.1406 -0.0940  0.1233
  719POPI   C4B 9728   0.586   8.980   8.050 -0.0196 -0.2225  0.1535
  720POPI    C1 9729   8.935   6.239   5.893  0.1960  0.1544 -0.0433
  720POPI    C2 9730   8.725   6.562   6.003  0.1522  0.1515 -0.1180
  720POPI    C3 9731   8.606   6.343   5.690  0.1304  0.0106 -0.0118
  720POPI   PO4 9732   8.988   6.103   6.183 -0.4117  0.1260  0.1732
  720POPI   GL1 9733   8.772   6.004   6.606 -0.3506  0.1428  0.1886
  720POPI   GL2 9734   8.775   5.711   6.739  0.0897 -0.0048 -0.0895
  720POPI   C1A 9735   8.770   6.193   7.025 -0.1854  0.2474 -0.1252
  720POPI   D2A 9736   8.663   6.284   7.419  0.2101 -0.1904 -0.1237
  720POPI   C3A 9737   8.783   6.208   7.851 -0.3063  0.3676  0.2176
  720POPI   C4A 9738   8.893   6.216   8.232 -0.2009 -0.0098  0.1534
  720POPI   C1B 9739   8.750   5.754   7.230 -0.2878 -0.1613 -0.3087
  720POPI   C2B 9740   8.668   5.704   7.621  0.0564  0.0393 -0.2656
  720POPI   C3B 9741   8.821   5.634   7.976 -0.0685  0.0608  0.0114
  720POPI   C4B 9742   8.805   5.313   8.425  0.2561 -0.0326  0.2714
  721POPI    C1 9743   6.599   7.214   5.514  0.2008 -0.2596 -0.0432
  721POPI    C2 9744   6.651   7.386   5.157 -0.1603  0.1762  0.1056
  721POPI    C3 9745   6.405   7.073   5.194  0.2043 -0.1424 -0.0974
  721POPI   PO4 9746   6.732   7.379   5.666 -0.0056  0.3781  0.0554
  721POPI   GL1 9747   6.746   7.668   6.084  0.2898  0.1334 -0.0215
  721POPI   GL2 9748   6.937   7.488   6.172  0.1369 -0.0061 -0.0100
  721POPI   C1A 9749   6.626   7.832   6.461  0.1109 -0.0599  0.2583
  721POPI   D2A 9750   6.409   7.932   6.867  0.3506 -0.1418 -0.0529
  721POPI   C3A 9751   6.520   7.804   7.217 -0.1130 -0.0471  0.0615
  721POPI   C4A 9752   6.592   7.724   7.668 -0.1301  0.0038 -0.1422
  721POPI   C1B 9753   7.105   7.613   6.612  0.0927 -0.0601 -0.1546
  721POPI   C2B 9754   6.988   7.878   6.942 -0.1327 -0.0686  0.0108
  721POPI   C3B 9755   6.974   7.913   7.330  0.1157  0.0547  0.3265
  721POPI   C4B 9756   7.067   8.023   7.764 -0.0146  0.3065 -0.0854
  722POPI    C1 9757   1.792  11.378   5.893 -0.2310 -0.0692  0.0062
  722POPI    C2 9758   2.009  11.538   5.598 -0.0648 -0.0154  0.1558
  722POPI    C3 9759   1.646  11.684   5.681 -0.0348  0.0914  0.1005
  722POPI   PO4 9760   1.760  11.096   5.798  0.0154  0.1150 -0.1007
  722POPI   GL1 9761   2.030  10.729   5.876 -0.1112  0.0605  0.1762
  722POPI   GL2 9762   1.897  10.756   6.162  0.0081  0.3277 -0.2354
  722POPI   C1A 9763   2.379  10.641   6.129 -0.0685 -0.2478  0.3244
  722POPI   D2A 9764   2.624  10.732   6.533  0.0915 -0.0927 -0.2936
  722POPI   C3A 9765   2.489  10.759   6.915 -0.3318 -0.0113 -0.0450
  722POPI   C4A 9766   2.491  10.595   7.277  0.0546 -0.0833  0.0909
  722POPI   C1B 9767   2.119  10.564   6.514 -0.3131  0.0217  0.1006
  722POPI   C2B 9768   2.199  10.335   6.958  0.0736 -0.1689  0.0867
  722POPI   C3B 9769   2.206  10.185   7.397 -0.1087  0.1523 -0.0700
  722POPI   C4B 9770   2.373  10.373   7.858 -0.0048  0.2624  0.3128
  723POPI    C1 9771   3.237  16.260   5.435 -0.0675 -0.0819 -0.0509
  723POPI    C2 9772   2.939  16.011   5.530  0.0141 -0.0875  0.1986
  723POPI    C3 9773   3.260  15.873   5.336 -0.0300 -0.1351  0.1593
  723POPI   PO4 9774   3.289  16.434   5.701 -0.0049 -0.2055 -0.1708
  723POPI   GL1 9775   3.282  16.550   6.174 -0.1548 -0.3865  0.2741
  723POPI   GL2 9776   3.540  16.371   6.228  0.1081  0.1265  0.1688
  723POPI   C1A 9777   3.240  16.502   6.683 -0.3332 -0.1037 -0.3045
  723POPI   D2A 9778   3.436  16.508   7.085  0.2364 -0.0392 -0.1752
  723POPI   C3A 9779   3.361  16.327   7.410 -0.2246  0.0207 -0.2354
  723POPI   C4A 9780   3.526  16.335   7.770 -0.1162  0.1355 -0.0046
  723POPI   C1B 9781   3.725  16.534   6.557 -0.1623 -0.0442 -0.0109
  723POPI   C2B 9782   3.923  16.621   6.942  0.0467 -0.1025  0.1771
  723POPI   C3B 9783   3.915  16.499   7.397 -0.1287  0.1280  0.3169
  723POPI   C4B 9784   4.059  16.172   7.708  0.0770 -0.0850  0.0017
  724POPI    C1 9785   1.586  16.746   5.944  0.3930  0.1591 -0.0256
  724POPI    C2 9786   1.730  16.666   5.579  0.3883  0.1339 -0.0219
  724POPI    C3 9787   1.544  17.013   5.649 -0.2113 -0.1357 -0.2207
  724POPI   PO4 9788   1.813  16.722   6.123  0.0037 -0.2519 -0.3223
  724POPI   GL1 9789   2.078  16.865   6.486  0.1324  0.0803  0.4023
  724POPI   GL2 9790   1.839  17.122   6.530  0.3019 -0.2846 -0.3255
  724POPI   C1A 9791   2.435  17.029   6.552 -0.1537 -0.2665  0.2185
  724POPI   D2A 9792   2.564  16.981   7.005  0.1476  0.0753  0.0379
  724POPI   C3A 9793   2.760  16.983   7.425 -0.1377  0.0750  0.2076
  724POPI   C4A 9794   2.991  17.239   7.551 -0.2986 -0.2399  0.0150
  724POPI   C1B 9795   2.038  17.057   6.973 -0.1364  0.2652  0.0735
  724POPI   C2B 9796   2.145  17.037   7.338 -0.1515 -0.1480 -0.2212
  724POPI   C3B 9797   2.144  17.279   7.625 -0.2073  0.1767  0.1374
  724POPI   C4B 9798   2.011  17.536   7.872 -0.1987 -0.0738  0.0416
  725POPI    C1 9799  17.214  12.911   6.476 -0.1728  0.3854 -0.2149
  725POPI    C2 9800  17.479  12.931   6.177  0.1517 -0.1397  0.0230
  725POPI    C3 9801  17.535  13.147   6.508  0.0523  0.0698 -0.0948
  725POPI   PO4 9802  16.983  12.757   6.369 -0.2115 -0.0357  0.0848
  725POPI   GL1 9803  16.950  12.403   6.604 -0.1044 -0.1948 -0.0708
  725POPI   GL2 9804  17.083  12.151   6.726 -0.0232 -0.0123  0.2195
  725POPI   C1A 9805  17.005  12.543   7.092 -0.2438  0.1385  0.0153
  725POPI   D2A 9806  17.038  12.312   7.558  0.2913 -0.0097 -0.3031
  725POPI   C3A 9807  17.305  12.012   7.882  0.1963  0.2010 -0.0492
  725POPI   C4A 9808  17.680  11.918   8.103 -0.2782  0.1376 -0.0381
  725POPI   C1B 9809  17.085  11.996   7.131 -0.2187 -0.0029 -0.2841
  725POPI   C2B 9810  17.034  11.770   7.497 -0.2715 -0.1676  0.0216
  725POPI   C3B 9811  16.960  11.665   7.930  0.0187 -0.2362 -0.3240
  725POPI   C4B 9812  16.875  11.520   8.325 -0.2255 -0.0247 -0.0259
  726POPI    C1 9813   0.420   0.853   5.576 -0.0510  0.0090 -0.0009
  726POPI    C2 9814   0.060   0.912   5.740 -0.0092  0.2943 -0.0077
  726POPI    C3 9815   0.115   0.976   5.349 -0.1172 -0.4187 -0.1518
  726POPI   PO4 9816   0.548   0.956   5.816  0.0490  0.4954  0.0908
  726POPI   GL1 9817   0.712   0.951   6.273  0.2008 -0.1431 -0.0152
  726POPI   GL2 9818   0.414   1.004   6.500  0.1018  0.1634  0.1489
  726POPI   C1A 9819   0.910   1.019   6.700 -0.1191 -0.3449 -0.3126
  726POPI   D2A 9820   1.117   0.923   7.132  0.0172 -0.3811  0.1971
  726POPI   C3A 9821   1.441   1.173   7.245 -0.0152 -0.1468  0.0673
  726POPI   C4A 9822   1.797   1.421   7.544  0.5606 -0.2658 -0.2701
  726POPI   C1B 9823   0.455   1.061   6.901  0.0399 -0.3243  0.2798
  726POPI   C2B 9824   0.599   1.096   7.263 -0.5063  0.0038  0.0863
  726POPI   C3B 9825   0.447   1.219   7.577  0.0197  0.0448 -0.0418
  726POPI   C4B 9826   0.273   1.328   7.957 -0.0129  0.0760  0.1872
  727POPI    C1 9827   6.858  15.357   5.023 -0.0651  0.1005 -0.0361
  727POPI    C2 9828   6.952  14.973   5.083 -0.0800  0.1001 -0.0149
  727POPI    C3 9829   7.134  15.181   4.794 -0.1185  0.0591 -0.0690
  727POPI   PO4 9830   6.772  15.421   5.250 -0.1581 -0.0928  0.0906
  727POPI   GL1 9831   6.585  15.319   5.661 -0.0282  0.0061 -0.1624
  727POPI   GL2 9832   6.688  14.982   5.592  0.4620  0.3811  0.1991
  727POPI   C1A 9833   6.631  15.232   6.092 -0.0082  0.1133  0.0925
  727POPI   D2A 9834   6.692  15.110   6.499  0.1533 -0.0368  0.2915
  727POPI   C3A 9835   6.716  14.923   6.877  0.1197 -0.0372  0.0948
  727POPI   C4A 9836   6.831  14.981   7.362  0.3182 -0.1764  0.1641
  727POPI   C1B 9837   6.965  14.830   5.928 -0.0368 -0.1353  0.0858
  727POPI   C2B 9838   7.206  14.595   6.174  0.1812 -0.1019 -0.1252
  727POPI   C3B 9839   7.505  14.773   6.593 -0.3824  0.1972 -0.2424
  727POPI   C4B 9840   7.703  15.041   6.822 -0.1142  0.1121 -0.1644
  728POPI    C1 9841   4.481  16.847   4.982  0.0929 -0.0312  0.2106
  728POPI    C2 9842   4.618  17.206   4.870  0.1633 -0.1773 -0.1883
  728POPI    C3 9843   4.318  17.035   4.668 -0.2072 -0.1311  0.3034
  728POPI   PO4 9844   4.502  16.838   5.235 -0.1996  0.0398  0.1378
  728POPI   GL1 9845   4.409  17.018   5.548 -0.1055  0.2068 -0.2101
  728POPI   GL2 9846   4.070  17.051   5.639 -0.3605  0.3530  0.0112
  728POPI   C1A 9847   4.384  16.947   5.998  0.4375 -0.0852  0.2703
  728POPI   D2A 9848   4.624  16.844   6.203  0.0787  0.0225 -0.1856
  728POPI   C3A 9849   4.795  17.146   6.390  0.0515 -0.0502  0.0628
  728POPI   C4A 9850   4.915  17.522   6.700  0.1114 -0.0127  0.2566
  728POPI   C1B 9851   4.002  17.286   6.081  0.0680  0.0846  0.1363
  728POPI   C2B 9852   3.862  17.512   6.418  0.0658 -0.3019 -0.3468
  728POPI   C3B 9853   3.557  17.785   6.294 -0.2555 -0.1313  0.1634
  728POPI   C4B 9854   3.139  17.837   6.332 -0.2576  0.1293 -0.3701
  729POPI    C1 9855  10.599  14.354   5.316  0.0727  0.0765  0.0280
  729POPI    C2 9856  10.832  14.628   5.141  0.0233  0.1986  0.1510
  729POPI    C3 9857  10.990  14.283   5.269  0.0429  0.0660 -0.2177
  729POPI   PO4 9858  10.527  14.394   5.580  0.2244 -0.0276  0.0018
  729POPI   GL1 9859  10.612  14.205   5.982 -0.4306 -0.0366 -0.1691
  729POPI   GL2 9860  10.880  14.017   6.001 -0.1221  0.2827  0.0599
  729POPI   C1A 9861  10.472  13.986   6.311 -0.2032  0.2094  0.3332
  729POPI   D2A 9862  10.398  14.066   6.699  0.2018 -0.1450 -0.0819
  729POPI   C3A 9863  10.584  13.997   7.039 -0.0138  0.1011 -0.3078
  729POPI   C4A 9864  10.859  13.938   7.419 -0.1666 -0.0342 -0.0276
  729POPI   C1B 9865  11.115  13.984   6.550  0.0157  0.0050  0.2500
  729POPI   C2B 9866  11.143  13.975   7.028 -0.0551  0.2559  0.0844
  729POPI   C3B 9867  11.368  14.200   7.312 -0.3717  0.1545 -0.0997
  729POPI   C4B 9868  11.637  13.991   7.697 -0.0739 -0.3261  0.0064
  730POPI    C1 9869  14.816  17.228   6.371 -0.1550 -0.0927 -0.2801
  730POPI    C2 9870  14.928  17.553   6.167  0.0603 -0.0717 -0.1303
  730POPI    C3 9871  15.076  17.484   6.532 -0.1194 -0.2473 -0.0888
  730POPI   PO4 9872  14.493  17.296   6.392  0.0841  0.1030  0.0454
  730POPI   GL1 9873  14.215  17.325   6.739 -0.2277  0.0243 -0.1310
  730POPI   GL2 9874  14.330  17.026   6.761 -0.0483  0.2895  0.1206
  730POPI   C1A 9875  13.965  17.365   7.110 -0.1889  0.0758  0.2275
  730POPI   D2A 9876  13.968  17.651   7.438 -0.1126  0.0783  0.2042
  730POPI   C3A 9877  13.703  17.542   7.783 -0.0010 -0.0746  0.3772
  730POPI   C4A 9878  13.320  17.418   8.003  0.1434  0.1227  0.0683
  730POPI   C1B 9879  14.367  16.773   7.129  0.2067 -0.0979 -0.1707
  730POPI   C2B 9880  14.195  16.663   7.484 -0.0853  0.1380  0.0010
  730POPI   C3B 9881  13.983  16.692   7.795 -0.1358  0.1005 -0.1786
  730POPI   C4B 9882  13.769  16.703   8.239 -0.0850  0.0527 -0.0197
  731POPI    C1 9883   4.177  12.726   5.226  0.1629  0.0445 -0.1162
  731POPI    C2 9884   4.540  12.832   5.358  0.1385 -0.3244  0.2686
  731POPI    C3 9885   4.496  12.499   5.141  0.0012 -0.4033  0.4152
  731POPI   PO4 9886   3.984  12.835   5.499 -0.1594 -0.0899 -0.3408
  731POPI   GL1 9887   3.932  12.941   5.927  0.2102 -0.0627  0.0079
  731POPI   GL2 9888   3.932  13.172   6.002 -0.1254 -0.1554  0.0067
  731POPI   C1A 9889   4.131  12.786   6.317  0.1514  0.0923  0.2691
  731POPI   D2A 9890   4.142  12.887   6.707 -0.4021 -0.0225  0.1531
  731POPI   C3A 9891   3.957  12.731   7.070 -0.0764 -0.1141 -0.0543
  731POPI   C4A 9892   3.948  12.857   7.476 -0.3569 -0.0950  0.0849
  731POPI   C1B 9893   3.850  13.222   6.393 -0.3413  0.0051 -0.1917
  731POPI   C2B 9894   4.004  13.312   6.885  0.0864 -0.0690  0.2897
  731POPI   C3B 9895   4.328  13.061   7.204 -0.1524  0.0186  0.2994
  731POPI   C4B 9896   4.456  12.847   7.522  0.1686  0.2080  0.1891
  732POPI    C1 9897   7.770  11.767   5.457 -0.0147  0.0589 -0.3158
  732POPI    C2 9898   7.571  12.112   5.501  0.1636  0.1086  0.1696
  732POPI    C3 9899   7.936  12.111   5.337  0.0554  0.1109 -0.0760
  732POPI   PO4 9900   7.731  11.531   5.738  0.2694  0.1705 -0.2888
  732POPI   GL1 9901   7.809  11.448   6.146  0.1106  0.4167  0.0270
  732POPI   GL2 9902   7.914  11.182   6.289  0.1536 -0.2412  0.1780
  732POPI   C1A 9903   7.749  11.703   6.379  0.0480 -0.0786  0.1491
  732POPI   D2A 9904   7.710  11.653   6.772 -0.1376  0.1622 -0.3910
  732POPI   C3A 9905   7.612  11.768   7.240 -0.3112 -0.1123  0.3690
  732POPI   C4A 9906   7.434  11.993   7.550  0.1051 -0.0963  0.0073
  732POPI   C1B 9907   7.965  11.125   6.685 -0.1470 -0.1013 -0.1025
  732POPI   C2B 9908   7.875  11.281   7.027 -0.1915  0.1299  0.0244
  732POPI   C3B 9909   7.922  11.072   7.416 -0.0004  0.4673 -0.0773
  732POPI   C4B 9910   7.724  10.727   7.692 -0.0337  0.0667 -0.0183
  733POPI    C1 9911  17.030   9.076   5.993  0.0582 -0.1765  0.0433
  733POPI    C2 9912  17.292   9.155   5.701 -0.1973  0.1066 -0.1162
  733POPI    C3 9913  16.912   9.067   5.610 -0.2143 -0.0765  0.1223
  733POPI   PO4 9914  17.159   9.015   6.194  0.2116 -0.1741 -0.0047
  733POPI   GL1 9915  17.054   8.636   6.367 -0.1928  0.1705 -0.0152
  733POPI   GL2 9916  17.169   8.738   6.667 -0.1413  0.0876 -0.2211
  733POPI   C1A 9917  17.120   8.230   6.555 -0.0191  0.0913 -0.1920
  733POPI   D2A 9918  17.370   7.971   6.704  0.1412  0.0975 -0.4036
  733POPI   C3A 9919  17.398   7.995   7.091  0.1921  0.2061 -0.0356
  733POPI   C4A 9920  17.426   8.239   7.521  0.0247 -0.0222  0.1893
  733POPI   C1B 9921  17.179   8.852   7.079 -0.0570  0.2563  0.0058
  733POPI   C2B 9922  17.317   8.835   7.526  0.2804 -0.0502 -0.0861
  733POPI   C3B 9923  17.468   8.571   7.960 -0.1130 -0.6662  0.0938
  733POPI   C4B 9924  17.779   8.261   8.116  0.0554  0.0410  0.0517
  734POPI    C1 9925   8.322   2.251   5.689 -0.0052 -0.0465  0.1033
  734POPI    C2 9926   8.248   1.872   5.587 -0.1179  0.0313 -0.1112
  734POPI    C3 9927   8.214   2.162   5.314 -0.1694  0.2129  0.0861
  734POPI   PO4 9928   8.615   2.301   5.898  0.0811 -0.0984 -0.0556
  734POPI   GL1 9929   8.745   2.116   6.277  0.3211  0.0874 -0.2535
  734POPI   GL2 9930   8.464   2.145   6.412  0.0905 -0.0458 -0.0942
  734POPI   C1A 9931   8.996   1.957   6.500  0.1522  0.1685 -0.0532
  734POPI   D2A 9932   9.354   2.072   6.678 -0.1787  0.0653 -0.0891
  734POPI   C3A 9933   9.632   1.892   7.005  0.1392  0.1708 -0.1836
  734POPI   C4A 9934  10.123   1.871   7.063  0.0412  0.0959 -0.2560
  734POPI   C1B 9935   8.489   2.138   6.842 -0.0214  0.2423 -0.0266
  734POPI   C2B 9936   8.484   2.233   7.134 -0.0661 -0.0707  0.1959
  734POPI   C3B 9937   8.557   2.427   7.654  0.1349  0.1804 -0.1775
  734POPI   C4B 9938   8.974   2.655   7.963 -0.0102  0.1459  0.0234
  735POPI    C1 9939   7.731  12.997   5.372  0.0223 -0.1100  0.1197
  735POPI    C2 9940   7.349  12.891   5.419  0.0171 -0.1209  0.0536
  735POPI    C3 9941   7.441  13.221   5.213  0.0263  0.0869  0.3821
  735POPI   PO4 9942   7.829  12.810   5.592 -0.0727  0.1387 -0.1525
  735POPI   GL1 9943   7.656  12.609   5.913 -0.2079  0.3526  0.1842
  735POPI   GL2 9944   7.518  12.863   6.001 -0.1230 -0.0586 -0.1455
  735POPI   C1A 9945   7.746  12.288   6.231  0.0167  0.1776  0.1027
  735POPI   D2A 9946   7.885  12.112   6.564 -0.1583  0.0384  0.2254
  735POPI   C3A 9947   7.808  12.073   6.910  0.1421 -0.1723 -0.0010
  735POPI   C4A 9948   7.616  12.324   7.210 -0.0594 -0.4081  0.1108
  735POPI   C1B 9949   7.471  12.678   6.414 -0.0772  0.3391  0.0790
  735POPI   C2B 9950   7.488  12.701   6.865 -0.0597 -0.0966  0.1673
  735POPI   C3B 9951   7.458  12.860   7.252 -0.0393  0.3267 -0.1097
  735POPI   C4B 9952   7.651  12.758   7.629  0.0290 -0.4327  0.2005
  736POPI    C1 9953  17.083   4.270   5.573 -0.0212  0.2319 -0.0080
  736POPI    C2 9954  16.694   4.207   5.640  0.0057  0.0760  0.0065
  736POPI    C3 9955  16.828   4.578   5.570 -0.1209  0.1525  0.1636
  736POPI   PO4 9956  17.246   4.121   5.755 -0.1444 -0.1891  0.0016
  736POPI   GL1 9957  17.415   4.084   6.182 -0.1499 -0.1671  0.1613
  736POPI   GL2 9958  17.398   3.899   6.396  0.0107 -0.2509 -0.0957
  736POPI   C1A 9959  17.723   4.238   6.497 -0.1999  0.0529 -0.1811
  736POPI   D2A 9960  18.046   4.476   6.728  0.0954  0.0655  0.0418
  736POPI   C3A 9961  18.372   4.373   7.028 -0.0809  0.0954  0.1336
  736POPI   C4A 9962  18.647   4.669   7.242  0.0773  0.0766 -0.0584
  736POPI   C1B 9963  17.380   3.894   6.791 -0.2193  0.0498 -0.0826
  736POPI   C2B 9964  17.480   3.856   7.214 -0.2294  0.0939 -0.1353
  736POPI   C3B 9965  17.784   4.019   7.477  0.0323 -0.2056  0.2899
  736POPI   C4B 9966  17.861   4.014   7.880 -0.1470 -0.5687  0.2524
  737POPI    C1 9967   1.228   7.851   5.742 -0.0551  0.1437 -0.3903
  737POPI    C2 9968   1.521   8.092   5.615  0.1350  0.1342  0.0130
  737POPI    C3 9969   1.199   8.030   5.386  0.3615  0.2895 -0.3567
  737POPI   PO4 9970   1.256   7.887   6.049  0.3429  0.1278  0.2254
  737POPI   GL1 9971   1.340   7.834   6.502 -0.0637 -0.1987 -0.2103
  737POPI   GL2 9972   1.273   7.423   6.558 -0.0233  0.2228  0.1738
  737POPI   C1A 9973   1.395   8.128   6.877  0.0800 -0.2638  0.2674
  737POPI   D2A 9974   1.252   8.255   7.271  0.0570 -0.0750  0.0465
  737POPI   C3A 9975   1.534   8.215   7.614 -0.0312 -0.4784  0.1140
  737POPI   C4A 9976   1.800   8.329   7.875 -0.0159  0.1780  0.0720
  737POPI   C1B 9977   1.462   7.522   6.937  0.1569 -0.2959  0.0173
  737POPI   C2B 9978   1.511   7.347   7.337 -0.1257 -0.1392 -0.2587
  737POPI   C3B 9979   1.808   7.341   7.673  0.0156 -0.1483  0.0975
  737POPI   C4B 9980   1.673   7.351   8.044 -0.1595  0.1473 -0.0955
  738POPI    C1 9981   5.862  14.732   5.035 -0.1285  0.0399 -0.2853
  738POPI    C2 9982   5.917  15.109   5.157  0.0147 -0.0793  0.0305
  738POPI    C3 9983   6.079  14.985   4.813  0.1263  0.0947  0.0189
  738POPI   PO4 9984   5.784  14.632   5.346 -0.2225 -0.0796  0.0332
  738POPI   GL1 9985   5.447  14.471   5.676 -0.1910 -0.0003 -0.1116
  738POPI   GL2 9986   5.116  14.543   5.859 -0.0804  0.0504  0.1581
  738POPI   C1A 9987   5.270  14.217   6.113  0.1077 -0.0738  0.0747
  738POPI   D2A 9988   5.424  13.909   6.344 -0.1319 -0.3366 -0.1792
  738POPI   C3A 9989   5.464  13.899   6.794 -0.0864 -0.0462 -0.1391
  738POPI   C4A 9990   5.541  13.848   7.240 -0.0588 -0.0871  0.0420
  738POPI   C1B 9991   5.242  14.672   6.291 -0.1348 -0.0186 -0.4399
  738POPI   C2B 9992   5.279  14.954   6.441  0.0555 -0.0926 -0.1928
  738POPI   C3B 9993   5.003  15.178   6.735 -0.0100  0.0920 -0.1300
  738POPI   C4B 9994   4.497  15.318   6.656 -0.0907  0.1597  0.0116
  739POPI    C1 9995   7.695  11.063   5.358 -0.1712  0.1069 -0.0172
  739POPI    C2 9996   7.408  11.008   5.085 -0.0290 -0.1716 -0.1144
  739POPI    C3 9997   7.789  10.932   4.992  0.0472 -0.0524  0.0940
  739POPI   PO4 9998   7.605  11.031   5.711  0.0811  0.0134 -0.1753
  739POPI   GL1 9999   7.583  10.728   6.088  0.0759 -0.1421  0.2058
  739POPI   GL210000   7.265  10.780   6.071  0.4137 -0.4594  0.0220
  739POPI   C1A10001   7.764  10.692   6.516 -0.0463 -0.1874  0.1323
  739POPI   D2A10002   7.736  10.744   6.921  0.0069 -0.1049  0.2224
  739POPI   C3A10003   7.816  10.503   7.223 -0.4675  0.1940 -0.0492
  739POPI   C4A10004   7.955  10.180   7.520  0.1421 -0.2123 -0.0640
  739POPI   C1B10005   7.171  10.667   6.510  0.1360  0.1681 -0.0027
  739POPI   C2B10006   6.935  10.367   6.680  0.0388 -0.2249 -0.0689
  739POPI   C3B10007   7.037   9.987   6.526  0.0988  0.3591 -0.2846
  739POPI   C4B10008   7.320   9.654   6.319  0.1201  0.0492 -0.0601
  740POPI    C110009   7.126   3.888   5.693 -0.0426  0.2152  0.0725
  740POPI    C210010   7.443   3.964   5.460 -0.0501 -0.1497 -0.0636
  740POPI    C310011   7.427   3.625   5.672 -0.1580  0.0636  0.2786
  740POPI   PO410012   7.172   4.154   5.898 -0.2950  0.0198  0.2949
  740POPI   GL110013   7.147   4.142   6.361 -0.3171 -0.2484  0.2152
  740POPI   GL210014   6.866   4.152   6.538  0.2269  0.1816  0.2537
  740POPI   C1A10015   7.346   4.319   6.675  0.0262 -0.0598  0.1535
  740POPI   D2A10016   7.611   4.574   6.979  0.0468  0.0992 -0.0111
  740POPI   C3A10017   7.578   4.550   7.392  0.0509  0.2962 -0.1361
  740POPI   C4A10018   7.553   4.418   7.916  0.3908 -0.1583  0.1375
  740POPI   C1B10019   7.000   4.084   6.929 -0.1212  0.2688 -0.2252
  740POPI   C2B10020   7.320   4.149   7.217  0.2739  0.0763 -0.0577
  740POPI   C3B10021   7.531   4.001   7.566 -0.1377 -0.0201  0.0212
  740POPI   C4B10022   7.589   3.759   7.970  0.0221 -0.0367  0.0548
  741POPI    C110023   3.752   8.605   5.524 -0.3524  0.0880  0.1628
  741POPI    C210024   3.463   8.872   5.448 -0.3039  0.1910  0.3361
  741POPI    C310025   3.792   8.983   5.647 -0.1108  0.0914  0.0789
  741POPI   PO410026   3.701   8.448   5.722 -0.2627  0.2136  0.4615
  741POPI   GL110027   3.820   8.372   6.046  0.1510 -0.1981  0.1404
  741POPI   GL210028   3.686   8.729   6.074 -0.1116 -0.1393  0.2653
  741POPI   C1A10029   4.117   8.491   6.377 -0.1375  0.0794 -0.1382
  741POPI   D2A10030   4.362   8.847   6.646  0.1490 -0.2255 -0.0670
  741POPI   C3A10031   4.368   8.973   7.089 -0.0660  0.1160 -0.0252
  741POPI   C4A10032   4.657   9.028   7.402  0.1065  0.0131 -0.1016
  741POPI   C1B10033   3.604   9.170   6.122  0.1166  0.0105 -0.1535
  741POPI   C2B10034   3.707   9.558   6.370 -0.0350 -0.0866  0.0668
  741POPI   C3B10035   3.634   9.776   6.697 -0.0038 -0.0898 -0.0123
  741POPI   C4B10036   3.606   9.842   7.150 -0.1195  0.1236 -0.0500
  742POPS   CNO10037  15.314   7.109   5.808 -0.2042  0.0092  0.0984
  742POPS   PO410038  15.344   7.261   6.137  0.0429  0.3526 -0.1032
  742POPS   GL110039  15.318   7.082   6.607  0.2373  0.0859  0.2133
  742POPS   GL210040  15.117   6.822   6.607  0.2928 -0.2264 -0.0465
  742POPS   C1A10041  15.368   7.142   7.036 -0.0101  0.1377 -0.3267
  742POPS   D2A10042  15.124   7.338   7.373 -0.1558  0.1087 -0.2657
  742POPS   C3A10043  14.959   7.187   7.706  0.0787 -0.2291 -0.3378
  742POPS   C4A10044  15.110   6.997   8.007 -0.1251 -0.0677 -0.3858
  742POPS   C1B10045  14.835   6.587   6.872  0.2323  0.0452 -0.0350
  742POPS   C2B10046  14.670   6.240   7.122  0.2183  0.3048 -0.0180
  742POPS   C3B10047  14.558   6.038   7.596  0.1904 -0.0360  0.0472
  742POPS   C4B10048  14.539   5.733   8.026 -0.2963 -0.2228  0.2363
  743POPS   CNO10049   4.278   2.458   5.033  0.0261  0.1587 -0.2925
  743POPS   PO410050   4.272   2.494   5.417 -0.0380  0.2388  0.0876
  743POPS   GL110051   3.986   2.558   5.687 -0.0236 -0.0122  0.1591
  743POPS   GL210052   3.880   2.323   5.866 -0.1345  0.1329  0.0699
  743POPS   C1A10053   3.984   2.694   6.128  0.3221 -0.2422  0.1488
  743POPS   D2A10054   4.257   2.533   6.480  0.1535 -0.1032  0.0201
  743POPS   C3A10055   3.970   2.511   6.896 -0.0981  0.3464  0.0440
  743POPS   C4A10056   3.852   2.345   7.320 -0.0788 -0.0716  0.0419
  743POPS   C1B10057   3.998   2.107   6.176  0.0503 -0.2307  0.1134
  743POPS   C2B10058   4.021   2.084   6.563  0.1161  0.2601 -0.2582
  743POPS   C3B10059   4.082   2.041   7.033 -0.0122 -0.2488 -0.2077
  743POPS   C4B10060   4.299   1.908   7.440 -0.3700  0.0203  0.0027
  744POPS   CNO10061  12.075  13.459   5.816  0.0401 -0.0395 -0.1730
  744POPS   PO410062  12.192  13.699   5.713 -0.1748  0.1959  0.0724
  744POPS   GL110063  12.161  13.837   6.102  0.0139 -0.2000 -0.0797
  744POPS   GL210064  11.994  13.642   6.283 -0.0631 -0.0827 -0.2155
  744POPS   C1A10065  12.121  14.156   6.293 -0.0287  0.0421 -0.0801
  744POPS   D2A10066  12.079  14.498   6.452  0.3180  0.1689  0.2309
  744POPS   C3A10067  11.998  14.782   6.216 -0.0322 -0.2348 -0.1039
  744POPS   C4A10068  11.713  15.062   6.144  0.2568 -0.0468 -0.0496
  744POPS   C1B10069  12.283  13.381   6.420  0.0966  0.0667 -0.1277
  744POPS   C2B10070  12.439  13.368   6.869 -0.1879 -0.1290  0.0364
  744POPS   C3B10071  12.284  13.442   7.357  0.0483  0.0300 -0.1404
  744POPS   C4B10072  12.036  13.208   7.593 -0.2600  0.1937  0.3110
  745POPS   CNO10073   0.314  10.026   6.064 -0.0755  0.0119  0.1542
  745POPS   PO410074   0.156  10.395   6.138  0.2727  0.2451 -0.2571
  745POPS   GL110075  -0.085  10.342   6.534  0.0303 -0.2550  0.3068
  745POPS   GL210076  -0.238  10.611   6.643  0.1363 -0.0812 -0.2803
  745POPS   C1A10077   0.023  10.370   6.944  0.2965  0.0595  0.0357
  745POPS   D2A10078   0.053  10.545   7.365  0.1267  0.1110  0.2736
  745POPS   C3A10079  -0.041  10.500   7.742  0.3097 -0.0815  0.1073
  745POPS   C4A10080  -0.091  10.491   8.183  0.1735 -0.3339 -0.1586
  745POPS   C1B10081   0.150  10.825   6.815 -0.0273 -0.0224  0.3383
  745POPS   C2B10082   0.342  10.940   7.149  0.1207  0.0768 -0.1664
  745POPS   C3B10083   0.411  10.790   7.557  0.2044  0.1208 -0.1354
  745POPS   C4B10084   0.347  10.677   8.058 -0.3146 -0.0405 -0.1439
  746POPS   CNO10085   1.220   2.735   5.304  0.4045  0.2582  0.0441
  746POPS   PO410086   1.223   2.911   5.739 -0.2803 -0.1726  0.1864
  746POPS   GL110087   1.411   2.843   6.109  0.0786  0.2109 -0.0497
  746POPS   GL210088   1.221   2.600   6.282  0.1699  0.2025 -0.1014
  746POPS   C1A10089   1.315   3.064   6.585 -0.0231 -0.1093 -0.1838
  746POPS   D2A10090   1.485   2.967   6.943 -0.1436  0.2907 -0.0836
  746POPS   C3A10091   1.643   3.266   7.318  0.1510  0.0843  0.1552
  746POPS   C4A10092   1.775   3.544   7.528  0.1710  0.0396 -0.0424
  746POPS   C1B10093   1.134   2.593   6.753 -0.0667  0.0420 -0.0280
  746POPS   C2B10094   1.179   2.619   7.128 -0.2297 -0.1728 -0.0333
  746POPS   C3B10095   1.359   2.836   7.457 -0.1316  0.0860 -0.1274
  746POPS   C4B10096   1.500   3.135   7.775  0.0406 -0.1639 -0.0107
  747POPS   CNO10097  12.001   3.309   6.067  0.0101  0.3208  0.0493
  747POPS   PO410098  12.268   3.376   6.309  0.0969  0.0700  0.0735
  747POPS   GL110099  12.122   3.124   6.605 -0.0504 -0.0507 -0.1303
  747POPS   GL210100  12.246   2.873   6.601 -0.4819  0.0571  0.4018
  747POPS   C1A10101  11.883   3.128   7.024 -0.0471  0.0191 -0.0834
  747POPS   D2A10102  11.655   2.955   7.231  0.0557 -0.0458 -0.2257
  747POPS   C3A10103  11.743   2.778   7.611 -0.4940 -0.2502 -0.2405
  747POPS   C4A10104  11.667   2.668   8.032  0.2310  0.0924 -0.0375
  747POPS   C1B10105  11.925   2.636   6.873  0.2024  0.1018  0.5125
  747POPS   C2B10106  11.640   2.448   7.233  0.3419  0.3030  0.0065
  747POPS   C3B10107  11.392   2.373   7.625  0.2671 -0.1814  0.2622
  747POPS   C4B10108  11.352   2.265   7.969  0.4241  0.1181 -0.2294
  748POPS   CNO10109  11.258  17.247   5.883 -0.1251  0.2895 -0.0949
  748POPS   PO410110  11.055  17.600   6.026  0.3023  0.0141  0.0304
  748POPS   GL110111  11.096  17.328   6.435  0.3191  0.0967  0.2279
  748POPS   GL210112  11.351  17.418   6.619  0.0562 -0.0295 -0.0680
  748POPS   C1A10113  11.004  17.235   6.986 -0.2845  0.0959  0.0217
  748POPS   D2A10114  10.677  17.191   7.251 -0.0427 -0.0848  0.1522
  748POPS   C3A10115  10.709  17.385   7.656 -0.1889 -0.0061 -0.1066
  748POPS   C4A10116  10.481  17.409   8.059  0.0121  0.0722  0.3666
  748POPS   C1B10117  11.507  17.157   6.929  0.1358 -0.2018 -0.0102
  748POPS   C2B10118  11.341  16.864   7.175 -0.0122  0.3634 -0.1507
  748POPS   C3B10119  11.469  16.639   7.598  0.0088 -0.3136  0.3267
  748POPS   C4B10120  11.254  16.672   8.030 -0.1527 -0.0953  0.1525
  749POPS   CNO10121  12.071  10.825   5.862  0.0421  0.0566 -0.0281
  749POPS   PO410122  12.472  10.841   6.018  0.4316  0.0563  0.0170
  749POPS   GL110123  12.662  10.912   6.389  0.0788  0.0739 -0.1445
  749POPS   GL210124  12.528  11.280   6.280 -0.1595 -0.2444 -0.1073
  749POPS   C1A10125  12.655  10.988   6.787 -0.2995  0.1565  0.1125
  749POPS   D2A10126  12.657  11.200   7.150  0.1649 -0.1134 -0.4477
  749POPS   C3A10127  12.384  11.248   7.584 -0.0325 -0.0022 -0.0981
  749POPS   C4A10128  12.383  11.060   8.008  0.0961 -0.2098  0.1381
  749POPS   C1B10129  12.612  11.505   6.726  0.1064  0.0071 -0.1206
  749POPS   C2B10130  12.595  11.690   7.023  0.0803 -0.0531  0.1941
  749POPS   C3B10131  12.358  11.671   7.349 -0.0871 -0.0066 -0.4036
  749POPS   C4B10132  12.344  11.693   7.856  0.1920 -0.1860 -0.1606
  750POPS   CNO10133  10.151   5.389   5.681 -0.0734 -0.0402 -0.0154
  750POPS   PO410134  10.198   5.279   6.185 -0.2435 -0.1987  0.2386
  750POPS   GL110135  10.282   5.422   6.650 -0.0914  0.2219  0.0244
  750POPS   GL210136  10.581   5.576   6.765  0.2233 -0.1517 -0.1290
  750POPS   C1A10137  10.147   5.555   7.075 -0.3618 -0.1379 -0.0744
  750POPS   D2A10138  10.138   5.688   7.501  0.0512 -0.0441  0.1000
  750POPS   C3A10139  10.225   5.370   7.760  0.3138  0.0394  0.1122
  750POPS   C4A10140  10.423   5.025   7.892  0.1786 -0.0014 -0.2333
  750POPS   C1B10141  10.566   5.749   7.235  0.1118  0.1826 -0.2258
  750POPS   C2B10142  10.560   5.760   7.741  0.2967 -0.0231  0.1325
  750POPS   C3B10143  10.586   5.894   8.181  0.0315  0.2101  0.2295
  750POPS   C4B10144  10.889   5.900   8.413 -0.2417 -0.3313  0.0305
  751POPS   CNO10145   8.480  17.649   5.724  0.1086  0.1464 -0.0298
  751POPS   PO410146   8.096  17.918   5.642  0.1467 -0.2180 -0.0593
  751POPS   GL110147   7.912  17.692   6.017 -0.0768 -0.0070  0.2052
  751POPS   GL210148   8.171  17.661   6.164  0.0297  0.0663 -0.1099
  751POPS   C1A10149   7.682  17.481   6.413  0.2434  0.0245 -0.1914
  751POPS   D2A10150   7.373  17.388   6.749 -0.1038  0.0970  0.1513
  751POPS   C3A10151   7.448  17.436   7.160 -0.2535 -0.0837 -0.1290
  751POPS   C4A10152   7.222  17.444   7.566 -0.0359  0.1404 -0.3111
  751POPS   C1B10153   8.233  17.548   6.554  0.1963 -0.1157 -0.0897
  751POPS   C2B10154   7.977  17.339   6.794 -0.0584 -0.2132  0.0090
  751POPS   C3B10155   7.957  17.217   7.147 -0.0573  0.2177 -0.0823
  751POPS   C4B10156   8.144  17.188   7.483 -0.1398  0.1978 -0.1402
  752POPS   CNO10157  13.915   9.887   6.062 -0.0379 -0.0845 -0.1664
  752POPS   PO410158  13.596  10.066   6.231  0.0977 -0.3900 -0.0244
  752POPS   GL110159  13.410   9.999   6.550  0.1595 -0.0090  0.3239
  752POPS   GL210160  13.134  10.040   6.589  0.0916 -0.4198 -0.4222
  752POPS   C1A10161  13.344  10.033   7.091  0.0522 -0.1797  0.2318
  752POPS   D2A10162  13.310  10.054   7.549 -0.3616  0.4485  0.0569
  752POPS   C3A10163  13.287   9.712   7.692 -0.3730  0.0566 -0.2675
  752POPS   C4A10164  13.380   9.488   8.062 -0.0289  0.0579 -0.4093
  752POPS   C1B10165  12.883   9.919   6.941 -0.0630 -0.0745 -0.2035
  752POPS   C2B10166  12.837  10.123   7.389 -0.0896 -0.1398 -0.1527
  752POPS   C3B10167  12.903   9.900   7.812  0.0117  0.3376 -0.3718
  752POPS   C4B10168  13.154   9.944   8.155  0.1230 -0.1870 -0.2438
  753POPS   CNO10169  13.733   0.756   5.957  0.0503 -0.0899 -0.3090
  753POPS   PO410170  14.007   0.855   6.280  0.0968 -0.0585  0.0446
  753POPS   GL110171  13.984   1.028   6.666  0.0711  0.1148 -0.0472
  753POPS   GL210172  14.286   1.221   6.775  0.0870  0.0613 -0.0380
  753POPS   C1A10173  14.045   1.073   7.176  0.1674  0.0369 -0.3320
  753POPS   D2A10174  14.061   1.389   7.392  0.0605 -0.1889  0.0903
  753POPS   C3A10175  13.909   1.343   7.844 -0.2193  0.1782  0.1824
  753POPS   C4A10176  13.488   1.141   7.951  0.0348 -0.0404  0.0411
  753POPS   C1B10177  14.504   1.201   7.201 -0.0378 -0.0930  0.1755
  753POPS   C2B10178  14.532   1.435   7.602  0.0426  0.2534  0.3659
  753POPS   C3B10179  14.417   1.449   8.044 -0.0782 -0.1205 -0.1939
  753POPS   C4B10180  14.604   1.634   8.514  0.1770  0.0899 -0.0090
  754POPS   CNO10181   2.315  16.937   6.052 -0.2654  0.3507  0.0550
  754POPS   PO410182   2.751  16.781   6.008 -0.2527  0.0337  0.0932
  754POPS   GL110183   2.620  16.553   6.397  0.2626 -0.0898 -0.0074
  754POPS   GL210184   2.540  16.207   6.411 -0.1280 -0.0904  0.5508
  754POPS   C1A10185   2.737  16.469   6.884  0.1121  0.1687 -0.1236
  754POPS   D2A10186   2.918  16.557   7.243 -0.0535  0.2259 -0.1953
  754POPS   C3A10187   2.805  16.542   7.649  0.4208  0.1762  0.0558
  754POPS   C4A10188   2.651  16.510   8.076  0.0974 -0.0742  0.1471
  754POPS   C1B10189   2.612  15.940   6.796  0.2100  0.2980 -0.0754
  754POPS   C2B10190   2.572  15.707   7.256 -0.0979 -0.1877  0.1346
  754POPS   C3B10191   2.880  15.537   7.427 -0.3538  0.0589 -0.3890
  754POPS   C4B10192   3.051  15.488   7.803  0.0779  0.0077 -0.2369
  755POPS   CNO10193   8.956   8.864   5.857  0.2468 -0.0092 -0.0905
  755POPS   PO410194   9.294   8.811   5.897  0.2914  0.0025 -0.0510
  755POPS   GL110195   9.137   9.110   6.293 -0.1731  0.1979 -0.0543
  755POPS   GL210196   9.142   9.406   6.238  0.1105 -0.2168 -0.4412
  755POPS   C1A10197   9.018   9.044   6.666 -0.0286  0.1449  0.3863
  755POPS   D2A10198   8.934   9.207   7.112  0.1231 -0.1752  0.0032
  755POPS   C3A10199   8.939   9.025   7.499  0.0935  0.1090 -0.0735
  755POPS   C4A10200   9.277   9.097   7.830 -0.1689  0.3796 -0.1647
  755POPS   C1B10201   9.291   9.477   6.682  0.2902 -0.0717  0.0303
  755POPS   C2B10202   9.141   9.621   7.153  0.2561  0.0803 -0.0280
  755POPS   C3B10203   8.816   9.542   7.473  0.0363  0.0899  0.0972
  755POPS   C4B10204   8.862   9.423   7.813  0.0005 -0.2082 -0.0613
  756POPS   CNO10205  10.668  15.816   5.298 -0.0591  0.0566 -0.1092
  756POPS   PO410206  10.574  15.400   5.354  0.0423 -0.1515  0.3128
  756POPS   GL110207  10.634  15.509   5.717  0.0756 -0.0846  0.0756
  756POPS   GL210208  10.685  15.180   5.948  0.3083  0.1638  0.0744
  756POPS   C1A10209  10.745  15.706   6.070 -0.1408  0.1714 -0.1035
  756POPS   D2A10210  10.515  15.966   6.377  0.1783 -0.3037  0.1053
  756POPS   C3A10211  10.361  15.929   6.771 -0.2289 -0.0069 -0.2376
  756POPS   C4A10212  10.150  15.882   7.105  0.1704 -0.0055  0.1711
  756POPS   C1B10213  10.814  15.284   6.363  0.2332 -0.0537  0.0559
  756POPS   C2B10214  10.575  15.487   6.613  0.0113 -0.0069 -0.0734
  756POPS   C3B10215  10.407  15.467   7.043 -0.0158 -0.1493 -0.0553
  756POPS   C4B10216  10.315  15.492   7.485 -0.1824 -0.1654 -0.0809
  757POPS   CNO10217  18.001  14.256   5.873 -0.0273  0.0765 -0.0404
  757POPS   PO410218  18.156  14.328   6.308  0.0208  0.0290  0.1693
  757POPS   GL110219  18.145  14.342   6.761 -0.1502  0.4038 -0.1393
  757POPS   GL210220  18.194  14.575   7.013  0.2400 -0.0071  0.0613
  757POPS   C1A10221  18.072  14.113   7.187  0.2305  0.0423 -0.1775
  757POPS   D2A10222  18.300  13.939   7.500  0.0462 -0.0833 -0.2470
  757POPS   C3A10223  18.213  14.076   7.860  0.0888  0.1043 -0.0087
  757POPS   C4A10224  18.344  14.024   8.308 -0.0239  0.0966 -0.2355
  757POPS   C1B10225  18.187  14.459   7.438 -0.2145 -0.0697 -0.1465
  757POPS   C2B10226  18.263  14.566   7.894 -0.2177  0.0077  0.0357
  757POPS   C3B10227  18.253  14.588   8.324  0.0557 -0.0262  0.2524
  757POPS   C4B10228  18.386  14.289   8.704 -0.0030 -0.3251 -0.0513
  758POPS   CNO10229   7.809  17.556   5.483 -0.3110  0.1663 -0.2271
  758POPS   PO410230   7.416  17.829   5.518  0.0921 -0.0952 -0.1456
  758POPS   GL110231   7.346  17.636   5.950  0.0201  0.2265  0.1134
  758POPS   GL210232   7.375  17.838   6.225 -0.0303 -0.1665 -0.0665
  758POPS   C1A10233   7.303  17.303   6.146  0.0155 -0.0277 -0.0484
  758POPS   D2A10234   7.121  16.963   6.466  0.0056  0.2703 -0.3330
  758POPS   C3A10235   6.732  17.072   6.681  0.0939 -0.1330 -0.1359
  758POPS   C4A10236   6.444  17.387   6.620  0.0284  0.2447  0.0371
  758POPS   C1B10237   7.363  17.891   6.617 -0.1773  0.0347 -0.0743
  758POPS   C2B10238   7.222  17.871   6.972 -0.0379  0.0865 -0.0680
  758POPS   C3B10239   7.278  17.901   7.292  0.0600  0.1214 -0.0502
  758POPS   C4B10240   7.501  17.936   7.624  0.1080 -0.1993 -0.0526
  759POPS   CNO10241   6.327   9.459   5.159 -0.4782 -0.1603 -0.4604
  759POPS   PO410242   6.171   9.851   5.230 -0.1482  0.2612  0.4222
  759POPS   GL110243   6.314  10.007   5.726  0.1530 -0.1990  0.0541
  759POPS   GL210244   6.369   9.632   5.728 -0.3753  0.0724 -0.0169
  759POPS   C1A10245   6.048   9.904   6.052 -0.1032 -0.1425 -0.0386
  759POPS   D2A10246   5.572   9.866   6.078  0.1196  0.2021 -0.1431
  759POPS   C3A10247   5.393   9.444   6.151 -0.0447 -0.1423  0.2130
  759POPS   C4A10248   5.453   9.048   6.348  0.1789 -0.0269 -0.0561
  759POPS   C1B10249   6.368   9.506   6.198  0.0370 -0.1408  0.0266
  759POPS   C2B10250   6.277   9.521   6.567  0.1382  0.0580  0.1582
  759POPS   C3B10251   6.081   9.399   6.903 -0.0477  0.0025  0.0041
  759POPS   C4B10252   6.033   9.629   7.262  0.2863 -0.3764 -0.2347
  760POPS   CNO10253   3.444  15.512   5.580 -0.1457 -0.1567  0.1338
  760POPS   PO410254   3.608  15.112   5.835  0.0419 -0.0764  0.0707
  760POPS   GL110255   3.605  15.054   6.309  0.2192 -0.0516 -0.3814
  760POPS   GL210256   3.810  15.297   6.380 -0.0497 -0.0128 -0.2002
  760POPS   C1A10257   3.468  15.214   6.695 -0.1223 -0.0065  0.1101
  760POPS   D2A10258   3.393  15.002   6.996  0.0137 -0.0823  0.0476
  760POPS   C3A10259   3.273  15.225   7.373 -0.2368 -0.1608  0.2951
  760POPS   C4A10260   3.553  15.371   7.694 -0.0808  0.3365  0.0856
  760POPS   C1B10261   3.999  15.170   6.752  0.0913  0.1173 -0.2856
  760POPS   C2B10262   3.948  14.821   7.020 -0.0151  0.4425  0.3248
  760POPS   C3B10263   3.674  14.479   7.050 -0.0836 -0.1027 -0.2859
  760POPS   C4B10264   3.509  14.068   7.252 -0.0612 -0.2170  0.2085
  761POPS   CNO10265   9.001  11.095   5.528  0.2755  0.2390  0.0571
  761POPS   PO410266   9.350  10.853   5.448 -0.0701 -0.0195 -0.1545
  761POPS   GL110267   9.166  10.738   5.861 -0.3161 -0.4582 -0.0846
  761POPS   GL210268   9.439  10.813   5.985  0.0732  0.1245  0.0107
  761POPS   C1A10269   8.922  10.714   6.141  0.2761  0.0837  0.2199
  761POPS   D2A10270   8.928  10.708   6.632  0.0541 -0.1295  0.1435
  761POPS   C3A10271   8.859  10.994   7.046  0.1386  0.0332 -0.0409
  761POPS   C4A10272   8.844  11.251   7.372 -0.1915  0.1563 -0.1384
  761POPS   C1B10273   9.756  10.729   6.370 -0.2626 -0.0910 -0.1153
  761POPS   C2B10274   9.839  10.399   6.721 -0.0330  0.0376 -0.1010
  761POPS   C3B10275   9.823  10.291   7.188 -0.0918 -0.0492  0.1764
  761POPS   C4B10276  10.145  10.456   7.500  0.1482 -0.0435 -0.0861
  762POPS   CNO10277   6.650  15.740   4.748 -0.0158  0.1794  0.3622
  762POPS   PO410278   6.533  15.820   5.114 -0.0051  0.2003 -0.0633
  762POPS   GL110279   6.772  15.869   5.477 -0.0888  0.3509 -0.0899
  762POPS   GL210280   6.540  15.803   5.650  0.1863 -0.1059  0.0809
  762POPS   C1A10281   6.968  16.024   5.832  0.3227  0.2198 -0.1104
  762POPS   D2A10282   7.116  16.361   6.026 -0.1719 -0.2123  0.2933
  762POPS   C3A10283   6.893  16.660   6.187 -0.0447 -0.1589 -0.0802
  762POPS   C4A10284   6.696  17.168   6.166 -0.1371  0.1255  0.0930
  762POPS   C1B10285   6.620  15.741   6.002  0.0666  0.1696  0.0981
  762POPS   C2B10286   6.765  15.578   6.502  0.3159 -0.3757  0.0020
  762POPS   C3B10287   6.883  15.501   6.915 -0.0156  0.2871 -0.1229
  762POPS   C4B10288   7.039  15.451   7.233 -0.2417 -0.0160 -0.1104
  763POPS   CNO10289   4.154  12.511   5.829  0.2050  0.2594  0.0736
  763POPS   PO410290   3.959  12.165   5.695  0.1035 -0.1054 -0.0053
  763POPS   GL110291   3.931  12.142   6.141 -0.1318  0.1141 -0.0363
  763POPS   GL210292   3.811  12.368   6.240 -0.0828  0.1998  0.0900
  763POPS   C1A10293   3.860  11.900   6.564 -0.3180 -0.5287 -0.2598
  763POPS   D2A10294   3.879  11.870   6.992 -0.0918  0.0432 -0.0507
  763POPS   C3A10295   3.611  11.685   7.302  0.1249  0.1938 -0.1890
  763POPS   C4A10296   3.422  11.538   7.594  0.2419 -0.0753 -0.0584
  763POPS   C1B10297   3.740  12.458   6.692 -0.1149  0.2637  0.1727
  763POPS   C2B10298   3.731  12.322   7.186 -0.0452 -0.0966 -0.3210
  763POPS   C3B10299   3.777  12.361   7.540  0.3358 -0.1208  0.0779
  763POPS   C4B10300   3.597  12.318   8.005  0.0042 -0.1378 -0.1329
  764POPS   CNO10301  16.920   1.495   6.175  0.0172 -0.2893  0.1106
  764POPS   PO410302  16.650   1.728   6.136 -0.0883 -0.0638  0.3678
  764POPS   GL110303  16.532   1.540   6.519  0.0352 -0.1357 -0.3232
  764POPS   GL210304  16.805   1.411   6.661  0.3085  0.0102  0.0975
  764POPS   C1A10305  16.357   1.454   6.981  0.0441 -0.0273  0.1728
  764POPS   D2A10306  16.283   1.519   7.405 -0.2563  0.0350  0.0855
  764POPS   C3A10307  16.209   1.379   7.710 -0.1041 -0.0093 -0.0999
  764POPS   C4A10308  16.139   1.193   8.132  0.1569 -0.0731  0.0196
  764POPS   C1B10309  16.822   1.424   7.061 -0.1861  0.2235 -0.1191
  764POPS   C2B10310  16.769   1.441   7.523 -0.1812 -0.0903  0.1890
  764POPS   C3B10311  16.546   1.693   7.924 -0.0564  0.0031 -0.0772
  764POPS   C4B10312  16.395   1.561   8.315 -0.1039  0.4333  0.0288
  765POPS   CNO10313  17.363  17.518   6.091 -0.0918 -0.1226 -0.3935
  765POPS   PO410314  17.274  17.079   6.203  0.0790 -0.0339  0.2011
  765POPS   GL110315  17.479  16.853   6.576  0.1013 -0.0174  0.0625
  765POPS   GL210316  17.725  16.974   6.921 -0.2585  0.1496  0.4389
  765POPS   C1A10317  17.505  16.588   6.920 -0.0670  0.2660  0.0083
  765POPS   D2A10318  17.109  16.471   7.183  0.1455 -0.2070 -0.1191
  765POPS   C3A10319  17.007  16.474   7.596 -0.1326  0.3191  0.0969
  765POPS   C4A10320  16.737  16.328   7.853  0.1924 -0.2023  0.1181
  765POPS   C1B10321  17.607  17.117   7.393  0.1598  0.0838 -0.1109
  765POPS   C2B10322  17.743  17.126   7.753  0.2164 -0.1411  0.0399
  765POPS   C3B10323  17.985  17.310   8.054  0.0430 -0.3757  0.3170
  765POPS   C4B10324  18.377  17.202   8.281 -0.0702 -0.2926 -0.0556
  766POPS   CNO10325  18.089   0.449   5.686  0.1202 -0.1683 -0.3266
  766POPS   PO410326  18.025   0.521   6.078  0.1868  0.1600  0.0269
  766POPS   GL110327  18.014   0.541   6.558 -0.0314 -0.2121 -0.1743
  766POPS   GL210328  18.336   0.556   6.631  0.1268 -0.3977 -0.0271
  766POPS   C1A10329  17.993   0.602   7.028 -0.2861 -0.1139  0.0233
  766POPS   D2A10330  17.956   0.573   7.420  0.1827 -0.1030 -0.0722
  766POPS   C3A10331  18.215   0.505   7.672 -0.2264 -0.1807 -0.0265
  766POPS   C4A10332  18.512   0.203   7.845 -0.1649 -0.2210  0.0980
  766POPS   C1B10333  18.456   0.383   6.969 -0.0666  0.1389  0.0651
  766POPS   C2B10334  18.456   0.680   7.258  0.0893  0.3872 -0.1346
  766POPS   C3B10335  18.668   0.714   7.658  0.1830 -0.2886 -0.0747
  766POPS   C4B10336  18.834   0.967   7.924  0.1051  0.1487 -0.0661
  767POPS   CNO10337  12.781  12.268   5.880  0.1040  0.0785 -0.0253
  767POPS   PO410338  12.334  12.456   5.677  0.2475  0.1817  0.0243
  767POPS   GL110339  12.352  12.344   6.106 -0.1280 -0.1642 -0.2646
  767POPS   GL210340  12.229  12.609   6.196  0.0563 -0.1241 -0.1384
  767POPS   C1A10341  12.600  12.320   6.409 -0.0408 -0.1156  0.1250
  767POPS   D2A10342  12.722  12.207   6.860 -0.3420 -0.0722  0.1927
  767POPS   C3A10343  13.095  12.470   7.035  0.0965  0.0057  0.3549
  767POPS   C4A10344  13.433  12.693   6.928 -0.3046 -0.0988 -0.2464
  767POPS   C1B10345  12.084  12.389   6.581 -0.0367  0.0709 -0.0917
  767POPS   C2B10346  11.920  12.468   6.949 -0.0072  0.0344 -0.2239
  767POPS   C3B10347  11.961  12.668   7.385  0.2015  0.2984 -0.2845
  767POPS   C4B10348  11.764  12.863   7.781  0.0374  0.1182  0.1326
  768POPS   CNO10349   9.782   3.581   5.575 -0.3059  0.0431 -0.0879
  768POPS   PO410350   9.485   3.705   5.870  0.0052 -0.4214  0.1051
  768POPS   GL110351   9.714   3.644   6.294  0.1109 -0.0017 -0.0458
  768POPS   GL210352   9.870   3.336   6.416  0.0863  0.0064 -0.3414
  768POPS   C1A10353   9.964   3.874   6.509 -0.2645 -0.2762 -0.0030
  768POPS   D2A10354   9.830   3.994   6.706  0.0942 -0.1048  0.0728
  768POPS   C3A10355   9.753   3.933   7.193  0.0449 -0.2510  0.0054
  768POPS   C4A10356   9.802   3.810   7.620  0.2169  0.1145  0.0579
  768POPS   C1B10357   9.781   3.485   6.884 -0.1650  0.1004 -0.2473
  768POPS   C2B10358   9.896   3.425   7.302 -0.0919 -0.0433  0.0037
  768POPS   C3B10359   9.655   3.177   7.651  0.0554 -0.0427 -0.2765
  768POPS   C4B10360   9.407   2.889   7.872 -0.0011  0.0048  0.1534
  769POPS   CNO10361   0.031   3.169   5.724 -0.1537  0.2516 -0.0079
  769POPS   PO410362  -0.270   3.437   5.762 -0.2686  0.2408  0.0477
  769POPS   GL110363   0.014   3.318   6.189  0.2392 -0.3154 -0.1124
  769POPS   GL210364   0.189   2.955   6.297 -0.1999 -0.0396 -0.3800
  769POPS   C1A10365   0.062   3.343   6.598 -0.0302 -0.1473  0.0007
  769POPS   D2A10366   0.176   3.498   6.983  0.1245 -0.0098  0.1006
  769POPS   C3A10367   0.019   3.857   7.255 -0.0038  0.2377 -0.0757
  769POPS   C4A10368   0.053   4.233   7.518 -0.0749 -0.1758  0.0854
  769POPS   C1B10369   0.369   2.989   6.779 -0.0683  0.2461  0.1051
  769POPS   C2B10370   0.429   3.105   7.158 -0.0611 -0.0423 -0.3256
  769POPS   C3B10371   0.496   3.047   7.572 -0.2522  0.0772  0.1727
  769POPS   C4B10372   0.719   2.834   7.989 -0.0808 -0.0126  0.1036
  770POPS   CNO10373  16.648   4.508   6.437 -0.0029 -0.0414 -0.0628
  770POPS   PO410374  16.916   4.634   6.178  0.2402 -0.1351  0.0423
  770POPS   GL110375  17.159   4.528   6.495 -0.0846 -0.0151 -0.0520
  770POPS   GL210376  17.000   4.165   6.610 -0.3418  0.2131  0.1476
  770POPS   C1A10377  17.411   4.447   6.837  0.2306 -0.2555  0.0400
  770POPS   D2A10378  17.316   4.372   7.238 -0.2850 -0.1593  0.0771
  770POPS   C3A10379  17.348   4.715   7.633  0.2952  0.0261  0.1614
  770POPS   C4A10380  17.542   4.852   7.941 -0.1920 -0.3419 -0.0238
  770POPS   C1B10381  16.853   4.384   6.880 -0.2007  0.0814 -0.0879
  770POPS   C2B10382  16.810   4.395   7.236 -0.0037 -0.1210 -0.2434
  770POPS   C3B10383  16.974   4.387   7.758 -0.1239 -0.0130 -0.0136
  770POPS   C4B10384  16.932   4.432   8.116 -0.0472 -0.0564  0.0880
  771POPS   CNO10385  10.144   7.477   6.072  0.0758 -0.4958 -0.0997
  771POPS   PO410386  10.009   7.157   6.262 -0.1209 -0.1806 -0.1335
  771POPS   GL110387   9.665   7.318   6.518  0.0553 -0.0597 -0.0893
  771POPS   GL210388   9.392   7.162   6.785 -0.1322  0.1272  0.0867
  771POPS   C1A10389   9.689   7.520   6.932 -0.0915  0.1802  0.1055
  771POPS   D2A10390   9.565   7.351   7.255 -0.2878  0.1374  0.3715
  771POPS   C3A10391   9.496   7.267   7.573  0.1756 -0.2298  0.3924
  771POPS   C4A10392   9.522   7.013   7.924  0.3447  0.1190 -0.3217
  771POPS   C1B10393   9.492   6.855   7.068  0.0251 -0.0197 -0.1480
  771POPS   C2B10394   9.651   6.775   7.500 -0.0481 -0.1362  0.2046
  771POPS   C3B10395   9.886   6.682   7.887 -0.0735  0.1616 -0.0343
  771POPS   C4B10396  10.169   6.428   8.081  0.0998 -0.3674 -0.0725
  772POPS   CNO10397   0.445   2.695   5.907 -0.0151  0.0474  0.0254
  772POPS   PO410398   0.797   2.457   6.030  0.0906  0.0214  0.3949
  772POPS   GL110399   0.719   2.428   6.423 -0.5952  0.1083 -0.1237
  772POPS   GL210400   0.765   2.785   6.515 -0.0531 -0.0923 -0.2372
  772POPS   C1A10401   0.651   2.510   6.955 -0.1178  0.0219 -0.0539
  772POPS   D2A10402   0.615   2.572   7.380  0.0539  0.2066  0.5937
  772POPS   C3A10403   0.848   2.366   7.501 -0.1496  0.1576  0.2127
  772POPS   C4A10404   0.831   1.932   7.744  0.3183  0.1475 -0.0670
  772POPS   C1B10405   0.847   2.970   6.938 -0.0622  0.0169 -0.2923
  772POPS   C2B10406   0.963   3.061   7.297 -0.0088 -0.1705 -0.1150
  772POPS   C3B10407   1.011   3.157   7.732  0.4026 -0.0087 -0.1146
  772POPS   C4B10408   0.953   3.285   8.170  0.0931 -0.1433 -0.0180
  773POPS   CNO10409   5.110   2.753   5.254  0.0201  0.0812  0.1048
  773POPS   PO410410   5.303   2.462   5.504 -0.3209  0.2747 -0.2048
  773POPS   GL110411   5.258   2.304   5.920 -0.2810  0.1152  0.0386
  773POPS   GL210412   4.974   2.461   6.180  0.1470 -0.4216  0.3740
  773POPS   C1A10413   5.299   2.151   6.335  0.0377  0.1704 -0.1676
  773POPS   D2A10414   5.322   2.335   6.673  0.0120 -0.1364 -0.1559
  773POPS   C3A10415   5.180   2.143   7.043  0.1223 -0.0282 -0.1955
  773POPS   C4A10416   5.305   2.131   7.350 -0.1697 -0.2045  0.1225
  773POPS   C1B10417   4.752   2.408   6.533 -0.1335 -0.1385 -0.0992
  773POPS   C2B10418   4.498   2.242   6.898 -0.4315  0.1988  0.1165
  773POPS   C3B10419   4.441   2.344   7.258  0.0700 -0.0751 -0.1463
  773POPS   C4B10420   4.555   2.270   7.777 -0.0246  0.0478 -0.0894
  774POPS   CNO10421  14.066   7.689   6.330 -0.0402  0.2609 -0.0207
  774POPS   PO410422  13.677   7.690   6.312 -0.2450 -0.3084  0.1047
  774POPS   GL110423  13.714   8.064   6.548 -0.1594 -0.1207 -0.3840
  774POPS   GL210424  13.366   8.109   6.517 -0.3457  0.0321 -0.0070
  774POPS   C1A10425  13.774   8.141   6.943  0.1569 -0.1099 -0.0159
  774POPS   D2A10426  13.766   8.457   7.215  0.1394 -0.0577 -0.2240
  774POPS   C3A10427  13.832   8.321   7.668 -0.0981  0.0413 -0.2330
  774POPS   C4A10428  13.764   8.043   7.981  0.0141  0.1346  0.0748
  774POPS   C1B10429  13.357   8.367   6.845  0.0462  0.1874  0.0275
  774POPS   C2B10430  13.249   8.270   7.181 -0.0075 -0.0774 -0.1226
  774POPS   C3B10431  13.267   8.051   7.566 -0.2367  0.4433  0.0149
  774POPS   C4B10432  13.275   7.973   8.080 -0.0211 -0.1897 -0.2544
  775POPS   CNO10433   9.965   5.785   6.125  0.0126  0.2049  0.0193
  775POPS   PO410434  10.283   5.858   6.452  0.0384 -0.1717  0.1709
  775POPS   GL110435  10.251   6.225   6.737 -0.0105  0.1032 -0.3634
  775POPS   GL210436  10.285   6.426   6.591 -0.1079  0.1502  0.0624
  775POPS   C1A10437  10.230   6.206   7.209 -0.1687  0.1141 -0.0860
  775POPS   D2A10438  10.231   6.192   7.560  0.1811  0.0599 -0.3752
  775POPS   C3A10439  10.153   6.008   7.921 -0.1521 -0.1438  0.1037
  775POPS   C4A10440   9.843   6.043   8.275  0.0450  0.1210  0.1362
  775POPS   C1B10441  10.117   6.621   6.930  0.0262 -0.1590  0.2216
  775POPS   C2B10442  10.174   6.687   7.298 -0.0477 -0.1029  0.0845
  775POPS   C3B10443  10.277   6.696   7.659 -0.0267 -0.0734 -0.0115
  775POPS   C4B10444  10.473   6.905   7.918  0.0483  0.0817 -0.1075
  776POPS   CNO10445   2.629   2.236   5.105 -0.1044  0.0780 -0.2210
  776POPS   PO410446   3.069   2.418   5.246 -0.0737 -0.2390 -0.0331
  776POPS   GL110447   2.786   2.430   5.689 -0.3352 -0.0322  0.1991
  776POPS   GL210448   3.012   2.485   5.987 -0.1044  0.0573 -0.0606
  776POPS   C1A10449   2.655   2.101   6.007 -0.0340 -0.1535  0.1170
  776POPS   D2A10450   2.243   1.882   6.171 -0.0557 -0.0541 -0.1363
  776POPS   C3A10451   2.299   1.651   6.501  0.1373 -0.0539  0.1458
  776POPS   C4A10452   2.116   1.272   6.672 -0.0585  0.1506  0.0016
  776POPS   C1B10453   3.031   2.220   6.368  0.0261  0.0635 -0.1172
  776POPS   C2B10454   3.099   2.020   6.783  0.0177 -0.0682  0.3039
  776POPS   C3B10455   2.997   2.129   7.123 -0.0607 -0.2014 -0.1279
  776POPS   C4B10456   2.724   2.148   7.397  0.0003 -0.1161 -0.0284
  777POPS   CNO10457   6.662   5.090   5.830  0.2762  0.2860 -0.0059
  777POPS   PO410458   6.730   4.925   6.239  0.0199  0.1560 -0.1626
  777POPS   GL110459   6.777   5.157   6.664 -0.2265  0.1361  0.2138
  777POPS   GL210460   6.508   5.373   6.658  0.1014  0.2432 -0.3853
  777POPS   C1A10461   6.934   5.201   7.086  0.1789  0.1772 -0.4720
  777POPS   D2A10462   6.784   5.003   7.469 -0.1725 -0.2154 -0.2793
  777POPS   C3A10463   6.347   5.016   7.657 -0.2297  0.0231 -0.0826
  777POPS   C4A10464   6.052   5.320   7.672  0.5470 -0.0718  0.1075
  777POPS   C1B10465   6.184   5.578   6.879 -0.1439  0.5091  0.1153
  777POPS   C2B10466   6.017   5.498   7.201  0.0018 -0.0122  0.2952
  777POPS   C3B10467   5.586   5.307   7.320 -0.1740  0.0916  0.2369
  777POPS   C4B10468   5.156   5.202   7.445 -0.1653  0.1340 -0.1479
  778POPS   CNO10469   4.052  16.158   5.368  0.1493  0.3246 -0.1328
  778POPS   PO410470   3.727  15.929   5.443 -0.0606 -0.0724 -0.0007
  778POPS   GL110471   3.931  16.125   5.843 -0.1056 -0.1128  0.1021
  778POPS   GL210472   4.094  16.465   5.759  0.0286  0.1758  0.0124
  778POPS   C1A10473   4.039  16.302   6.203 -0.1232 -0.2095 -0.1875
  778POPS   D2A10474   4.017  16.091   6.679  0.2509 -0.0427  0.2377
  778POPS   C3A10475   3.844  15.711   6.788 -0.0377 -0.0082 -0.1600
  778POPS   C4A10476   3.704  15.402   7.165 -0.0757 -0.1564  0.3187
  778POPS   C1B10477   4.436  16.458   5.898 -0.2889 -0.3612 -0.5006
  778POPS   C2B10478   4.843  16.184   5.949  0.0109  0.0431  0.3051
  778POPS   C3B10479   4.912  16.045   6.293  0.1538 -0.0112  0.1119
  778POPS   C4B10480   4.927  16.218   6.773  0.2907 -0.1191  0.0365
  779POPS   CNO10481  11.342   7.141   6.181 -0.0855 -0.0293  0.3069
  779POPS   PO410482  11.086   6.921   6.036 -0.1741  0.3214  0.4662
  779POPS   GL110483  11.004   6.894   6.398  0.0000  0.0362  0.0411
  779POPS   GL210484  10.912   7.239   6.526 -0.1038 -0.2284  0.1453
  779POPS   C1A10485  10.703   6.642   6.627  0.1092  0.1027 -0.0653
  779POPS   D2A10486  10.634   6.524   7.138  0.0362  0.0632  0.0929
  779POPS   C3A10487  10.748   6.680   7.544  0.3347 -0.3176 -0.0385
  779POPS   C4A10488  10.920   7.000   7.748 -0.2841 -0.1295 -0.0922
  779POPS   C1B10489  10.908   7.433   6.877  0.1723 -0.1902 -0.1580
  779POPS   C2B10490  10.660   7.627   7.232 -0.0559  0.1578  0.0080
  779POPS   C3B10491  10.756   7.840   7.653  0.2028  0.0280 -0.0217
  779POPS   C4B10492  10.898   8.134   7.915  0.0620 -0.1864 -0.2379
  780POPS   CNO10493   3.707   0.956   5.704 -0.2777  0.0767  0.1064
  780POPS   PO410494   3.338   1.053   5.741  0.1425  0.1200 -0.3530
  780POPS   GL110495   3.235   0.846   6.118  0.0554  0.1205  0.1941
  780POPS   GL210496   3.104   0.531   6.031  0.2011 -0.0581  0.0502
  780POPS   C1A10497   3.192   0.849   6.596  0.0319 -0.2153  0.1420
  780POPS   D2A10498   3.118   1.112   6.929  0.1594  0.0520 -0.1960
  780POPS   C3A10499   3.159   0.963   7.295  0.0393 -0.2091  0.0640
  780POPS   C4A10500   3.134   0.822   7.665 -0.1320  0.2396 -0.1667
  780POPS   C1B10501   2.994   0.377   6.497  0.1354 -0.2903 -0.0492
  780POPS   C2B10502   3.156   0.540   6.949 -0.0595 -0.2514 -0.1369
  780POPS   C3B10503   2.890   0.473   7.269 -0.1241  0.1307  0.0055
  780POPS   C4B10504   2.734   0.520   7.701  0.0952 -0.0101 -0.1816
  781POPS   CNO10505   0.826  17.327   6.040 -0.0595 -0.0458  0.0829
  781POPS   PO410506   0.750  16.885   6.226 -0.1951  0.1065  0.2480
  781POPS   GL110507   1.073  16.860   6.634 -0.2533  0.0861 -0.0278
  781POPS   GL210508   0.863  16.966   6.928  0.2032  0.2187  0.2025
  781POPS   C1A10509   1.407  17.066   6.904 -0.1096 -0.0016  0.2552
  781POPS   D2A10510   1.458  17.216   7.329 -0.2829  0.1198 -0.0939
  781POPS   C3A10511   1.672  16.983   7.543 -0.0461  0.2112 -0.3239
  781POPS   C4A10512   1.959  16.930   7.898 -0.1061  0.0395 -0.2093
  781POPS   C1B10513   0.877  17.123   7.371  0.1505 -0.0350 -0.2271
  781POPS   C2B10514   1.050  17.472   7.623 -0.1232 -0.2455 -0.0567
  781POPS   C3B10515   1.235  17.669   7.999  0.0361  0.1783  0.3846
  781POPS   C4B10516   1.236  18.006   8.261  0.0208  0.2057  0.0656
  782POPS   CNO10517   7.962  12.001   5.877 -0.0656  0.0740 -0.0165
  782POPS   PO410518   8.212  11.790   5.729  0.2404 -0.0944 -0.0557
  782POPS   GL110519   8.457  12.134   6.010  0.0578  0.0650  0.0278
  782POPS   GL210520   8.224  12.308   6.212 -0.0394 -0.2776 -0.2305
  782POPS   C1A10521   8.643  12.141   6.460  0.0860  0.0332  0.2913
  782POPS   D2A10522   8.655  12.401   6.765  0.0516 -0.2548  0.0048
  782POPS   C3A10523   8.748  12.185   7.121 -0.0243 -0.2350  0.1837
  782POPS   C4A10524   8.741  12.186   7.564  0.1502  0.1070  0.0050
  782POPS   C1B10525   8.391  12.615   6.446 -0.1344 -0.3342 -0.0136
  782POPS   C2B10526   8.342  12.941   6.668  0.0087  0.0943  0.2507
  782POPS   C3B10527   8.248  12.926   6.960  0.0349  0.0836  0.3283
  782POPS   C4B10528   7.954  12.708   7.236 -0.1782 -0.2249 -0.2916
  783POPS   CNO10529  17.620   9.950   5.876 -0.0201  0.0852 -0.3839
  783POPS   PO410530  17.601   9.963   6.303  0.1008  0.0069 -0.0209
  783POPS   GL110531  17.279   9.817   6.594 -0.0151  0.0493  0.0638
  783POPS   GL210532  17.092  10.096   6.585  0.0044 -0.0241  0.0995
  783POPS   C1A10533  17.185   9.810   7.000  0.0177  0.1639 -0.0615
  783POPS   D2A10534  17.427   9.980   7.337  0.1427  0.2393 -0.1148
  783POPS   C3A10535  17.352   9.817   7.723  0.0787  0.2163 -0.0254
  783POPS   C4A10536  17.639   9.563   7.978  0.0717 -0.0136  0.2054
  783POPS   C1B10537  17.132  10.358   6.961 -0.0524  0.0920  0.0727
  783POPS   C2B10538  17.272  10.447   7.423 -0.1365 -0.2415 -0.1822
  783POPS   C3B10539  17.321  10.309   7.845 -0.0624  0.2234 -0.1005
  783POPS   C4B10540  17.103  10.015   8.105  0.3671 -0.0081  0.1427
  784POPS   CNO10541   4.991   4.608   6.224 -0.2312 -0.0532 -0.0791
  784POPS   PO410542   4.723   4.223   6.150 -0.1444 -0.0956 -0.0639
  784POPS   GL110543   4.791   4.182   6.580  0.0797  0.0580  0.1537
  784POPS   GL210544   4.703   4.465   6.704 -0.1351  0.0463  0.1739
  784POPS   C1A10545   4.825   3.896   6.910 -0.2417  0.0423 -0.1369
  784POPS   D2A10546   4.765   3.663   7.296  0.1817 -0.0054  0.0424
  784POPS   C3A10547   4.776   3.341   7.544 -0.1746  0.1336  0.0116
  784POPS   C4A10548   5.176   3.051   7.570 -0.1104  0.1004  0.0520
  784POPS   C1B10549   4.570   4.475   7.138 -0.2325 -0.0981 -0.0392
  784POPS   C2B10550   4.500   4.422   7.475  0.3685 -0.2657 -0.2445
  784POPS   C3B10551   4.612   4.625   7.895 -0.0332  0.3094 -0.2180
  784POPS   C4B10552   4.434   4.572   8.182 -0.0659  0.0602 -0.1784
  785POPS   CNO10553   0.815   9.311   5.673  0.0538 -0.0643  0.0782
  785POPS   PO410554   1.004   8.949   5.867 -0.1336  0.0333  0.0538
  785POPS   GL110555   1.047   9.179   6.218  0.3387 -0.1657  0.0279
  785POPS   GL210556   0.932   9.623   6.181 -0.3862  0.1210 -0.0339
  785POPS   C1A10557   0.967   9.115   6.667  0.0042  0.1306  0.0300
  785POPS   D2A10558   0.995   8.889   7.009  0.1350  0.1733  0.3155
  785POPS   C3A10559   0.908   8.433   6.896 -0.0651 -0.3444 -0.1161
  785POPS   C4A10560   0.970   8.170   6.549 -0.0632 -0.2123 -0.0075
  785POPS   C1B10561   1.047   9.797   6.500 -0.0170  0.0768  0.1028
  785POPS   C2B10562   1.205   9.825   6.914  0.1473  0.1788 -0.0244
  785POPS   C3B10563   1.262   9.824   7.408 -0.1505  0.0257 -0.2098
  785POPS   C4B10564   1.583   9.944   7.626 -0.0085 -0.2690 -0.0179
  786POPS   CNO10565   5.089  10.504   5.616  0.1421  0.1617  0.2426
  786POPS   PO410566   5.481  10.421   5.303  0.0181  0.1051 -0.0243
  786POPS   GL110567   5.552  10.266   5.745  0.1229  0.1010  0.0326
  786POPS   GL210568   5.835  10.322   5.869 -0.2048  0.1227  0.1969
  786POPS   C1A10569   5.198  10.229   6.027 -0.0101 -0.1617  0.2269
  786POPS   D2A10570   5.104  10.290   6.468  0.0165  0.2904  0.0755
  786POPS   C3A10571   4.995  10.021   6.872 -0.0703 -0.1827 -0.2160
  786POPS   C4A10572   4.994   9.775   7.093  0.3160 -0.0738  0.1719
  786POPS   C1B10573   5.642  10.225   6.383 -0.0704 -0.1431 -0.1181
  786POPS   C2B10574   5.459  10.250   6.812  0.1673 -0.0349 -0.1717
  786POPS   C3B10575   5.271  10.302   7.233 -0.1334 -0.1186 -0.0697
  786POPS   C4B10576   4.871  10.116   7.438  0.0929 -0.4284 -0.3409
  787POPS   CNO10577  15.584   8.996   5.972  0.4468 -0.1008 -0.0566
  787POPS   PO410578  16.007   9.091   5.901  0.0415 -0.0147  0.1479
  787POPS   GL110579  15.924   9.115   6.345  0.0853 -0.2051  0.0396
  787POPS   GL210580  15.593   9.183   6.495  0.0505 -0.0550 -0.3771
  787POPS   C1A10581  16.061   8.937   6.670  0.0965  0.1604 -0.2771
  787POPS   D2A10582  16.242   8.970   6.998  0.1727  0.0701  0.0102
  787POPS   C3A10583  16.486   8.695   7.272 -0.0528 -0.0672 -0.1451
  787POPS   C4A10584  16.839   8.794   7.395  0.3155 -0.3513  0.3016
  787POPS   C1B10585  15.699   9.148   6.914  0.0682 -0.1199 -0.3528
  787POPS   C2B10586  15.665   9.230   7.337 -0.0546  0.1345  0.1499
  787POPS   C3B10587  15.672   9.224   7.774  0.0454  0.0084 -0.1596
  787POPS   C4B10588  15.730   9.588   8.132 -0.0695  0.4207  0.0958
  788POPS   CNO10589  17.403   3.264   5.807 -0.2104  0.2609  0.0673
  788POPS   PO410590  17.263   3.061   6.153  0.1105 -0.0511  0.1189
  788POPS   GL110591  17.465   3.098   6.509 -0.0338 -0.1195  0.0192
  788POPS   GL210592  17.241   3.370   6.576  0.4406  0.0612 -0.1268
  788POPS   C1A10593  17.524   2.938   6.899 -0.0935 -0.1796 -0.3650
  788POPS   D2A10594  17.566   2.955   7.319  0.0753 -0.1631 -0.0001
  788POPS   C3A10595  17.666   3.139   7.733 -0.0669  0.0555 -0.1577
  788POPS   C4A10596  17.633   3.402   8.057 -0.0920 -0.0085  0.1957
  788POPS   C1B10597  17.269   3.453   6.984  0.2312 -0.2194  0.0557
  788POPS   C2B10598  17.320   3.414   7.340  0.0236 -0.0741  0.2048
  788POPS   C3B10599  17.342   3.639   7.672 -0.2585  0.1947 -0.2944
  788POPS   C4B10600  17.411   3.875   8.024 -0.0161  0.2575  0.1398
  789POPS   CNO10601   8.864  17.549   5.148 -0.1823 -0.1439  0.0830
  789POPS   PO410602   8.685  17.176   5.395  0.1428 -0.1874 -0.2636
  789POPS   GL110603   8.674  17.150   5.887  0.3105 -0.1677  0.0831
  789POPS   GL210604   8.585  17.437   6.169  0.0213  0.2026 -0.1693
  789POPS   C1A10605   8.824  17.018   6.233 -0.0643 -0.1305  0.3450
  789POPS   D2A10606   9.016  16.904   6.654 -0.0425 -0.3304  0.0869
  789POPS   C3A10607   8.983  16.462   6.909  0.3354  0.1417 -0.3296
  789POPS   C4A10608   8.980  16.266   7.365 -0.1231 -0.0909  0.2741
  789POPS   C1B10609   8.753  17.398   6.558 -0.3182 -0.1034  0.0222
  789POPS   C2B10610   8.941  17.311   6.912 -0.3968  0.3318  0.1066
  789POPS   C3B10611   9.047  16.925   7.172 -0.0508  0.2478 -0.0517
  789POPS   C4B10612   9.012  16.866   7.620 -0.0994 -0.0901  0.1425
  790POPS   CNO10613   0.226   1.196   6.105  0.0937  0.0123  0.0786
  790POPS   PO410614  -0.079   0.968   6.321  0.0844 -0.0874 -0.1873
  790POPS   GL110615  -0.042   1.019   6.711 -0.1803 -0.1414 -0.1563
  790POPS   GL210616  -0.231   1.274   6.667 -0.1086  0.3441  0.0896
  790POPS   C1A10617   0.019   1.094   7.155  0.2680 -0.1063  0.1453
  790POPS   D2A10618  -0.009   1.012   7.634  0.2810  0.1221  0.2311
  790POPS   C3A10619   0.123   0.833   8.073 -0.3040 -0.2294 -0.0230
  790POPS   C4A10620   0.419   0.533   8.184 -0.0832 -0.2952  0.0006
  790POPS   C1B10621  -0.336   1.511   7.074  0.1240 -0.0568  0.0775
  790POPS   C2B10622  -0.144   1.492   7.455  0.0330  0.1047 -0.3360
  790POPS   C3B10623  -0.090   1.721   7.847 -0.0781 -0.0947 -0.0459
  790POPS   C4B10624   0.041   1.795   8.210 -0.0370  0.2502  0.1684
  791POPS   CNO10625   6.784  12.708   5.430  0.0392 -0.1466 -0.3346
  791POPS   PO410626   6.493  12.491   5.507  0.1577  0.0249 -0.1786
  791POPS   GL110627   6.222  12.411   5.885 -0.0510 -0.1885  0.3075
  791POPS   GL210628   6.285  12.136   6.059  0.1831  0.1344  0.0264
  791POPS   C1A10629   5.916  12.483   6.186  0.2328  0.2317 -0.1126
  791POPS   D2A10630   5.720  12.441   6.587 -0.0046 -0.3229 -0.1799
  791POPS   C3A10631   6.020  12.550   6.798  0.0521  0.1258 -0.0063
  791POPS   C4A10632   6.313  12.772   7.101 -0.1165 -0.0126  0.0848
  791POPS   C1B10633   6.221  12.227   6.504 -0.1516 -0.0460 -0.1953
  791POPS   C2B10634   6.299  12.210   6.957 -0.0139  0.0158  0.2441
  791POPS   C3B10635   6.162  12.346   7.342 -0.1417  0.4589 -0.1655
  791POPS   C4B10636   6.448  12.467   7.767  0.1733  0.1382  0.0631
  792POPS   CNO10637  14.447  11.586   5.942 -0.2068  0.1067  0.0526
  792POPS   PO410638  14.520  11.928   6.273 -0.4310 -0.1772  0.0604
  792POPS   GL110639  14.675  12.167   6.588 -0.4682 -0.0403 -0.1650
  792POPS   GL210640  14.670  12.441   6.581  0.0474 -0.0177 -0.1826
  792POPS   C1A10641  14.347  12.142   6.984  0.0050  0.2113 -0.1797
  792POPS   D2A10642  14.296  12.113   7.455 -0.3368 -0.1446 -0.1618
  792POPS   C3A10643  14.421  12.227   7.812  0.1016  0.1205  0.1775
  792POPS   C4A10644  14.733  12.203   8.202  0.0370 -0.1525  0.0459
  792POPS   C1B10645  14.810  12.435   7.027  0.1669 -0.0492  0.0605
  792POPS   C2B10646  14.737  12.414   7.511 -0.0419  0.0565  0.0699
  792POPS   C3B10647  14.836  12.588   7.966  0.3774 -0.0616 -0.0185
  792POPS   C4B10648  14.470  12.707   8.174  0.0332  0.1170 -0.2550
  793POPS   CNO10649  11.078  15.811   5.663 -0.0507 -0.1027 -0.2906
  793POPS   PO410650  11.467  15.770   5.689 -0.1173 -0.1318  0.4613
  793POPS   GL110651  11.580  15.721   6.101 -0.0936 -0.1257 -0.1070
  793POPS   GL210652  11.830  15.509   6.177 -0.0148 -0.1520 -0.0223
  793POPS   C1A10653  11.291  15.602   6.466 -0.0772  0.3973 -0.0574
  793POPS   D2A10654  11.050  15.482   6.736 -0.0966 -0.4220 -0.0046
  793POPS   C3A10655  10.911  15.218   7.142  0.5179  0.0421  0.2294
  793POPS   C4A10656  10.760  15.250   7.496  0.1954  0.0579  0.1628
  793POPS   C1B10657  11.739  15.500   6.589  0.0192  0.4242  0.0896
  793POPS   C2B10658  11.895  15.352   7.011 -0.0362 -0.0198  0.0084
  793POPS   C3B10659  11.990  15.364   7.428 -0.4009 -0.2237 -0.0944
  793POPS   C4B10660  12.079  15.532   7.842  0.1829  0.0771 -0.1001
  794POPS   CNO10661   7.532   0.605   6.183 -0.2706  0.1797 -0.2925
  794POPS   PO410662   7.471   0.374   5.892  0.1693  0.2296  0.0492
  794POPS   GL110663   7.399   0.129   6.299  0.1342 -0.3801  0.0931
  794POPS   GL210664   7.515   0.204   6.548 -0.0318 -0.3010  0.1279
  794POPS   C1A10665   6.973   0.094   6.497 -0.0757  0.0551  0.1084
  794POPS   D2A10666   6.663   0.167   6.825  0.1929 -0.0628  0.1387
  794POPS   C3A10667   6.509  -0.121   7.000  0.5713 -0.0986  0.0304
  794POPS   C4A10668   6.398  -0.640   7.128  0.0713  0.0970 -0.1982
  794POPS   C1B10669   7.357   0.155   6.917 -0.2389 -0.2112 -0.1035
  794POPS   C2B10670   6.951   0.061   7.168 -0.0191 -0.3788  0.2071
  794POPS   C3B10671   6.766  -0.238   7.504 -0.3799  0.0581 -0.1579
  794POPS   C4B10672   6.560  -0.635   7.677  0.3395  0.1145 -0.1347
  795POPS   CNO10673   5.096   0.705   5.481 -0.0069  0.0716 -0.0955
  795POPS   PO410674   4.584   0.623   5.517  0.0137  0.4042 -0.0086
  795POPS   GL110675   4.502   0.692   5.845 -0.2016  0.1359 -0.0848
  795POPS   GL210676   4.863   0.661   5.939 -0.0779 -0.0409  0.0472
  795POPS   C1A10677   4.642   0.889   6.324 -0.1746  0.1545 -0.0400
  795POPS   D2A10678   4.411   1.084   6.755 -0.0077 -0.1192  0.2007
  795POPS   C3A10679   4.449   0.875   7.185  0.1749  0.0115  0.3575
  795POPS   C4A10680   4.171   0.842   7.616  0.0767  0.2494  0.1382
  795POPS   C1B10681   4.661   0.396   6.225  0.1942 -0.1393  0.0097
  795POPS   C2B10682   4.472   0.508   6.628 -0.0415 -0.1396  0.4237
  795POPS   C3B10683   4.078   0.746   6.821  0.1221  0.2153  0.2048
  795POPS   C4B10684   3.866   1.124   6.744 -0.3144 -0.0623 -0.1175
  796POPS   CNO10685   9.967  11.914   5.050  0.0867  0.1977 -0.0878
  796POPS   PO410686   9.757  11.609   5.373 -0.1843 -0.1040 -0.0352
  796POPS   GL110687   9.781  11.621   5.881  0.2286 -0.0077 -0.1934
  796POPS   GL210688   9.388  11.780   5.880 -0.2213 -0.2688  0.1610
  796POPS   C1A10689   9.862  11.696   6.274  0.0280 -0.2829 -0.0380
  796POPS   D2A10690  10.121  11.723   6.694 -0.0709 -0.4376  0.2680
  796POPS   C3A10691  10.133  11.896   7.104  0.0927  0.0402  0.2450
  796POPS   C4A10692   9.912  12.089   7.410  0.3948  0.3106 -0.4885
  796POPS   C1B10693   9.310  11.359   6.209 -0.0766 -0.1195 -0.0504
  796POPS   C2B10694   9.399  11.024   6.460  0.1135 -0.2214 -0.1076
  796POPS   C3B10695   9.401  10.875   6.717 -0.1379 -0.2838  0.0520
  796POPS   C4B10696   9.750  10.786   6.966  0.1194  0.2512 -0.1064
  797POPS   CNO10697   0.974   5.239   5.447 -0.1208 -0.2038 -0.0376
  797POPS   PO410698   0.861   5.438   5.852 -0.0931 -0.1988  0.2074
  797POPS   GL110699   0.786   5.383   6.256 -0.2929 -0.0270  0.3197
  797POPS   GL210700   0.853   5.676   6.380 -0.0530  0.0898  0.1921
  797POPS   C1A10701   0.937   5.272   6.641 -0.0211 -0.0752  0.0034
  797POPS   D2A10702   0.680   4.951   6.877  0.1800 -0.1002  0.0820
  797POPS   C3A10703   0.203   4.866   6.873 -0.1071 -0.0540 -0.1542
  797POPS   C4A10704  -0.017   4.881   6.461  0.0086 -0.2896 -0.0035
  797POPS   C1B10705   0.710   5.842   6.753 -0.0257  0.2494  0.5572
  797POPS   C2B10706   0.624   5.969   7.197  0.0480 -0.0372 -0.0728
  797POPS   C3B10707   0.890   5.831   7.510  0.0400 -0.0088 -0.2228
  797POPS   C4B10708   0.873   5.657   7.916 -0.0558  0.3349 -0.1061
  798POPS   CNO10709  16.476  12.888   5.964  0.0745 -0.0269 -0.1140
  798POPS   PO410710  16.135  12.683   6.117  0.0053  0.0335 -0.0100
  798POPS   GL110711  16.040  12.636   6.532  0.3525  0.3236 -0.1505
  798POPS   GL210712  16.209  12.572   6.763  0.1797  0.0197 -0.2947
  798POPS   C1A10713  15.785  12.723   6.957 -0.0377  0.0686  0.0659
  798POPS   D2A10714  15.672  12.865   7.395 -0.0517 -0.0367  0.2562
  798POPS   C3A10715  15.813  12.617   7.769 -0.2601 -0.0489 -0.1375
  798POPS   C4A10716  15.753  12.273   8.034 -0.1325  0.1701  0.2557
  798POPS   C1B10717  16.541  12.590   7.138  0.1743  0.4838 -0.0701
  798POPS   C2B10718  16.553  12.792   7.588 -0.0715 -0.2889  0.3174
  798POPS   C3B10719  16.754  12.640   7.856 -0.1362  0.3073 -0.0100
  798POPS   C4B10720  16.945  12.532   8.242 -0.0858 -0.0396  0.0012
  799POPS   CNO10721   1.574   6.471   5.895 -0.1271 -0.0225 -0.0049
  799POPS   PO410722   1.663   6.363   6.170 -0.3099  0.2095 -0.0558
  799POPS   GL110723   1.511   6.178   6.560  0.1019  0.2319  0.1094
  799POPS   GL210724   1.139   6.077   6.631  0.2186  0.3475  0.2747
  799POPS   C1A10725   1.592   6.031   6.850  0.1281  0.1342 -0.0142
  799POPS   D2A10726   1.278   5.957   7.214 -0.1206  0.0889  0.1859
  799POPS   C3A10727   1.436   5.930   7.719 -0.0173 -0.1978 -0.1523
  799POPS   C4A10728   1.617   6.136   8.150  0.0492 -0.2973 -0.0913
  799POPS   C1B10729   0.971   6.229   6.957  0.0823  0.0686  0.1860
  799POPS   C2B10730   1.064   6.405   7.392  0.1329  0.0440 -0.1114
  799POPS   C3B10731   1.005   6.617   7.763 -0.0908  0.0023  0.3247
  799POPS   C4B10732   0.776   6.592   8.077  0.0513  0.1079  0.2881
  800POPS   CNO10733  14.471   4.164   5.855 -0.3398 -0.1712 -0.0915
  800POPS   PO410734  14.337   4.124   6.260  0.2861  0.0015  0.1389
  800POPS   GL110735  14.428   3.977   6.607  0.3312  0.1603  0.0294
  800POPS   GL210736  14.514   3.554   6.701  0.3752  0.1050  0.3188
  800POPS   C1A10737  14.417   3.919   7.154 -0.0777 -0.0052  0.3308
  800POPS   D2A10738  14.460   4.205   7.509 -0.2513  0.1927  0.3078
  800POPS   C3A10739  14.631   4.466   7.791 -0.1411 -0.2497 -0.1108
  800POPS   C4A10740  14.635   4.481   8.214 -0.0312 -0.1448  0.2841
  800POPS   C1B10741  14.657   3.526   7.079  0.3084 -0.0606  0.0631
  800POPS   C2B10742  14.655   3.598   7.501 -0.2920  0.0754 -0.0031
  800POPS   C3B10743  14.783   3.515   7.969  0.0541  0.1204  0.1792
  800POPS   C4B10744  14.756   3.326   8.399 -0.5987  0.0197 -0.2417
  801POPS   CNO10745  10.861   1.487   5.761  0.0596 -0.0040  0.1520
  801POPS   PO410746  10.553   1.306   5.880 -0.0741  0.0987 -0.3056
  801POPS   GL110747  10.351   1.142   6.242  0.0822 -0.1621 -0.1031
  801POPS   GL210748  10.452   0.870   6.483 -0.0214  0.0152 -0.1779
  801POPS   C1A10749   9.958   1.000   6.517 -0.1743 -0.0063 -0.0530
  801POPS   D2A10750   9.874   0.960   6.940 -0.1344  0.0382 -0.0212
  801POPS   C3A10751  10.098   1.033   7.434  0.0863  0.1112 -0.2004
  801POPS   C4A10752  10.087   1.114   7.918 -0.0299 -0.1452 -0.0058
  801POPS   C1B10753  10.454   0.776   6.866 -0.2604  0.4080 -0.0664
  801POPS   C2B10754  10.513   0.739   7.279 -0.2314  0.1085 -0.1912
  801POPS   C3B10755  10.739   0.466   7.551  0.0328  0.0001  0.0348
  801POPS   C4B10756  11.129   0.455   7.863 -0.0075  0.2637  0.2311
  802POPS   CNO10757  11.081   9.073   5.965 -0.0886 -0.0053 -0.1614
  802POPS   PO410758  11.331   9.356   5.813 -0.0344 -0.0810  0.1262
  802POPS   GL110759  11.357   9.321   6.323 -0.0199 -0.1840  0.0287
  802POPS   GL210760  11.664   9.080   6.454 -0.1199  0.1755  0.2884
  802POPS   C1A10761  11.606   9.458   6.672  0.2982  0.0015  0.3555
  802POPS   D2A10762  11.631   9.444   7.062 -0.0654  0.0257 -0.2809
  802POPS   C3A10763  11.353   9.553   7.325 -0.1869 -0.1146  0.0447
  802POPS   C4A10764  10.988   9.504   7.182 -0.0966  0.0244 -0.1577
  802POPS   C1B10765  11.850   9.021   6.787 -0.1424 -0.1999 -0.1108
  802POPS   C2B10766  11.861   8.977   7.256 -0.2560 -0.2648  0.1024
  802POPS   C3B10767  11.635   9.321   7.714  0.1972 -0.4594 -0.2115
  802POPS   C4B10768  11.644   9.590   7.994 -0.1527 -0.1601  0.0943
  803POPS   CNO10769   0.741  13.703   6.233  0.1906  0.2932 -0.0421
  803POPS   PO410770   0.865  13.309   6.355 -0.3414  0.1860  0.1839
  803POPS   GL110771   0.678  13.379   6.716 -0.1669  0.1316  0.2804
  803POPS   GL210772   0.582  13.635   6.738 -0.1001  0.0763 -0.0899
  803POPS   C1A10773   0.708  13.225   7.165  0.1383 -0.3207 -0.1517
  803POPS   D2A10774   0.628  13.155   7.460 -0.0853 -0.1029 -0.2532
  803POPS   C3A10775   0.597  13.213   7.836  0.2813  0.2495  0.0519
  803POPS   C4A10776   0.277  13.048   8.097  0.0158  0.0535 -0.4501
  803POPS   C1B10777   0.519  13.735   7.178  0.3881  0.0974 -0.0925
  803POPS   C2B10778   0.479  13.651   7.613 -0.0038  0.3010  0.1354
  803POPS   C3B10779   0.211  13.557   8.070 -0.1593 -0.1370  0.1353
  803POPS   C4B10780  -0.014  13.351   8.360  0.0584 -0.0231 -0.0753
  804POPS   CNO10781   3.752   3.267   5.118  0.2126  0.0704 -0.1119
  804POPS   PO410782   3.644   3.071   5.519  0.2616  0.0784 -0.2092
  804POPS   GL110783   3.476   3.223   5.891  0.0654 -0.0544  0.0126
  804POPS   GL210784   3.510   3.559   5.876 -0.1868 -0.0002  0.1831
  804POPS   C1A10785   3.523   3.016   6.322 -0.1042  0.1194  0.0478
  804POPS   D2A10786   3.612   2.864   6.707  0.1349  0.0309 -0.0118
  804POPS   C3A10787   3.512   2.643   7.070  0.1907 -0.0585 -0.0660
  804POPS   C4A10788   3.372   2.556   7.400 -0.1649  0.1751 -0.1483
  804POPS   C1B10789   3.607   3.544   6.368 -0.2500 -0.2808 -0.1036
  804POPS   C2B10790   3.703   3.505   6.795 -0.0066 -0.0966 -0.0656
  804POPS   C3B10791   3.773   3.305   7.113 -0.1103  0.1805 -0.0867
  804POPS   C4B10792   3.919   2.871   7.213 -0.2165 -0.2996 -0.2774
  805POPS   CNO10793  11.470   8.189   5.881  0.2041 -0.1992  0.2103
  805POPS   PO410794  11.823   8.162   5.642  0.1650 -0.2513  0.4677
  805POPS   GL110795  11.901   8.370   6.064 -0.0870 -0.3642  0.1370
  805POPS   GL210796  11.657   8.570   6.253  0.0075  0.0401  0.2995
  805POPS   C1A10797  12.077   8.620   6.571  0.0020  0.4857 -0.1284
  805POPS   D2A10798  11.952   8.435   7.010 -0.1624  0.0511  0.1364
  805POPS   C3A10799  11.939   8.497   7.406 -0.1230 -0.3503 -0.3853
  805POPS   C4A10800  11.962   8.910   7.707  0.0849  0.0195 -0.0371
  805POPS   C1B10801  11.572   8.592   6.671 -0.0493 -0.0897  0.0492
  805POPS   C2B10802  11.458   8.541   7.113  0.1712 -0.0572 -0.3879
  805POPS   C3B10803  11.498   8.704   7.574  0.1572  0.0789  0.1374
  805POPS   C4B10804  11.549   8.817   7.985  0.0398 -0.3234 -0.1160
  806POPS   CNO10805  14.623   1.516   5.948  0.2647  0.2794 -0.2498
  806POPS   PO410806  14.776   1.970   5.994 -0.1569 -0.0874  0.2319
  806POPS   GL110807  14.695   1.793   6.402  0.1786 -0.0881  0.3999
  806POPS   GL210808  14.591   1.522   6.441  0.1965  0.2082 -0.0949
  806POPS   C1A10809  14.625   1.983   6.771 -0.0070 -0.1441  0.0053
  806POPS   D2A10810  14.682   1.852   7.232  0.0789  0.2814 -0.1055
  806POPS   C3A10811  14.711   2.212   7.463 -0.0144 -0.2999  0.0131
  806POPS   C4A10812  15.077   2.450   7.317 -0.0303  0.2781  0.0420
  806POPS   C1B10813  14.812   1.524   6.881  0.0740  0.2910  0.2357
  806POPS   C2B10814  15.048   1.580   7.302  0.4452 -0.0481 -0.0472
  806POPS   C3B10815  15.011   1.835   7.657 -0.1795  0.1859  0.2586
  806POPS   C4B10816  15.149   2.311   7.841  0.0307 -0.0476 -0.1599
  807POPS   CNO10817   0.091  17.821   6.080  0.1048 -0.2894 -0.0451
  807POPS   PO410818  -0.329  17.542   6.051 -0.0447  0.3233 -0.0812
  807POPS   GL110819   0.005  17.355   6.321  0.1382 -0.0070  0.2346
  807POPS   GL210820  -0.065  17.297   6.720  0.0567 -0.2068  0.0633
  807POPS   C1A10821   0.260  17.598   6.510  0.0182 -0.0947  0.1021
  807POPS   D2A10822   0.319  17.896   6.895  0.1838 -0.0913  0.1538
  807POPS   C3A10823   0.279  17.955   7.408 -0.0562 -0.1305 -0.1774
  807POPS   C4A10824   0.104  17.769   7.772 -0.3278 -0.1674  0.0914
  807POPS   C1B10825   0.040  17.191   7.102  0.1682 -0.1459  0.0803
  807POPS   C2B10826  -0.102  16.995   7.282  0.0229 -0.0559  0.1242
  807POPS   C3B10827  -0.158  16.734   7.584 -0.0305 -0.2181  0.1255
  807POPS   C4B10828  -0.165  16.404   7.651 -0.1037 -0.0874  0.0468
  808POPS   CNO10829  15.288  14.833   6.006 -0.1312 -0.0384  0.2784
  808POPS   PO410830  15.124  14.759   6.388  0.1410 -0.1171 -0.1390
  808POPS   GL110831  15.003  14.573   6.755  0.0203  0.3128 -0.3773
  808POPS   GL210832  14.790  14.725   6.812  0.0012  0.1194  0.2291
  808POPS   C1A10833  14.840  14.468   7.189 -0.2055  0.0583  0.1191
  808POPS   D2A10834  14.897  14.403   7.598  0.1931 -0.0586  0.1627
  808POPS   C3A10835  14.942  14.623   8.019  0.0745 -0.0366 -0.1279
  808POPS   C4A10836  14.963  14.593   8.460 -0.0387 -0.2161 -0.2745
  808POPS   C1B10837  14.820  15.003   7.170 -0.0886  0.0040  0.1265
  808POPS   C2B10838  14.941  14.945   7.624 -0.0351 -0.0685 -0.2549
  808POPS   C3B10839  15.141  15.073   8.087 -0.1217  0.1295 -0.2439
  808POPS   C4B10840  15.208  15.078   8.525  0.2319  0.0892 -0.1209
  809POPS   CNO10841  14.125  14.111   5.900  0.1784 -0.2051 -0.2287
  809POPS   PO410842  13.915  13.942   6.351 -0.1688  0.1048  0.1619
  809POPS   GL110843  13.748  13.969   6.788 -0.0899 -0.1631 -0.0464
  809POPS   GL210844  13.387  14.013   6.828  0.2875 -0.1166 -0.1132
  809POPS   C1A10845  13.593  13.673   7.080 -0.0609  0.0264 -0.0678
  809POPS   D2A10846  13.328  13.523   7.335  0.0667 -0.0711 -0.2901
  809POPS   C3A10847  13.188  13.231   7.629  0.1605 -0.1465 -0.2082
  809POPS   C4A10848  13.433  12.916   7.782  0.1640  0.0407  0.2621
  809POPS   C1B10849  13.527  14.101   7.262 -0.1058  0.1750 -0.0047
  809POPS   C2B10850  13.544  13.957   7.763 -0.0069 -0.1106  0.1315
  809POPS   C3B10851  13.511  14.385   8.093 -0.2834 -0.1076 -0.0320
  809POPS   C4B10852  13.159  14.730   8.132  0.0526  0.0998 -0.1828
  810POPS   CNO10853  12.721  17.512   5.678  0.1040  0.1753 -0.2384
  810POPS   PO410854  12.391  17.151   5.747 -0.1230  0.2497 -0.0104
  810POPS   GL110855  12.539  17.355   6.143  0.0484 -0.0930  0.2853
  810POPS   GL210856  12.857  17.479   6.152 -0.0763  0.2663 -0.0119
  810POPS   C1A10857  12.441  17.160   6.507  0.0988  0.0995  0.1881
  810POPS   D2A10858  12.375  17.074   6.996 -0.0906 -0.2323 -0.2432
  810POPS   C3A10859  12.103  17.222   7.216  0.0193 -0.1461 -0.2737
  810POPS   C4A10860  11.667  17.361   7.393 -0.2377  0.1183  0.0040
  810POPS   C1B10861  12.764  17.520   6.618 -0.1809 -0.0685 -0.1093
  810POPS   C2B10862  12.524  17.535   6.993  0.0709  0.0596  0.0313
  810POPS   C3B10863  12.564  17.416   7.443 -0.0420 -0.1429  0.0436
  810POPS   C4B10864  12.604  17.578   7.844 -0.1893  0.2946  0.1075
  811POPS   CNO10865   6.909   9.120   5.415 -0.0095 -0.2171  0.0894
  811POPS   PO410866   7.170   9.382   5.561  0.3891 -0.2793 -0.0467
  811POPS   GL110867   7.035   9.478   5.906 -0.2476  0.0310 -0.1046
  811POPS   GL210868   6.902   9.715   5.841  0.0908 -0.2281 -0.1849
  811POPS   C1A10869   6.846   9.471   6.307  0.1181 -0.1696  0.0239
  811POPS   D2A10870   6.712   9.529   6.747 -0.1734  0.0331  0.1117
  811POPS   C3A10871   6.869   9.396   7.095 -0.0783  0.2666  0.3827
  811POPS   C4A10872   7.053   9.701   7.450 -0.0493 -0.2207 -0.0006
  811POPS   C1B10873   6.682   9.924   6.173  0.1060  0.1913 -0.0265
  811POPS   C2B10874   6.581   9.996   6.674  0.2699 -0.2044 -0.0239
  811POPS   C3B10875   6.667   9.932   7.068  0.2120 -0.1995  0.1512
  811POPS   C4B10876   6.581   9.723   7.356 -0.0895  0.2072  0.1937
  812YOPS   CNO10877  17.378  12.400   6.307  0.0508  0.0208 -0.0713
  812YOPS   PO410878  17.743  12.509   6.250  0.0002  0.5322  0.1611
  812YOPS   GL110879  17.699  12.651   6.667 -0.0022  0.1806  0.2038
  812YOPS   GL210880  17.397  12.540   6.796  0.1258 -0.4162  0.1628
  812YOPS   C1A10881  17.672  12.418   7.164 -0.0024  0.2702  0.0740
  812YOPS   D2A10882  17.528  12.409   7.547 -0.1828  0.0452  0.1433
  812YOPS   C3A10883  17.768  12.444   7.906  0.1388 -0.0539 -0.0497
  812YOPS   C4A10884  17.643  12.777   8.310 -0.2224 -0.0106  0.1136
  812YOPS   C1B10885  17.508  12.893   7.076  0.2201 -0.0413  0.1443
  812YOPS   C2B10886  17.759  13.077   7.371 -0.0377  0.1127 -0.0576
  812YOPS   D3B10887  17.563  12.974   7.777  0.0975  0.1800  0.2537
  812YOPS   C4B10888  17.295  12.648   7.910  0.0011  0.1619 -0.0409
  813YOPS   CNO10889  13.421   6.095   5.700  0.0910 -0.3806  0.3280
  813YOPS   PO410890  13.235   6.181   6.081 -0.1416 -0.0131 -0.0398
  813YOPS   GL110891  13.400   6.226   6.495  0.2175  0.0853 -0.0594
  813YOPS   GL210892  13.700   6.226   6.559 -0.0235  0.2398 -0.0464
  813YOPS   C1A10893  13.206   6.300   6.894 -0.0835  0.0071  0.1946
  813YOPS   D2A10894  12.892   6.271   7.224  0.0329 -0.0421 -0.0236
  813YOPS   C3A10895  12.903   6.229   7.625 -0.0050  0.0212 -0.2701
  813YOPS   C4A10896  12.785   6.044   8.045 -0.1152 -0.2032 -0.1403
  813YOPS   C1B10897  13.672   6.213   7.048 -0.1123  0.0315 -0.0531
  813YOPS   C2B10898  13.375   6.396   7.342 -0.2921  0.0814 -0.0488
  813YOPS   D3B10899  13.244   6.565   7.603  0.3189 -0.1070 -0.1994
  813YOPS   C4B10900  13.282   6.991   7.775  0.1213  0.2200  0.1536
  814YOPS   CNO10901   4.198   4.872   5.895  0.0746 -0.0686 -0.1669
  814YOPS   PO410902   3.980   4.576   5.835 -0.1944  0.1086  0.0657
  814YOPS   GL110903   4.055   4.508   6.287  0.1809  0.1664  0.0435
  814YOPS   GL210904   4.280   4.318   6.481  0.3432 -0.1117  0.3147
  814YOPS   C1A10905   3.847   4.425   6.787 -0.3017 -0.0106  0.1253
  814YOPS   D2A10906   4.002   4.355   7.184  0.2728 -0.1802  0.6509
  814YOPS   C3A10907   3.991   4.208   7.569  0.2001 -0.1179 -0.3625
  814YOPS   C4A10908   4.354   4.178   7.879  0.3066 -0.1330  0.0493
  814YOPS   C1B10909   4.372   4.065   6.865  0.2709  0.0006  0.2860
  814YOPS   C2B10910   4.368   3.998   7.254 -0.2623  0.3455  0.0783
  814YOPS   D3B10911   4.304   3.697   7.619 -0.0800  0.1622  0.3463
  814YOPS   C4B10912   4.543   3.701   7.892  0.0121 -0.1749 -0.0881
  815YOPS   CNO10913  14.310   5.174   6.348 -0.1129 -0.4387 -0.0674
  815YOPS   PO410914  13.995   4.909   6.064  0.0712 -0.1499 -0.1377
  815YOPS   GL110915  13.860   5.000   6.442 -0.0880 -0.2295  0.0348
  815YOPS   GL210916  13.845   5.266   6.558  0.2505 -0.1848  0.0378
  815YOPS   C1A10917  13.531   4.920   6.818 -0.0797  0.2624  0.0134
  815YOPS   D2A10918  13.395   4.815   7.225 -0.0722 -0.0643 -0.0637
  815YOPS   C3A10919  12.990   4.908   7.298  0.2950 -0.2120  0.0787
  815YOPS   C4A10920  12.949   4.719   7.725 -0.1140 -0.0667 -0.2013
  815YOPS   C1B10921  13.751   5.428   6.895  0.0362 -0.2558 -0.1235
  815YOPS   C2B10922  13.517   5.276   7.125  0.0721 -0.4339  0.2073
  815YOPS   D3B10923  13.397   5.236   7.430  0.0147  0.0970  0.2421
  815YOPS   C4B10924  13.057   5.348   7.674 -0.2740 -0.1152 -0.1117
  816YOPS   CNO10925   3.365   5.647   5.369  0.1475  0.0122 -0.0990
  816YOPS   PO410926   3.395   5.240   5.611  0.1101 -0.1346 -0.0451
  816YOPS   GL110927   3.587   5.169   5.995  0.0134  0.0061 -0.0695
  816YOPS   GL210928   3.740   4.897   6.081  0.1895  0.2241 -0.1922
  816YOPS   C1A10929   3.615   5.344   6.428 -0.1518  0.5941 -0.6577
  816YOPS   D2A10930   3.718   5.376   6.934 -0.1444  0.1488  0.2115
  816YOPS   C3A10931   3.900   5.246   7.239 -0.0720  0.0007  0.2784
  816YOPS   C4A10932   3.763   4.842   7.366  0.0753 -0.3365  0.0372
  816YOPS   C1B10933   3.718   4.821   6.480  0.3351 -0.2387  0.5044
  816YOPS   C2B10934   3.757   4.887   6.853  0.2448 -0.1583  0.0894
  816YOPS   D3B10935   3.418   4.691   7.109  0.2812 -0.2455 -0.0936
  816YOPS   C4B10936   3.248   4.773   7.447  0.1682  0.2478 -0.1375
  817YOPS   CNO10937  15.648   5.318   6.314 -0.0769 -0.2411 -0.2564
  817YOPS   PO410938  16.114   5.163   6.523  0.0188  0.0172  0.1683
  817YOPS   GL110939  15.880   5.499   6.734  0.0559 -0.1759  0.2507
  817YOPS   GL210940  16.201   5.628   6.734  0.1430  0.1129  0.1878
  817YOPS   C1A10941  15.779   5.287   7.078 -0.0911  0.0999 -0.0787
  817YOPS   D2A10942  15.784   5.257   7.456  0.1543  0.0579 -0.0986
  817YOPS   C3A10943  15.403   5.237   7.651 -0.5277  0.0634  0.0927
  817YOPS   C4A10944  15.506   4.905   7.899  0.3128 -0.0123  0.0745
  817YOPS   C1B10945  16.152   5.642   7.190  0.2682  0.0286 -0.0244
  817YOPS   C2B10946  16.385   5.510   7.523 -0.1450  0.0785  0.1863
  817YOPS   D3B10947  16.679   5.285   7.755  0.0008 -0.2980 -0.1435
  817YOPS   C4B10948  16.428   5.169   8.102 -0.2222 -0.1618 -0.0279
  818YOPS   CNO10949   5.170   8.425   5.621 -0.2937 -0.2790 -0.1215
  818YOPS   PO410950   4.826   8.574   5.662 -0.0263 -0.2322 -0.3947
  818YOPS   GL110951   4.803   8.922   5.915 -0.1408  0.1613 -0.0995
  818YOPS   GL210952   5.048   9.086   6.102  0.3092  0.2754  0.0225
  818YOPS   C1A10953   4.525   8.966   6.238 -0.2507  0.1503 -0.0688
  818YOPS   D2A10954   4.223   9.140   6.239  0.0449  0.1415  0.2637
  818YOPS   C3A10955   3.928   9.202   6.622  0.1861  0.0058  0.0727
  818YOPS   C4A10956   3.905   8.757   6.878 -0.0057  0.2208  0.0760
  818YOPS   C1B10957   5.020   9.265   6.492  0.0012 -0.0955  0.1582
  818YOPS   C2B10958   4.940   9.288   7.010 -0.1410  0.0084 -0.0465
  818YOPS   D3B10959   5.226   9.085   7.302  0.1667  0.1256 -0.1379
  818YOPS   C4B10960   5.621   9.344   7.234 -0.0995  0.1683  0.0371
  819YOPS   CNO10961  10.223  13.603   5.401  0.0626 -0.2172 -0.1377
  819YOPS   PO410962  10.145  14.030   5.637  0.0690 -0.1740  0.2281
  819YOPS   GL110963  10.311  13.652   5.910 -0.1462 -0.1716 -0.0615
  819YOPS   GL210964  10.333  13.307   5.856 -0.2683  0.3436  0.2832
  819YOPS   C1A10965  10.141  13.473   6.327  0.2195  0.1328 -0.0785
  819YOPS   D2A10966  10.132  13.683   6.712  0.2168 -0.1046 -0.1701
  819YOPS   C3A10967  10.089  13.704   7.165 -0.1717  0.1788 -0.0229
  819YOPS   C4A10968  10.089  13.350   7.501  0.2474  0.0646 -0.0822
  819YOPS   C1B10969  10.714  13.541   6.199  0.1569 -0.2480  0.1342
  819YOPS   C2B10970  10.623  13.649   6.692  0.0418  0.0400  0.1230
  819YOPS   D3B10971  10.567  13.492   7.101  0.1274  0.1511  0.1106
  819YOPS   C4B10972  10.454  13.647   7.520  0.0892  0.0344 -0.0129
  820YOPS   CNO10973  15.838  17.559   5.909 -0.0439 -0.0040  0.1136
  820YOPS   PO410974  15.866  17.624   6.345  0.2752  0.4088 -0.1348
  820YOPS   GL110975  15.573  17.632   6.643 -0.1133 -0.1572  0.0051
  820YOPS   GL210976  15.555  17.901   6.867  0.0943  0.0304  0.1278
  820YOPS   C1A10977  15.223  17.523   6.981 -0.5903 -0.0163  0.0733
  820YOPS   D2A10978  15.061  17.251   7.391 -0.0083  0.2390  0.0194
  820YOPS   C3A10979  15.007  17.067   7.876 -0.0864  0.0618 -0.0139
  820YOPS   C4A10980  15.253  16.720   8.078  0.0371 -0.1236  0.2873
  820YOPS   C1B10981  15.361  17.978   7.212  0.0793  0.1094  0.1062
  820YOPS   C2B10982  15.188  17.697   7.533 -0.2023 -0.1504 -0.1419
  820YOPS   D3B10983  14.841  17.560   7.700 -0.0279  0.1420 -0.0329
  820YOPS   C4B10984  14.702  17.781   8.057 -0.0990  0.0206 -0.1752
  821YOPS   CNO10985   8.824   3.254   6.094  0.0660 -0.0604 -0.3056
  821YOPS   PO410986   8.914   3.067   5.742 -0.0892 -0.0724 -0.0246
  821YOPS   GL110987   8.920   2.743   6.030  0.1312  0.3048 -0.1047
  821YOPS   GL210988   8.563   2.767   6.226 -0.2238  0.0226 -0.2233
  821YOPS   C1A10989   9.055   2.497   6.385  0.1878  0.0300  0.2667
  821YOPS   D2A10990   8.976   2.372   6.884 -0.2366  0.0014 -0.3881
  821YOPS   C3A10991   8.932   2.375   7.348  0.0651 -0.2384  0.1768
  821YOPS   C4A10992   9.271   2.575   7.523  0.0107  0.0004 -0.2394
  821YOPS   C1B10993   8.623   2.591   6.573 -0.4556 -0.0475 -0.0657
  821YOPS   C2B10994   8.590   2.750   6.919  0.0690  0.1241  0.0998
  821YOPS   D3B10995   8.599   2.732   7.313 -0.0032 -0.2396  0.1106
  821YOPS   C4B10996   8.675   2.933   7.631  0.0216  0.0864  0.0513
  822YOPS   CNO10997  10.167  15.657   5.602  0.0197 -0.0035 -0.1546
  822YOPS   PO410998   9.766  15.334   5.552  0.1665 -0.1218 -0.3932
  822YOPS   GL110999   9.845  15.198   5.999  0.1116 -0.5141 -0.1964
  822YOPS   GL211000  10.019  15.026   6.079  0.2529 -0.0384  0.0922
  822YOPS   C1A11001   9.564  15.143   6.328  0.3947  0.0479  0.0436
  822YOPS   D2A11002   9.445  15.099   6.779  0.4424  0.1062  0.1866
  822YOPS   C3A11003   9.401  15.113   7.273 -0.1374  0.1947 -0.0685
  822YOPS   C4A11004   9.459  14.840   7.681 -0.1952  0.1005  0.0674
  822YOPS   C1B11005  10.336  15.083   6.374 -0.1574  0.1593  0.1167
  822YOPS   C2B11006  10.274  15.067   6.792  0.0583 -0.0296 -0.2162
  822YOPS   D3B11007  10.250  15.024   7.244 -0.0982 -0.2306 -0.2195
  822YOPS   C4B11008   9.903  15.117   7.490  0.0447  0.1864  0.3019
  823YOPS   CNO11009   7.923   6.455   5.355 -0.0181 -0.0534 -0.2623
  823YOPS   PO411010   7.747   6.665   5.741  0.1338  0.3648  0.0115
  823YOPS   GL111011   7.436   6.749   6.136  0.1038  0.0722 -0.0608
  823YOPS   GL211012   7.342   7.077   6.169 -0.0958  0.1201 -0.2541
  823YOPS   C1A11013   7.414   6.559   6.497  0.0543  0.3557 -0.2007
  823YOPS   D2A11014   7.456   6.641   6.939 -0.0118  0.3659  0.0642
  823YOPS   C3A11015   7.575   6.337   7.303 -0.3911  0.0289  0.1552
  823YOPS   C4A11016   7.428   6.379   7.734  0.0065  0.0074 -0.1123
  823YOPS   C1B11017   7.524   7.184   6.559 -0.1961  0.0757  0.1540
  823YOPS   C2B11018   7.917   7.250   6.574 -0.1700 -0.2778  0.0017
  823YOPS   D3B11019   8.138   7.525   6.803 -0.0335  0.4430 -0.0836
  823YOPS   C4B11020   8.238   7.990   6.816 -0.2185  0.0358 -0.0125
  824YOPS   CNO11021   5.660  17.286   5.544 -0.0504  0.0296  0.0506
  824YOPS   PO411022   6.058  17.524   5.578 -0.0442  0.1259  0.1073
  824YOPS   GL111023   5.893  17.541   5.989  0.2737 -0.0992  0.0028
  824YOPS   GL211024   5.725  17.326   6.109  0.2834 -0.1092 -0.0233
  824YOPS   C1A11025   5.942  17.488   6.558 -0.1123 -0.0693  0.1388
  824YOPS   D2A11026   5.993  17.348   6.946 -0.0248 -0.0355  0.0612
  824YOPS   C3A11027   5.872  17.215   7.335 -0.2065 -0.1555  0.2095
  824YOPS   C4A11028   6.233  17.174   7.447  0.1541 -0.0755  0.1836
  824YOPS   C1B11029   5.765  17.055   6.534  0.1940 -0.2344  0.1849
  824YOPS   C2B11030   5.691  16.933   6.948 -0.0417  0.0271  0.4223
  824YOPS   D3B11031   5.947  16.732   7.173  0.2520 -0.0444  0.1866
  824YOPS   C4B11032   5.803  16.482   7.464 -0.1097  0.3192  0.0984
  825YOPS   CNO11033   7.817   1.606   5.585 -0.0163  0.0534 -0.0218
  825YOPS   PO411034   8.146   1.335   5.943 -0.1544 -0.0992  0.2031
  825YOPS   GL111035   8.441   1.203   6.199 -0.1608  0.0706  0.0835
  825YOPS   GL211036   8.542   1.477   6.409  0.0426 -0.1735  0.1848
  825YOPS   C1A11037   8.484   0.975   6.406  0.0314  0.0290  0.4312
  825YOPS   D2A11038   8.518   0.753   6.862 -0.0465 -0.1537 -0.0861
  825YOPS   C3A11039   8.518   0.693   7.376  0.0360  0.2604 -0.1138
  825YOPS   C4A11040   8.731   0.590   7.779 -0.1733  0.1515 -0.0709
  825YOPS   C1B11041   8.780   1.589   6.725  0.2362 -0.2591 -0.2317
  825YOPS   C2B11042   8.897   1.905   7.020  0.1758 -0.0567  0.0917
  825YOPS   D3B11043   8.801   1.893   7.478 -0.1143 -0.0837 -0.1088
  825YOPS   C4B11044   8.939   2.116   7.848 -0.0600  0.1837  0.2268
  826YOPS   CNO11045  11.463  12.485   5.492  0.0909  0.0934  0.0078
  826YOPS   PO411046  11.469  12.327   5.834  0.0056 -0.2759 -0.2496
  826YOPS   GL111047  11.243  12.334   6.196  0.0808 -0.4912  0.1133
  826YOPS   GL211048  11.447  12.178   6.443  0.0489  0.2153  0.1024
  826YOPS   C1A11049  11.067  12.693   6.453 -0.0577  0.4795 -0.0472
  826YOPS   D2A11050  10.959  12.739   6.881 -0.3621 -0.2286  0.0898
  826YOPS   C3A11051  10.668  12.521   7.033  0.3270  0.0708  0.0601
  826YOPS   C4A11052  10.584  12.596   7.517  0.0106  0.0434 -0.0990
  826YOPS   C1B11053  11.637  12.086   6.740 -0.2448 -0.1354  0.0611
  826YOPS   C2B11054  11.582  12.136   7.147  0.1673  0.0158 -0.0363
  826YOPS   D3B11055  11.368  11.914   7.461  0.1312 -0.0177  0.0132
  826YOPS   C4B11056  11.484  11.969   7.864 -0.0481  0.0069 -0.2133
  827YOPS   CNO11057   0.163   6.968   6.018  0.2155 -0.1158 -0.1405
  827YOPS   PO411058   0.029   7.033   6.336 -0.5031  0.0358  0.2413
  827YOPS   GL111059  -0.077   6.858   6.681  0.0870  0.0068 -0.0564
  827YOPS   GL211060  -0.024   6.551   6.680 -0.0644 -0.3392  0.1748
  827YOPS   C1A11061  -0.044   6.943   7.137 -0.3200 -0.0757  0.1022
  827YOPS   D2A11062   0.168   7.014   7.518 -0.2216  0.0710  0.3305
  827YOPS   C3A11063   0.279   6.818   7.926  0.2466  0.1504 -0.1707
  827YOPS   C4A11064  -0.104   6.713   8.171 -0.1553  0.1773  0.1002
  827YOPS   C1B11065  -0.016   6.157   6.823 -0.0462 -0.3200 -0.0569
  827YOPS   C2B11066   0.071   5.976   7.172  0.0195 -0.0382  0.1499
  827YOPS   D3B11067   0.239   5.946   7.588 -0.3005  0.0509 -0.0061
  827YOPS   C4B11068  -0.108   5.794   7.888 -0.0540 -0.1532 -0.2457
  828YOPS   CNO11069   8.180  13.475   5.110  0.0949  0.0505 -0.0765
  828YOPS   PO411070   8.404  13.636   5.468  0.1077  0.1930  0.1734
  828YOPS   GL111071   8.407  13.407   5.892  0.3169 -0.0988 -0.0977
  828YOPS   GL211072   8.690  13.443   6.110  0.0862 -0.1220 -0.1258
  828YOPS   C1A11073   8.266  13.370   6.363 -0.1384  0.0939 -0.1996
  828YOPS   D2A11074   8.197  13.491   6.866 -0.1275 -0.0400  0.2661
  828YOPS   C3A11075   8.093  13.627   7.321 -0.0810 -0.0387 -0.1186
  828YOPS   C4A11076   8.300  13.099   7.439  0.2022  0.0291 -0.0690
  828YOPS   C1B11077   8.678  13.257   6.558  0.2384  0.1999 -0.1722
  828YOPS   C2B11078   8.616  13.324   6.949  0.1032  0.0057 -0.2641
  828YOPS   D3B11079   8.706  13.442   7.384  0.2313  0.0083  0.1421
  828YOPS   C4B11080   8.568  13.801   7.637  0.1066 -0.0254  0.0919
  829YOPS   CNO11081   5.879  13.131   5.281 -0.1181  0.1788 -0.0597
  829YOPS   PO411082   6.043  12.854   5.594 -0.1452 -0.0886 -0.0510
  829YOPS   GL111083   6.271  12.904   5.971 -0.1004 -0.1978 -0.1725
  829YOPS   GL211084   6.314  13.190   6.107  0.0672  0.0392  0.1069
  829YOPS   C1A11085   6.288  12.728   6.324  0.1684 -0.0943  0.6346
  829YOPS   D2A11086   6.515  12.835   6.615 -0.0756  0.1182  0.1288
  829YOPS   C3A11087   6.825  13.024   6.895 -0.1306  0.0253 -0.0741
  829YOPS   C4A11088   6.946  13.048   7.311 -0.2556 -0.0675  0.0192
  829YOPS   C1B11089   6.220  13.265   6.510 -0.2395  0.0314 -0.1014
  829YOPS   C2B11090   6.309  13.204   6.898 -0.0880  0.1154  0.1172
  829YOPS   D3B11091   6.260  13.311   7.306 -0.1187  0.0357  0.2887
  829YOPS   C4B11092   6.504  13.568   7.548 -0.1027 -0.1151  0.2273
  830YOPS   CNO11093   4.692   4.554   5.373 -0.0023  0.3287 -0.0587
  830YOPS   PO411094   4.739   4.977   5.525 -0.2911 -0.2340  0.0102
  830YOPS   GL111095   4.789   5.046   6.036 -0.0551  0.0704  0.5892
  830YOPS   GL211096   4.945   5.112   6.275  0.0561 -0.0336 -0.0782
  830YOPS   C1A11097   4.547   5.356   6.371 -0.1286 -0.1969 -0.0329
  830YOPS   D2A11098   4.707   5.309   6.730  0.1762  0.1556  0.3388
  830YOPS   C3A11099   4.703   5.231   7.149  0.1063  0.0510 -0.0264
  830YOPS   C4A11100   4.365   5.377   7.395 -0.0652  0.1857 -0.0763
  830YOPS   C1B11101   4.977   4.884   6.691 -0.0976 -0.0423 -0.0925
  830YOPS   C2B11102   4.951   4.770   7.106  0.1645 -0.2090  0.0596
  830YOPS   D3B11103   4.983   4.673   7.501  0.0157  0.1046  0.1443
  830YOPS   C4B11104   5.112   4.884   7.821  0.2347 -0.3153  0.1206
  831YOPS   CNO11105  15.907  11.811   6.186  0.1752 -0.1200 -0.3091
  831YOPS   PO411106  15.965  11.408   6.154 -0.1069 -0.1351  0.0454
  831YOPS   GL111107  15.803  11.228   6.570  0.0765  0.2499  0.0733
  831YOPS   GL211108  15.892  11.486   6.811  0.1491  0.3830 -0.2000
  831YOPS   C1A11109  15.410  11.178   6.874 -0.2020 -0.0912  0.1377
  831YOPS   D2A11110  15.415  11.238   7.351  0.2116  0.2039  0.0582
  831YOPS   C3A11111  15.252  11.086   7.731 -0.0527  0.0022 -0.2946
  831YOPS   C4A11112  15.100  10.691   7.826  0.0448 -0.1924  0.0915
  831YOPS   C1B11113  15.882  11.227   7.137  0.1769  0.0835  0.1017
  831YOPS   C2B11114  15.897  10.872   7.365  0.0143  0.0793 -0.1478
  831YOPS   D3B11115  15.921  10.585   7.704  0.3567  0.0896  0.3551
  831YOPS   C4B11116  15.578  10.825   7.956 -0.2154  0.2665  0.1290
  832YOPS   CNO11117  17.220   3.680   5.963  0.0792 -0.0658 -0.0604
  832YOPS   PO411118  16.904   3.618   6.265  0.0884 -0.1210  0.1809
  832YOPS   GL111119  16.795   3.667   6.593  0.3384 -0.0596  0.1880
  832YOPS   GL211120  16.736   3.387   6.793 -0.1205  0.1563 -0.3164
  832YOPS   C1A11121  16.944   3.929   7.064 -0.0388 -0.0524  0.0268
  832YOPS   D2A11122  16.962   3.972   7.483  0.0358  0.0279  0.0168
  832YOPS   C3A11123  16.855   3.909   7.924 -0.0951 -0.1959  0.0175
  832YOPS   C4A11124  17.073   3.989   8.303  0.0119 -0.0874 -0.0921
  832YOPS   C1B11125  16.797   3.392   7.261 -0.0354 -0.1453  0.0013
  832YOPS   C2B11126  16.804   3.476   7.627 -0.0369  0.1268 -0.3072
  832YOPS   D3B11127  16.654   3.471   8.131  0.2531  0.1028  0.0364
  832YOPS   C4B11128  16.796   3.160   8.387  0.1274 -0.0188 -0.0029
  833YOPS   CNO11129   6.110  13.806   5.210 -0.1334  0.0659  0.1760
  833YOPS   PO411130   5.785  13.697   5.376  0.1577  0.3098  0.1755
  833YOPS   GL111131   5.768  13.821   5.694  0.1590 -0.0497 -0.2051
  833YOPS   GL211132   5.634  13.652   5.877  0.2255  0.1962 -0.1858
  833YOPS   C1A11133   5.804  14.102   5.943 -0.1466 -0.0562  0.0564
  833YOPS   D2A11134   5.885  14.093   6.445  0.1585 -0.3583  0.2895
  833YOPS   C3A11135   5.943  14.227   6.814  0.1926  0.0938  0.0989
  833YOPS   C4A11136   6.202  14.207   7.103  0.0137  0.1383  0.2131
  833YOPS   C1B11137   5.936  13.589   6.198 -0.1693 -0.1234  0.0068
  833YOPS   C2B11138   5.866  13.591   6.577 -0.2284  0.3980  0.0894
  833YOPS   D3B11139   5.996  13.623   6.954 -0.0992  0.1751 -0.0739
  833YOPS   C4B11140   5.996  13.872   7.404 -0.2303 -0.2469 -0.0382
  834YOPS   CNO11141   9.823  14.910   5.304  0.0458 -0.2623 -0.1999
  834YOPS   PO411142  10.291  14.772   5.305  0.2390  0.1086 -0.1229
  834YOPS   GL111143  10.124  14.673   5.723 -0.3489  0.2197 -0.0296
  834YOPS   GL211144   9.857  14.603   5.770  0.1825  0.1589  0.0777
  834YOPS   C1A11145  10.121  14.559   6.154 -0.1200 -0.0706  0.2133
  834YOPS   D2A11146   9.949  14.781   6.503  0.0017 -0.0233 -0.1398
  834YOPS   C3A11147   9.545  14.675   6.625  0.0938 -0.2406  0.1223
  834YOPS   C4A11148   9.422  14.597   7.059  0.1033 -0.1472 -0.2502
  834YOPS   C1B11149   9.623  14.686   6.131 -0.0416  0.1148  0.2820
  834YOPS   C2B11150   9.222  14.812   6.184  0.0338 -0.0657 -0.2256
  834YOPS   D3B11151   8.923  15.163   6.317  0.2533  0.0239 -0.2988
  834YOPS   C4B11152   8.517  15.210   6.038 -0.1502  0.4058 -0.1573
  835YOPS   CNO11153   3.275   0.993   5.220 -0.0375 -0.0404  0.2739
  835YOPS   PO411154   2.983   1.226   5.415  0.3146  0.0520  0.0199
  835YOPS   GL111155   2.780   1.462   5.843 -0.0182 -0.2750 -0.1192
  835YOPS   GL211156   2.875   1.175   5.951  0.0855 -0.2005  0.0272
  835YOPS   C1A11157   2.721   1.657   6.275 -0.0875 -0.1683  0.0084
  835YOPS   D2A11158   2.622   1.974   6.517 -0.2102  0.0403  0.1685
  835YOPS   C3A11159   2.445   1.920   6.889 -0.1705  0.2048  0.3952
  835YOPS   C4A11160   2.361   1.548   6.975  0.0392  0.3978  0.0465
  835YOPS   C1B11161   2.994   1.224   6.334 -0.1814  0.2038 -0.1862
  835YOPS   C2B11162   3.468   1.250   6.421 -0.3514 -0.0927  0.0103
  835YOPS   D3B11163   3.694   0.872   6.308  0.0401  0.1301 -0.1379
  835YOPS   C4B11164   3.629   0.597   6.569 -0.0529 -0.3267  0.0936
  836YOPS   CNO11165   2.269   7.365   6.287 -0.0236 -0.2066 -0.2660
  836YOPS   PO411166   2.448   6.953   6.141  0.1918 -0.1157 -0.1550
  836YOPS   GL111167   2.478   6.718   6.577 -0.4462 -0.0655  0.1155
  836YOPS   GL211168   2.778   6.745   6.525 -0.2344 -0.3060  0.0036
  836YOPS   C1A11169   2.611   6.624   7.031  0.2064  0.1533 -0.2112
  836YOPS   D2A11170   2.904   6.850   7.126 -0.0347  0.0699  0.2048
  836YOPS   C3A11171   3.320   7.030   7.329  0.1610  0.2659  0.1430
  836YOPS   C4A11172   3.651   6.772   7.456  0.3117 -0.0920  0.1626
  836YOPS   C1B11173   3.131   6.530   6.764  0.2252  0.1995 -0.0654
  836YOPS   C2B11174   3.326   6.515   7.112  0.0432 -0.1177 -0.0772
  836YOPS   D3B11175   3.404   6.166   7.468 -0.0993 -0.2543  0.0394
  836YOPS   C4B11176   3.518   6.327   7.874 -0.2768  0.0310  0.1086
  837YOPS   CNO11177   7.840   4.292   5.821 -0.1044 -0.1418  0.3267
  837YOPS   PO411178   7.993   4.636   6.071  0.2254  0.1046 -0.0746
  837YOPS   GL111179   8.004   4.429   6.436 -0.0273 -0.3003 -0.0962
  837YOPS   GL211180   7.752   4.100   6.480  0.0214 -0.0889  0.0465
  837YOPS   C1A11181   8.085   4.542   6.903  0.1824 -0.0947 -0.0294
  837YOPS   D2A11182   8.086   4.575   7.284 -0.0663  0.0487 -0.0858
  837YOPS   C3A11183   8.229   4.459   7.711 -0.0798 -0.0386  0.2038
  837YOPS   C4A11184   8.066   4.609   8.104  0.0954  0.2449 -0.0618
  837YOPS   C1B11185   7.732   3.962   6.865 -0.1960  0.0220  0.0349
  837YOPS   C2B11186   7.796   4.167   7.204  0.0197 -0.0814  0.0692
  837YOPS   D3B11187   8.020   4.018   7.547  0.0330  0.0831  0.2145
  837YOPS   C4B11188   8.041   4.114   7.984 -0.0021  0.1886 -0.0765
  838YOPS   CNO11189   9.791   3.164   5.985 -0.1786 -0.0869 -0.2090
  838YOPS   PO411190  10.105   3.014   5.904 -0.2335  0.1914  0.3417
  838YOPS   GL111191  10.250   2.926   6.321  0.0035  0.0745  0.3487
  838YOPS   GL211192  10.436   2.794   6.244  0.0271 -0.3908  0.1327
  838YOPS   C1A11193  10.173   2.679   6.740 -0.1379 -0.0244  0.0306
  838YOPS   D2A11194  10.124   2.439   7.126  0.0099 -0.1427  0.1529
  838YOPS   C3A11195   9.828   2.158   7.342 -0.1633 -0.2791  0.2004
  838YOPS   C4A11196   9.649   2.386   7.673 -0.2056 -0.0915  0.1609
  838YOPS   C1B11197  10.660   2.669   6.534 -0.2468  0.0833 -0.2011
  838YOPS   C2B11198  10.608   2.610   6.976 -0.0620 -0.0594  0.2610
  838YOPS   D3B11199  10.564   2.160   7.180 -0.1843  0.1477  0.2110
  838YOPS   C4B11200  10.442   1.871   7.524 -0.1140  0.1799  0.0918
  839YOPS   CNO11201   6.613  14.946   4.713  0.1334  0.2013  0.2846
  839YOPS   PO411202   6.692  14.561   5.052 -0.0163  0.3946  0.2698
  839YOPS   GL111203   6.407  14.579   5.489 -0.0354  0.3220  0.2120
  839YOPS   GL211204   6.135  14.455   5.710  0.1014 -0.3295  0.0461
  839YOPS   C1A11205   6.451  14.765   5.936  0.0128  0.1747 -0.5962
  839YOPS   D2A11206   6.716  14.642   6.314  0.2049 -0.3132 -0.0876
  839YOPS   C3A11207   7.052  14.565   6.612  0.1781  0.0417 -0.1601
  839YOPS   C4A11208   6.973  14.551   7.063  0.1609 -0.4056  0.0517
  839YOPS   C1B11209   6.178  14.367   6.161  0.1907 -0.0675  0.0389
  839YOPS   C2B11210   6.308  14.376   6.562 -0.0447  0.1973 -0.1542
  839YOPS   D3B11211   6.593  14.481   6.846 -0.0160  0.1186  0.0008
  839YOPS   C4B11212   6.529  14.565   7.211 -0.3610 -0.2722 -0.1350
  840YOPS   CNO11213  13.682   2.642   6.249  0.2074 -0.0063  0.0099
  840YOPS   PO411214  13.919   2.312   6.017 -0.1859  0.2248  0.1894
  840YOPS   GL111215  14.193   2.411   6.382 -0.1418 -0.0684 -0.3012
  840YOPS   GL211216  14.236   2.206   6.627 -0.1550 -0.0433  0.2440
  840YOPS   C1A11217  14.464   2.635   6.840  0.1144  0.0321  0.1423
  840YOPS   D2A11218  14.565   2.627   7.182 -0.0106  0.1613 -0.2880
  840YOPS   C3A11219  14.915   2.690   7.695  0.3207 -0.0628 -0.0116
  840YOPS   C4A11220  14.734   2.995   8.024 -0.1969 -0.2120  0.2178
  840YOPS   C1B11221  14.306   2.180   7.085 -0.0686  0.0847  0.1890
  840YOPS   C2B11222  14.269   2.416   7.527 -0.1374  0.0433 -0.0271
  840YOPS   D3B11223  14.046   2.621   7.869  0.0245  0.0496  0.3070
  840YOPS   C4B11224  14.181   2.854   8.121  0.0926  0.1176 -0.2586
  841YOPS   CNO11225   2.476   1.126   5.600 -0.0902  0.2701 -0.0810
  841YOPS   PO411226   2.345   0.847   5.527  0.0769 -0.0357 -0.1532
  841YOPS   GL111227   2.555   0.697   5.890  0.2226  0.0977 -0.0987
  841YOPS   GL211228   2.611   0.425   6.028 -0.0974  0.0217  0.1153
  841YOPS   C1A11229   2.655   0.801   6.336  0.0144 -0.0681 -0.2835
  841YOPS   D2A11230   2.672   0.742   6.782 -0.0387  0.0528 -0.1610
  841YOPS   C3A11231   2.688   0.916   7.168  0.3347 -0.2296 -0.0135
  841YOPS   C4A11232   2.684   1.257   7.179  0.4954  0.2180 -0.2185
  841YOPS   C1B11233   2.444   0.328   6.366  0.2735  0.0774  0.0246
  841YOPS   C2B11234   2.436   0.301   6.812 -0.0747  0.1436  0.0405
  841YOPS   D3B11235   2.387   0.311   7.321  0.0993 -0.0578  0.0043
  841YOPS   C4B11236   2.285   0.731   7.574  0.0398  0.1239 -0.0687
  842POPE   NH311237   2.624  14.031   5.850  0.1310  0.0087 -0.1015
  842POPE   PO411238   2.367  14.467   5.908 -0.1243  0.0743 -0.0488
  842POPE   GL111239   2.293  14.118   6.283 -0.0028  0.1549  0.0850
  842POPE   GL211240   2.351  13.783   6.162 -0.1643 -0.1416 -0.1088
  842POPE   C1A11241   2.167  13.829   6.617  0.3976  0.0334  0.2995
  842POPE   D2A11242   1.834  13.735   6.920  0.1052 -0.2041  0.0467
  842POPE   C3A11243   1.878  13.664   7.280  0.0861 -0.0851  0.1228
  842POPE   C4A11244   2.103  13.333   7.521 -0.1345 -0.1941 -0.1889
  842POPE   C1B11245   2.528  13.409   6.457  0.0815  0.0496 -0.3871
  842POPE   C2B11246   2.584  13.087   6.659  0.0381  0.1369  0.0462
  842POPE   C3B11247   2.433  12.911   7.011  0.0185  0.0304 -0.1246
  842POPE   C4B11248   2.173  12.767   7.221 -0.0604 -0.1984 -0.1346
  843POPE   NH311249  10.942  18.107   6.034 -0.0882  0.0686  0.1771
  843POPE   PO411250  11.493  18.311   6.108 -0.2195 -0.1776 -0.0816
  843POPE   GL111251  11.484  18.040   6.331 -0.1115 -0.1389 -0.1274
  843POPE   GL211252  11.250  17.883   6.402 -0.1197 -0.2655  0.0919
  843POPE   C1A11253  11.750  17.744   6.599 -0.2246  0.1059  0.0788
  843POPE   D2A11254  11.774  17.548   6.973  0.1109  0.1606 -0.2072
  843POPE   C3A11255  12.115  17.722   7.280 -0.1378 -0.0166 -0.1147
  843POPE   C4A11256  12.194  18.135   7.256 -0.3763 -0.0342 -0.1902
  843POPE   C1B11257  11.362  17.834   6.841 -0.1252  0.1746 -0.2199
  843POPE   C2B11258  11.310  17.635   7.198 -0.0968  0.2212  0.5026
  843POPE   C3B11259  11.174  17.311   7.458  0.0029 -0.0237  0.0891
  843POPE   C4B11260  11.366  17.135   7.841  0.0398 -0.1622  0.0093
  844POPE   NH311261  10.604  17.435   5.882  0.0997  0.0588 -0.0202
  844POPE   PO411262  10.515  17.787   5.946  0.1316 -0.0733 -0.2138
  844POPE   GL111263  10.608  17.749   6.349 -0.0453  0.0002  0.0695
  844POPE   GL211264  10.653  18.047   6.434 -0.2393  0.0552 -0.1408
  844POPE   C1A11265  10.899  17.699   6.791 -0.1502 -0.2170  0.2566
  844POPE   D2A11266  10.774  17.669   7.242  0.1301 -0.1515 -0.1003
  844POPE   C3A11267  11.030  17.789   7.655  0.3411 -0.0093 -0.2989
  844POPE   C4A11268  11.234  18.064   8.014 -0.0787  0.0084 -0.0860
  844POPE   C1B11269  10.501  18.059   6.903 -0.0167  0.0341  0.1586
  844POPE   C2B11270  10.132  17.879   7.150 -0.3002 -0.1324  0.2223
  844POPE   C3B11271   9.945  17.933   7.510 -0.2278  0.1883  0.1168
  844POPE   C4B11272   9.723  17.737   7.818 -0.1407 -0.2294 -0.3490
  845POPE   NH311273  14.375  13.698   6.268  0.1389 -0.3133 -0.2321
  845POPE   PO411274  14.366  14.125   6.383 -0.0438  0.0869  0.3388
  845POPE   GL111275  14.188  14.298   6.709 -0.0166 -0.0442  0.0889
  845POPE   GL211276  14.405  14.328   6.915 -0.1109  0.2103 -0.1153
  845POPE   C1A11277  14.002  14.427   7.181 -0.1292 -0.0812 -0.2405
  845POPE   D2A11278  13.876  14.522   7.602 -0.0094 -0.2091 -0.3185
  845POPE   C3A11279  13.970  14.181   7.942 -0.1409 -0.0539 -0.0597
  845POPE   C4A11280  14.225  13.962   8.287  0.1054  0.0654 -0.2494
  845POPE   C1B11281  14.417  14.238   7.414 -0.1786 -0.1838 -0.0861
  845POPE   C2B11282  14.444  14.014   7.851 -0.0865 -0.0090 -0.0750
  845POPE   C3B11283  14.593  13.714   7.913  0.4045 -0.1795  0.1246
  845POPE   C4B11284  15.014  13.557   7.987  0.2848  0.1160  0.1056
  846POPE   NH311285   3.489  12.090   5.869  0.0894  0.1538 -0.0874
  846POPE   PO411286   3.181  12.319   5.998  0.4534 -0.2007  0.1489
  846POPE   GL111287   3.312  12.349   6.365  0.1530 -0.0063 -0.1682
  846POPE   GL211288   3.433  12.053   6.364 -0.0931 -0.0851 -0.2153
  846POPE   C1A11289   3.252  12.503   6.852 -0.1518  0.1280 -0.0917
  846POPE   D2A11290   3.211  12.567   7.291 -0.0552  0.1882  0.0380
  846POPE   C3A11291   3.441  12.789   7.547  0.0791  0.1683  0.0597
  846POPE   C4A11292   3.661  13.113   7.794 -0.2516 -0.5507 -0.2167
  846POPE   C1B11293   3.435  12.055   6.730 -0.0326  0.0582  0.1285
  846POPE   C2B11294   3.269  12.063   7.133 -0.1260 -0.2629  0.1788
  846POPE   C3B11295   3.378  12.102   7.564  0.0378 -0.0024  0.1235
  846POPE   C4B11296   3.198  11.904   7.942 -0.2113  0.0213 -0.0173
  847POPE   NH311297  16.736   8.653   5.904 -0.1961 -0.0277 -0.1947
  847POPE   PO411298  16.458   8.389   6.075  0.1179 -0.1414 -0.0320
  847POPE   GL111299  16.619   8.287   6.468  0.2569  0.0531  0.0138
  847POPE   GL211300  16.508   8.089   6.604 -0.0425 -0.3602  0.0070
  847POPE   C1A11301  16.759   8.637   6.828  0.0468  0.2407 -0.4116
  847POPE   D2A11302  17.141   8.371   7.172  0.1788  0.2311 -0.1316
  847POPE   C3A11303  16.925   8.378   7.618  0.1481  0.0034  0.0970
  847POPE   C4A11304  16.992   8.655   7.890 -0.2958 -0.2671 -0.0334
  847POPE   C1B11305  16.867   7.893   6.841 -0.0807  0.0977 -0.3112
  847POPE   C2B11306  17.060   7.535   6.861  0.0893 -0.0586 -0.1159
  847POPE   C3B11307  17.038   7.088   6.928 -0.2330  0.0697  0.3008
  847POPE   C4B11308  17.161   6.614   6.943 -0.1198  0.1594 -0.0405
  848POPE   NH311309   9.649  14.071   5.645  0.1028 -0.2525  0.1229
  848POPE   PO411310   9.330  13.919   5.776  0.0010 -0.3530 -0.0843
  848POPE   GL111311   9.169  13.912   6.176  0.2633  0.1397 -0.2303
  848POPE   GL211312   8.761  13.933   6.070 -0.1584  0.1124 -0.0435
  848POPE   C1A11313   8.966  13.828   6.536  0.1858  0.1479 -0.2045
  848POPE   D2A11314   8.958  13.730   6.980 -0.0999 -0.1807 -0.1348
  848POPE   C3A11315   9.055  13.766   7.481  0.1390  0.1700 -0.3235
  848POPE   C4A11316   9.402  13.838   7.784 -0.1220  0.0663 -0.0346
  848POPE   C1B11317   8.462  13.869   6.364  0.0334  0.3547  0.1225
  848POPE   C2B11318   8.511  13.852   6.779 -0.0118 -0.0159 -0.0942
  848POPE   C3B11319   8.538  14.014   7.187  0.1149  0.0034  0.1461
  848POPE   C4B11320   8.658  14.327   7.481 -0.3359 -0.1726  0.1212
  849POPE   NH311321  12.480   6.032   6.212 -0.1499  0.1527 -0.0633
  849POPE   PO411322  12.048   5.971   6.246 -0.0824 -0.0626 -0.2864
  849POPE   GL111323  11.863   6.108   6.671 -0.2071  0.3438  0.0021
  849POPE   GL211324  11.880   6.422   6.628  0.2026  0.1985  0.0541
  849POPE   C1A11325  11.915   6.023   7.134 -0.1255  0.0196 -0.1012
  849POPE   D2A11326  11.772   6.145   7.428  0.0855  0.0035 -0.3558
  849POPE   C3A11327  11.865   6.401   7.772  0.0322 -0.0059  0.1555
  849POPE   C4A11328  11.568   6.626   8.012 -0.1316  0.0565 -0.0797
  849POPE   C1B11329  11.724   6.614   6.979  0.1820  0.1287 -0.0143
  849POPE   C2B11330  11.501   6.557   7.334  0.1692 -0.1278 -0.1309
  849POPE   C3B11331  11.237   6.606   7.592 -0.2457 -0.0769 -0.0119
  849POPE   C4B11332  11.079   6.595   8.012 -0.0400  0.2176 -0.0753
  850POPE   NH311333  15.507  11.090   6.120 -0.2863 -0.0324  0.0064
  850POPE   PO411334  15.095  11.162   6.278  0.1292  0.0536 -0.0639
  850POPE   GL111335  14.908  11.290   6.673 -0.1079 -0.2751 -0.0989
  850POPE   GL211336  14.766  11.661   6.659 -0.1665  0.0346  0.0878
  850POPE   C1A11337  14.891  11.415   7.051 -0.0716 -0.1136 -0.1951
  850POPE   D2A11338  14.927  11.390   7.512  0.0882  0.1078  0.2064
  850POPE   C3A11339  15.079  11.475   7.928  0.0481 -0.0201  0.0096
  850POPE   C4A11340  15.093  11.305   8.315 -0.0880 -0.1315  0.1341
  850POPE   C1B11341  14.792  11.897   7.023 -0.0629 -0.0157  0.1458
  850POPE   C2B11342  14.794  11.885   7.453  0.3186  0.0772 -0.0638
  850POPE   C3B11343  14.887  11.967   7.813  0.0709 -0.1097  0.0097
  850POPE   C4B11344  14.911  11.780   8.257 -0.1492 -0.1224 -0.1401
  851POPE   NH311345   0.974   0.732   5.627  0.0303 -0.1227 -0.0383
  851POPE   PO411346   1.067   1.287   5.642 -0.0597 -0.2938 -0.1210
  851POPE   GL111347   1.108   1.232   5.978 -0.0814  0.0174 -0.0695
  851POPE   GL211348   1.241   0.936   5.984  0.0531  0.1062  0.4735
  851POPE   C1A11349   1.192   1.236   6.383 -0.1401  0.0353  0.1031
  851POPE   D2A11350   1.435   1.309   6.691  0.1295  0.2290 -0.3721
  851POPE   C3A11351   1.343   1.644   6.921 -0.2062  0.2500  0.0312
  851POPE   C4A11352   1.428   1.773   7.361  0.0581 -0.2221  0.1640
  851POPE   C1B11353   1.582   1.100   6.010 -0.1597  0.1684  0.0713
  851POPE   C2B11354   1.895   1.465   6.139 -0.1554 -0.0798  0.2137
  851POPE   C3B11355   1.740   1.672   6.617 -0.1820 -0.1899 -0.1986
  851POPE   C4B11356   1.837   1.552   7.057  0.0765 -0.1877 -0.1218
  852POPE   NH311357  16.537  12.548   6.378 -0.4118  0.1519  0.1080
  852POPE   PO411358  16.175  12.218   6.330 -0.1253 -0.2124  0.1644
  852POPE   GL111359  16.006  12.107   6.715  0.4333 -0.0992 -0.0474
  852POPE   GL211360  15.717  11.940   6.673 -0.0438 -0.0913  0.1628
  852POPE   C1A11361  16.052  12.283   7.088  0.2112  0.1915 -0.1647
  852POPE   D2A11362  16.144  12.553   7.388  0.1256  0.2320 -0.1156
  852POPE   C3A11363  16.281  12.381   7.874  0.2728  0.1005 -0.3185
  852POPE   C4A11364  16.241  12.381   8.290 -0.0158 -0.2729  0.3418
  852POPE   C1B11365  15.885  11.851   7.149 -0.2718  0.1490  0.1356
  852POPE   C2B11366  15.972  11.605   7.454 -0.1497 -0.1157 -0.2347
  852POPE   C3B11367  15.728  11.363   7.740 -0.0683  0.1215 -0.0568
  852POPE   C4B11368  15.580  11.275   8.046  0.0781 -0.3162  0.0093
  853POPE   NH311369   9.789  12.048   5.610 -0.1564  0.1479  0.0623
  853POPE   PO411370  10.168  12.194   5.393 -0.3362  0.0080  0.0673
  853POPE   GL111371  10.335  12.061   5.775  0.0590  0.1686  0.0927
  853POPE   GL211372  10.605  12.158   5.781 -0.0639  0.0191  0.2839
  853POPE   C1A11373  10.296  12.021   6.298  0.1693 -0.1851 -0.2086
  853POPE   D2A11374  10.325  12.250   6.685  0.2769  0.2437 -0.0119
  853POPE   C3A11375  10.582  12.708   6.572  0.1848 -0.0463  0.1606
  853POPE   C4A11376  10.782  13.114   6.433  0.1782 -0.1259  0.2667
  853POPE   C1B11377  10.857  11.989   6.072  0.0499 -0.1303  0.0882
  853POPE   C2B11378  10.855  11.539   6.204 -0.0130  0.2044  0.0394
  853POPE   C3B11379  10.784  11.208   6.451  0.2157 -0.1798  0.2603
  853POPE   C4B11380  10.773  10.919   6.738 -0.0079 -0.0820  0.1627
  854POPE   NH311381  16.904  14.413   6.432 -0.0306 -0.2180 -0.0527
  854POPE   PO411382  17.244  14.706   6.454  0.1608  0.1863 -0.1569
  854POPE   GL111383  17.192  14.501   6.831 -0.0561  0.2592 -0.2455
  854POPE   GL211384  16.873  14.532   6.925 -0.0029 -0.5174  0.1564
  854POPE   C1A11385  17.144  14.238   7.203 -0.0267 -0.0916  0.0086
  854POPE   D2A11386  17.314  13.892   7.534 -0.2124  0.0298  0.1750
  854POPE   C3A11387  17.438  13.921   7.973 -0.0870  0.2875  0.1436
  854POPE   C4A11388  17.440  13.911   8.427  0.0488 -0.0366 -0.1156
  854POPE   C1B11389  16.693  14.619   7.252  0.1857  0.3297 -0.1885
  854POPE   C2B11390  16.792  14.696   7.724  0.1100 -0.0247 -0.3062
  854POPE   C3B11391  16.778  14.463   8.153 -0.0058  0.0788 -0.1765
  854POPE   C4B11392  16.859  14.281   8.549  0.1463  0.0843 -0.0992
  855POPE   NH311393  15.133  13.042   6.263  0.0554 -0.0578  0.0061
  855POPE   PO411394  14.817  13.412   6.332  0.1704 -0.0471  0.3554
  855POPE   GL111395  14.778  13.654   6.624 -0.1818  0.0724 -0.0543
  855POPE   GL211396  14.714  13.945   6.701  0.2274  0.1970 -0.0485
  855POPE   C1A11397  14.563  13.486   6.981 -0.1589 -0.0448  0.1280
  855POPE   D2A11398  14.304  13.235   7.269 -0.3311 -0.0574  0.1697
  855POPE   C3A11399  14.274  13.273   7.676  0.0094  0.2088 -0.0752
  855POPE   C4A11400  14.265  13.271   8.148  0.2369  0.1715 -0.1406
  855POPE   C1B11401  14.739  13.915   7.194 -0.1668  0.1050  0.0908
  855POPE   C2B11402  14.967  13.898   7.604 -0.3427 -0.1346  0.1723
  855POPE   C3B11403  14.908  14.144   8.036  0.0742  0.3591  0.0419
  855POPE   C4B11404  14.633  14.249   8.277 -0.1554  0.1366 -0.2708
  856POPE   NH311405   8.973   5.589   6.284 -0.0427  0.0604 -0.2858
  856POPE   PO411406   9.494   5.655   6.184  0.1583  0.0120  0.0016
  856POPE   GL111407   9.335   5.664   6.572  0.0193 -0.1984 -0.2400
  856POPE   GL211408   9.301   5.935   6.588  0.0340  0.0763 -0.0734
  856POPE   C1A11409   9.130   5.451   6.980  0.0701 -0.3496  0.1886
  856POPE   D2A11410   9.163   5.506   7.451 -0.0149 -0.1972  0.2490
  856POPE   C3A11411   9.300   5.393   7.803 -0.4235  0.0428 -0.2763
  856POPE   C4A11412   9.263   5.393   8.278  0.1763 -0.2059  0.0448
  856POPE   C1B11413   9.197   5.946   6.961  0.1463  0.0509 -0.1349
  856POPE   C2B11414   9.120   6.050   7.367 -0.0009  0.0246  0.1022
  856POPE   C3B11415   9.231   5.944   7.737  0.0161 -0.2272 -0.2623
  856POPE   C4B11416   9.332   5.859   8.140  0.2725 -0.1165 -0.2860
  857POPE   NH311417  10.262  11.708   5.367  0.3909  0.0806  0.1312
  857POPE   PO411418  10.273  11.254   5.445  0.0472  0.3024  0.1832
  857POPE   GL111419  10.217  11.128   5.881  0.0392 -0.3054 -0.1237
  857POPE   GL211420   9.959  10.878   5.929 -0.2793 -0.1578  0.1869
  857POPE   C1A11421  10.348  11.443   6.160  0.1233  0.2576 -0.0264
  857POPE   D2A11422  10.649  11.772   6.580  0.1314  0.1861 -0.4079
  857POPE   C3A11423  10.664  11.809   6.966  0.1014 -0.1683  0.0064
  857POPE   C4A11424  10.573  12.071   7.291 -0.0859  0.0544 -0.3404
  857POPE   C1B11425   9.844  11.211   6.213  0.0037  0.4653 -0.0500
  857POPE   C2B11426   9.830  11.250   6.641 -0.2178 -0.1934  0.2423
  857POPE   C3B11427   9.986  11.371   7.035 -0.0894 -0.0257 -0.0397
  857POPE   C4B11428  10.354  11.469   7.316 -0.3626 -0.0385 -0.3925
  858POPE   NH311429  11.005  10.661   5.573  0.2928 -0.0995  0.0817
  858POPE   PO411430  11.183  10.962   5.875  0.0594  0.0764 -0.0802
  858POPE   GL111431  11.278  11.243   6.246  0.0895 -0.1373  0.0223
  858POPE   GL211432  11.599  11.234   6.294  0.1370 -0.0842  0.1293
  858POPE   C1A11433  11.201  11.371   6.786  0.0456 -0.0605  0.0245
  858POPE   D2A11434  11.177  11.422   7.206  0.2310  0.1189 -0.0213
  858POPE   C3A11435  10.731  11.277   7.100 -0.1556  0.2324  0.1326
  858POPE   C4A11436  10.501  11.345   6.811  0.4406 -0.1243 -0.1179
  858POPE   C1B11437  11.698  11.035   6.654  0.2255  0.1498  0.0788
  858POPE   C2B11438  11.585  11.093   7.127  0.0895 -0.2542 -0.0161
  858POPE   C3B11439  11.434  11.158   7.549 -0.0115  0.0166 -0.0968
  858POPE   C4B11440  11.364  11.501   7.655 -0.0273 -0.0032  0.1815
  859POPE   NH311441   4.694  12.496   5.700  0.0161 -0.0906  0.0682
  859POPE   PO411442   4.909  12.057   5.762  0.1752 -0.2244  0.0608
  859POPE   GL111443   4.823  12.206   6.103  0.1108  0.0416 -0.0145
  859POPE   GL211444   4.476  12.196   6.154 -0.0376  0.3414  0.0629
  859POPE   C1A11445   4.727  12.189   6.576 -0.1889  0.0317 -0.0351
  859POPE   D2A11446   4.799  12.286   6.982 -0.1897  0.1919 -0.0068
  859POPE   C3A11447   5.157  12.298   7.335 -0.1227 -0.3082 -0.1615
  859POPE   C4A11448   5.468  12.584   7.533 -0.1491 -0.2676 -0.0928
  859POPE   C1B11449   4.233  12.317   6.548  0.0519  0.0950  0.0602
  859POPE   C2B11450   4.245  12.255   6.878 -0.1245 -0.3914 -0.0239
  859POPE   C3B11451   4.307  12.292   7.306  0.1302  0.1003  0.0420
  859POPE   C4B11452   4.685  12.396   7.611  0.0451 -0.1025 -0.2338
  860POPE   NH311453  13.937  13.078   6.028 -0.0332 -0.2571  0.1020
  860POPE   PO411454  14.302  13.267   6.042 -0.2636 -0.3364  0.0566
  860POPE   GL111455  14.169  13.292   6.462  0.0517 -0.2404 -0.1340
  860POPE   GL211456  13.881  13.441   6.495 -0.1326 -0.1889  0.0745
  860POPE   C1A11457  14.419  13.123   6.708 -0.0183 -0.2401 -0.0733
  860POPE   D2A11458  14.368  12.735   6.870  0.1835  0.4613 -0.3335
  860POPE   C3A11459  14.258  12.610   7.344  0.2155 -0.0647 -0.1103
  860POPE   C4A11460  14.317  12.678   7.710 -0.1445  0.1762  0.0011
  860POPE   C1B11461  14.000  13.421   6.916  0.2708  0.1375  0.0669
  860POPE   C2B11462  13.842  13.345   7.327  0.1856  0.0187  0.2560
  860POPE   C3B11463  13.735  13.386   7.627 -0.1075 -0.0928 -0.0842
  860POPE   C4B11464  13.453  13.428   7.999  0.2811 -0.0576  0.1770
  861POPE   NH311465   3.906   8.009   5.534 -0.0349 -0.2289  0.3947
  861POPE   PO411466   4.385   8.018   5.589  0.0347  0.2002 -0.1421
  861POPE   GL111467   4.178   8.021   5.963 -0.0030 -0.2574  0.0208
  861POPE   GL211468   4.249   7.639   6.055 -0.1335 -0.2285 -0.1886
  861POPE   C1A11469   4.429   8.042   6.322 -0.0781 -0.2529 -0.1827
  861POPE   D2A11470   4.447   7.832   6.698  0.1794 -0.3159  0.2041
  861POPE   C3A11471   4.533   7.994   7.072 -0.3118 -0.0192  0.1542
  861POPE   C4A11472   4.670   7.796   7.411  0.3469  0.3256 -0.0216
  861POPE   C1B11473   4.080   7.521   6.531  0.2335  0.1224  0.0509
  861POPE   C2B11474   4.148   7.563   6.995  0.1453 -0.0030 -0.1331
  861POPE   C3B11475   4.114   7.582   7.392 -0.0802  0.0374 -0.0999
  861POPE   C4B11476   4.032   7.682   7.711 -0.2164  0.1410 -0.0862
  862POPE   NH311477  12.538   1.208   6.094 -0.0213  0.0002 -0.0192
  862POPE   PO411478  12.340   1.510   6.214 -0.0584  0.1225 -0.0755
  862POPE   GL111479  12.297   1.766   6.529 -0.0498 -0.0770  0.0058
  862POPE   GL211480  12.600   1.851   6.603 -0.0610 -0.0035  0.0513
  862POPE   C1A11481  12.052   1.676   6.859 -0.0000 -0.0231 -0.2148
  862POPE   D2A11482  11.952   1.402   7.140 -0.0518  0.0723 -0.0068
  862POPE   C3A11483  11.937   1.461   7.550 -0.2675 -0.0464 -0.1312
  862POPE   C4A11484  11.966   1.439   7.938 -0.3501  0.1040  0.1231
  862POPE   C1B11485  12.502   1.952   6.990 -0.1545 -0.0040 -0.1424
  862POPE   C2B11486  12.627   2.003   7.388 -0.0338 -0.7568  0.1015
  862POPE   C3B11487  12.633   2.251   7.727 -0.2166  0.0623 -0.2085
  862POPE   C4B11488  12.544   2.555   7.899 -0.0046  0.1394 -0.0333
  863POPE   NH311489   2.427  11.119   5.717  0.2408  0.2220 -0.0077
  863POPE   PO411490   2.748  10.932   5.690 -0.0596  0.2880  0.2651
  863POPE   GL111491   2.754  11.158   6.093  0.1899  0.1117  0.0524
  863POPE   GL211492   2.881  11.539   6.087  0.0745  0.2789  0.0153
  863POPE   C1A11493   2.679  11.351   6.478  0.1363 -0.2824  0.1240
  863POPE   D2A11494   2.887  11.347   6.786 -0.0762 -0.3989  0.3332
  863POPE   C3A11495   2.698  11.209   7.061 -0.1191 -0.0040  0.0327
  863POPE   C4A11496   2.666  11.093   7.527  0.0580  0.1249 -0.0279
  863POPE   C1B11497   2.989  11.731   6.417 -0.0088  0.2131 -0.0437
  863POPE   C2B11498   2.990  11.804   6.753 -0.0237  0.1298 -0.0158
  863POPE   C3B11499   2.963  11.669   7.238 -0.0379  0.0660  0.3660
  863POPE   C4B11500   2.864  11.560   7.541 -0.0416 -0.0631  0.0200
  864POPE   NH311501  10.124   1.556   5.927  0.0501 -0.1462 -0.1032
  864POPE   PO411502   9.874   1.369   5.657 -0.0532  0.0426  0.0776
  864POPE   GL111503   9.673   1.313   6.121 -0.3710 -0.1326 -0.0483
  864POPE   GL211504   9.899   1.528   6.354 -0.0635  0.0973 -0.0248
  864POPE   C1A11505   9.532   1.229   6.538 -0.1318 -0.0553 -0.2193
  864POPE   D2A11506   9.373   0.973   6.825  0.0838 -0.1084  0.2401
  864POPE   C3A11507   9.338   1.119   7.240 -0.0214 -0.2139  0.0939
  864POPE   C4A11508   9.610   1.265   7.593  0.3511  0.1489  0.1548
  864POPE   C1B11509   9.865   1.486   6.761 -0.1291 -0.2252  0.2216
  864POPE   C2B11510   9.823   1.418   7.174 -0.0566  0.0327 -0.0269
  864POPE   C3B11511  10.067   1.479   7.623 -0.0299  0.1574 -0.3443
  864POPE   C4B11512  10.264   1.548   7.991 -0.1979 -0.1327 -0.0940
  865POPE   NH311513   8.666   7.437   6.086 -0.2857 -0.0942 -0.0552
  865POPE   PO411514   9.147   7.500   6.134  0.3492  0.0175  0.1540
  865POPE   GL111515   9.167   7.523   6.500 -0.0493  0.2180 -0.2151
  865POPE   GL211516   9.344   7.768   6.696 -0.0573 -0.0582 -0.0391
  865POPE   C1A11517   9.045   7.426   6.987 -0.4326 -0.0999  0.1154
  865POPE   D2A11518   9.128   7.147   7.291  0.3568 -0.1046 -0.2569
  865POPE   C3A11519   9.018   7.022   7.643  0.0996  0.0422  0.2983
  865POPE   C4A11520   8.755   6.710   7.649  0.1088  0.0814  0.0690
  865POPE   C1B11521   9.367   7.778   7.174 -0.0703 -0.4132 -0.1095
  865POPE   C2B11522   9.253   7.927   7.600  0.3342  0.1006 -0.4097
  865POPE   C3B11523   9.313   7.670   7.946  0.2010  0.2191 -0.1192
  865POPE   C4B11524   9.146   7.300   8.020 -0.0394  0.0737  0.0414
  866POPE   NH311525   8.761   5.016   6.261 -0.0899  0.3136  0.0461
  866POPE   PO411526   8.384   4.936   6.289  0.0208  0.1001  0.1340
  866POPE   GL111527   8.454   4.799   6.670 -0.1585 -0.0902 -0.0638
  866POPE   GL211528   8.733   4.670   6.601 -0.1744  0.0744 -0.0193
  866POPE   C1A11529   8.694   4.800   7.082 -0.1469 -0.0452  0.0161
  866POPE   D2A11530   8.700   4.695   7.550  0.2070 -0.0951 -0.0207
  866POPE   C3A11531   8.618   4.747   7.970  0.3925  0.3497 -0.1174
  866POPE   C4A11532   8.518   4.548   8.317  0.0661 -0.0093  0.1201
  866POPE   C1B11533   8.985   4.378   6.909  0.1596 -0.0752  0.0501
  866POPE   C2B11534   9.119   4.514   7.316  0.1570 -0.1243  0.2716
  866POPE   C3B11535   9.030   4.393   7.739  0.1957  0.1151 -0.1630
  866POPE   C4B11536   9.068   4.432   8.167  0.1965 -0.3530  0.1870
  867POPE   NH311537  12.329  17.728   5.883  0.3363 -0.2407 -0.0637
  867POPE   PO411538  12.204  18.089   6.116  0.0364 -0.0147 -0.0942
  867POPE   GL111539  12.000  18.375   6.470 -0.2295 -0.1658  0.2979
  867POPE   GL211540  11.712  18.591   6.450 -0.0380 -0.0944  0.1825
  867POPE   C1A11541  11.982  18.588   6.919  0.1668 -0.0532 -0.2685
  867POPE   D2A11542  12.038  18.605   7.348 -0.2088  0.0464 -0.2015
  867POPE   C3A11543  12.094  18.436   7.764  0.1984 -0.1740 -0.1185
  867POPE   C4A11544  12.254  18.409   8.064  0.0902 -0.3471  0.2257
  867POPE   C1B11545  11.639  18.256   6.821 -0.1157  0.0567  0.0578
  867POPE   C2B11546  11.679  18.031   7.163  0.1277  0.0727  0.1664
  867POPE   C3B11547  11.778  17.987   7.563 -0.0018 -0.3026  0.3748
  867POPE   C4B11548  11.530  17.738   7.846  0.3639  0.0660 -0.1342
  868POPE   NH311549  13.487   3.981   5.924  0.0826 -0.1182  0.2555
  868POPE   PO411550  13.067   4.043   5.979 -0.3829 -0.0938  0.0013
  868POPE   GL111551  13.013   3.651   6.220 -0.1183  0.1373  0.0213
  868POPE   GL211552  13.274   3.355   6.294  0.3209 -0.3061 -0.0884
  868POPE   C1A11553  12.825   3.633   6.621  0.0484 -0.1524  0.1413
  868POPE   D2A11554  12.555   3.419   6.997 -0.0987 -0.1619  0.0323
  868POPE   C3A11555  12.549   3.590   7.423  0.0848  0.1876 -0.0349
  868POPE   C4A11556  12.350   3.472   7.674 -0.1238 -0.1631 -0.0323
  868POPE   C1B11557  13.358   3.309   6.780 -0.1216 -0.2191  0.1315
  868POPE   C2B11558  13.074   3.251   7.093 -0.0320  0.1444 -0.1004
  868POPE   C3B11559  12.943   3.314   7.398  0.0747  0.1753 -0.0741
  868POPE   C4B11560  12.822   3.514   7.861  0.2974  0.0285  0.1304
  869POPE   NH311561   1.688   4.594   5.983 -0.3127 -0.1044 -0.1019
  869POPE   PO411562   2.144   4.567   5.866 -0.0304 -0.1580 -0.0307
  869POPE   GL111563   2.168   4.462   6.241 -0.1566 -0.0510  0.1619
  869POPE   GL211564   2.022   4.464   6.371 -0.2621 -0.0305  0.3616
  869POPE   C1A11565   2.537   4.539   6.613 -0.0663 -0.3651 -0.1212
  869POPE   D2A11566   2.704   4.796   6.866 -0.3824 -0.1897 -0.1526
  869POPE   C3A11567   2.755   4.735   7.242 -0.1348 -0.3425 -0.0347
  869POPE   C4A11568   2.755   4.781   7.681 -0.2995  0.1755  0.2028
  869POPE   C1B11569   2.108   4.525   6.783  0.0568 -0.2293 -0.2942
  869POPE   C2B11570   2.289   4.674   7.172 -0.0509 -0.2189 -0.3480
  869POPE   C3B11571   2.395   4.995   7.459  0.1679 -0.2461 -0.0759
  869POPE   C4B11572   2.427   5.303   7.649 -0.1175  0.2214 -0.2106
  870POPE   NH311573   0.392  14.587   6.441 -0.2600  0.3921  0.0037
  870POPE   PO411574   0.573  14.990   6.362  0.0744 -0.0783  0.0231
  870POPE   GL111575   0.951  15.244   6.625 -0.2372 -0.1575 -0.1023
  870POPE   GL211576   0.818  15.446   6.791 -0.2354 -0.0145 -0.0461
  870POPE   C1A11577   1.158  15.143   7.040 -0.1378  0.4315  0.2085
  870POPE   D2A11578   1.428  15.281   7.363 -0.0774 -0.1204 -0.1071
  870POPE   C3A11579   1.308  15.134   7.775  0.3097 -0.2081 -0.0851
  870POPE   C4A11580   1.557  14.998   8.101  0.3394  0.0406  0.2305
  870POPE   C1B11581   0.882  15.541   7.187 -0.1540  0.0433  0.0921
  870POPE   C2B11582   0.902  15.363   7.593  0.2991 -0.2451 -0.0554
  870POPE   C3B11583   1.006  15.519   8.026 -0.1767  0.0550  0.0870
  870POPE   C4B11584   0.924  15.636   8.498 -0.0338  0.1710  0.2086
  871POPE   NH311585   9.668   7.584   6.115  0.0497  0.0603  0.1178
  871POPE   PO411586   9.763   7.985   6.107 -0.1497 -0.3879 -0.0305
  871POPE   GL111587   9.593   8.259   6.476  0.4028 -0.0972  0.0888
  871POPE   GL211588   9.968   8.402   6.467 -0.0975 -0.1912 -0.3324
  871POPE   C1A11589   9.355   8.333   6.853  0.1411  0.1044  0.0650
  871POPE   D2A11590   9.248   8.260   7.246 -0.0102 -0.1241 -0.3468
  871POPE   C3A11591   9.021   8.413   7.501 -0.0731  0.0769  0.4122
  871POPE   C4A11592   9.155   8.648   7.774 -0.3364  0.1118 -0.1961
  871POPE   C1B11593  10.316   8.381   6.757 -0.2737  0.2098  0.0852
  871POPE   C2B11594  10.362   8.616   7.203  0.1650 -0.0260  0.0846
  871POPE   C3B11595  10.342   8.832   7.589  0.0046 -0.3132 -0.0530
  871POPE   C4B11596  10.370   9.096   7.946  0.1681 -0.0154 -0.0666
  872YOPE   NH311597   5.275  16.929   5.484 -0.1751  0.0184 -0.0082
  872YOPE   PO411598   5.363  16.502   5.512  0.0868  0.0810  0.1383
  872YOPE   GL111599   5.264  16.414   5.912 -0.0827 -0.2481 -0.1944
  872YOPE   GL211600   5.058  16.636   6.016 -0.0398  0.1700  0.0139
  872YOPE   C1A11601   5.377  16.130   6.207  0.0759 -0.2364 -0.1291
  872YOPE   D2A11602   5.343  16.106   6.618  0.1297  0.0392 -0.0582
  872YOPE   C3A11603   5.380  15.942   7.001 -0.2621  0.1080 -0.1945
  872YOPE   C4A11604   5.526  15.903   7.379 -0.0823 -0.3703  0.0159
  872YOPE   C1B11605   4.972  16.570   6.425  0.0260  0.0022 -0.2728
  872YOPE   C2B11606   4.714  16.714   6.715 -0.1409 -0.2414  0.0066
  872YOPE   D3B11607   4.737  17.059   6.919  0.0530 -0.1021  0.0969
  872YOPE   C4B11608   4.825  17.459   7.168  0.2223  0.0975  0.2390
  873YOPE   NH311609   6.463  11.989   5.557  0.0941  0.1949 -0.0191
  873YOPE   PO411610   6.058  11.942   5.648  0.0492  0.1567  0.0560
  873YOPE   GL111611   5.882  11.780   5.970  0.2765 -0.0574 -0.4054
  873YOPE   GL211612   5.911  11.418   6.067 -0.1240  0.0775  0.0984
  873YOPE   C1A11613   5.885  11.897   6.498  0.3542  0.0685  0.1514
  873YOPE   D2A11614   5.888  11.660   6.900 -0.2732  0.0724 -0.2416
  873YOPE   C3A11615   5.839  11.966   7.196  0.2492  0.0634  0.1469
  873YOPE   C4A11616   5.802  12.160   7.625  0.2595 -0.2763  0.2255
  873YOPE   C1B11617   5.896  11.306   6.444 -0.1359  0.1270 -0.2938
  873YOPE   C2B11618   5.973  11.157   6.948  0.0662 -0.1328  0.1233
  873YOPE   D3B11619   5.973  10.980   7.266 -0.1122  0.1084 -0.3753
  873YOPE   C4B11620   6.013  10.631   7.587 -0.0930  0.0027 -0.0147
  874YOPE   NH311621  15.263  18.003   6.435  0.2818  0.3674  0.0944
  874YOPE   PO411622  14.804  17.945   6.483 -0.3722  0.2852 -0.1341
  874YOPE   GL111623  14.588  17.939   6.851  0.0482  0.3444  0.2291
  874YOPE   GL211624  14.178  17.905   6.773  0.1056  0.3992 -0.1359
  874YOPE   C1A11625  14.413  17.823   7.192  0.0630 -0.0977  0.0837
  874YOPE   D2A11626  14.363  17.758   7.694  0.0259 -0.0034  0.0986
  874YOPE   C3A11627  14.216  17.694   8.186  0.1886  0.4319  0.0345
  874YOPE   C4A11628  13.839  17.449   8.350  0.0301 -0.1530 -0.1909
  874YOPE   C1B11629  13.904  18.169   7.068 -0.3396 -0.2489  0.0070
  874YOPE   C2B11630  13.680  18.294   7.420 -0.1590 -0.1518  0.0028
  874YOPE   D3B11631  13.493  18.657   7.519 -0.0278 -0.1658 -0.2416
  874YOPE   C4B11632  13.364  18.852   7.883  0.1000 -0.0986  0.3547
  875YOPE   NH311633  15.171   2.053   6.262 -0.1190  0.4181  0.2998
  875YOPE   PO411634  15.155   2.431   6.043 -0.4248 -0.0592 -0.0587
  875YOPE   GL111635  15.319   2.498   6.487 -0.1618  0.2036 -0.0543
  875YOPE   GL211636  15.073   2.742   6.595 -0.0731  0.3107  0.0500
  875YOPE   C1A11637  15.598   2.329   6.785 -0.1000 -0.0456 -0.1296
  875YOPE   D2A11638  15.597   2.358   7.227 -0.2137  0.2012 -0.0741
  875YOPE   C3A11639  15.481   2.723   7.489  0.1030 -0.0458  0.0140
  875YOPE   C4A11640  15.494   3.104   7.767 -0.0438  0.0602 -0.1667
  875YOPE   C1B11641  14.900   2.849   6.969  0.0929 -0.0927  0.2056
  875YOPE   C2B11642  15.077   2.966   7.281  0.2597  0.2541  0.1923
  875YOPE   D3B11643  14.988   3.205   7.674 -0.1354  0.2832  0.1758
  875YOPE   C4B11644  15.172   3.267   8.121  0.2041  0.2194  0.2306
  876YOPE   NH311645  17.733  14.548   6.584 -0.0708  0.0586  0.3334
  876YOPE   PO411646  18.117  14.777   6.508 -0.1591  0.1669 -0.3665
  876YOPE   GL111647  18.507  14.892   6.811 -0.0890  0.1514 -0.0925
  876YOPE   GL211648  18.197  15.095   7.004 -0.2775 -0.1427  0.2250
  876YOPE   C1A11649  18.866  15.024   7.067  0.2408 -0.3374  0.0159
  876YOPE   D2A11650  19.163  14.874   7.386 -0.0883 -0.1916 -0.4427
  876YOPE   C3A11651  19.216  14.441   7.649  0.1903 -0.2243 -0.1937
  876YOPE   C4A11652  19.248  14.211   8.017  0.0481 -0.0725  0.0739
  876YOPE   C1B11653  18.454  14.889   7.318  0.2768  0.3118 -0.0621
  876YOPE   C2B11654  18.651  14.859   7.721 -0.0751  0.0214  0.1100
  876YOPE   D3B11655  18.875  15.152   8.044 -0.1836 -0.2277  0.1869
  876YOPE   C4B11656  19.080  15.017   8.472  0.4449  0.4074 -0.1452
  877YOPE   NH311657  13.766   1.285   6.193 -0.3079 -0.0087 -0.2028
  877YOPE   PO411658  14.156   1.417   6.219 -0.3937  0.2909  0.0921
  877YOPE   GL111659  13.975   1.590   6.592  0.0632  0.0047 -0.0046
  877YOPE   GL211660  14.196   1.715   6.683 -0.1244 -0.2516  0.1324
  877YOPE   C1A11661  13.772   1.470   6.962  0.1379  0.1205  0.1339
  877YOPE   D2A11662  13.390   1.617   7.097  0.1384  0.0578  0.3312
  877YOPE   C3A11663  13.069   1.277   7.360 -0.1364  0.1852  0.0360
  877YOPE   C4A11664  13.052   0.980   7.659 -0.1797 -0.1332 -0.4897
  877YOPE   C1B11665  14.305   1.638   7.073 -0.1388  0.1323  0.0992
  877YOPE   C2B11666  14.306   1.847   7.586  0.2563 -0.2345  0.0067
  877YOPE   D3B11667  14.548   1.893   8.009 -0.0158 -0.0565  0.2892
  877YOPE   C4B11668  14.930   2.056   8.195 -0.1759  0.0154 -0.2488
  878YOPE   NH311669   4.504   2.045   5.498 -0.2885  0.0401 -0.0327
  878YOPE   PO411670   4.569   1.629   5.598  0.1604 -0.0148 -0.1347
  878YOPE   GL111671   4.680   1.908   5.970  0.1719  0.1160  0.0129
  878YOPE   GL211672   4.913   1.976   6.186  0.2383 -0.0819  0.1013
  878YOPE   C1A11673   4.504   2.008   6.387  0.4577  0.1196 -0.2129
  878YOPE   D2A11674   4.335   1.740   6.726  0.1032 -0.0355 -0.2004
  878YOPE   C3A11675   4.363   1.483   7.095  0.0377  0.3341  0.0898
  878YOPE   C4A11676   4.393   1.341   7.434 -0.0172 -0.1216 -0.1484
  878YOPE   C1B11677   4.851   1.847   6.632 -0.2747 -0.0913 -0.2344
  878YOPE   C2B11678   4.813   1.690   7.038  0.1118  0.0115  0.1703
  878YOPE   D3B11679   4.821   1.991   7.421 -0.0228 -0.0387  0.1454
  878YOPE   C4B11680   5.056   2.096   7.804 -0.0751 -0.1894  0.1865
  879YOPE   NH311681  10.420   0.680   6.011 -0.2638  0.1518  0.0207
  879YOPE   PO411682  10.071   0.439   5.873 -0.3987 -0.0115 -0.0409
  879YOPE   GL111683  10.025   0.504   6.296  0.0171  0.2990 -0.0474
  879YOPE   GL211684   9.660   0.609   6.214  0.2020  0.3033 -0.3210
  879YOPE   C1A11685  10.077   0.502   6.789  0.1075  0.0691  0.0780
  879YOPE   D2A11686  10.029   0.567   7.226 -0.1741  0.0401 -0.3353
  879YOPE   C3A11687  10.126   0.235   7.421  0.2037  0.2286  0.0954
  879YOPE   C4A11688  10.328   0.147   7.783 -0.0785  0.1179 -0.0118
  879YOPE   C1B11689   9.596   0.483   6.671  0.0332  0.2993 -0.3023
  879YOPE   C2B11690   9.548   0.611   7.150 -0.1376  0.3556 -0.2497
  879YOPE   D3B11691   9.620   0.713   7.499  0.0741 -0.0609 -0.3696
  879YOPE   C4B11692   9.818   0.653   7.890 -0.1022  0.0733  0.1375
  880YOPE   NH311693   9.795   2.398   6.008  0.1390 -0.1673  0.3376
  880YOPE   PO411694   9.468   2.686   5.896 -0.2588  0.0241  0.2314
  880YOPE   GL111695   9.551   2.883   6.319  0.0756  0.0615  0.1136
  880YOPE   GL211696   9.794   2.735   6.406 -0.3483 -0.2940 -0.1144
  880YOPE   C1A11697   9.325   2.816   6.740  0.1855  0.1400  0.1309
  880YOPE   D2A11698   9.066   2.802   7.129  0.0420  0.1369 -0.1094
  880YOPE   C3A11699   9.106   3.079   7.485 -0.1010 -0.3440 -0.1640
  880YOPE   C4A11700   9.144   3.315   7.851  0.1708  0.2778  0.1226
  880YOPE   C1B11701   9.814   2.962   6.806 -0.0347  0.1573 -0.0379
  880YOPE   C2B11702   9.703   2.780   7.248  0.0010  0.1197 -0.0141
  880YOPE   D3B11703   9.925   2.810   7.625 -0.1123 -0.0881 -0.0081
  880YOPE   C4B11704  10.000   2.487   7.964  0.1652 -0.0143  0.1948
  881YOPE   NH311705   8.805  14.562   5.455  0.1925  0.2403 -0.2556
  881YOPE   PO411706   8.966  14.903   5.573  0.2757 -0.1912 -0.2094
  881YOPE   GL111707   8.724  14.801   5.992 -0.3676 -0.2425 -0.1414
  881YOPE   GL211708   8.501  14.673   5.883  0.0886 -0.1549 -0.0115
  881YOPE   C1A11709   8.707  14.771   6.492  0.1034 -0.1114  0.2648
  881YOPE   D2A11710   9.026  14.707   6.743 -0.0607 -0.1971  0.0571
  881YOPE   C3A11711   8.985  14.848   7.143  0.0773  0.0469 -0.2143
  881YOPE   C4A11712   8.999  14.865   7.524 -0.0636 -0.0808 -0.1369
  881YOPE   C1B11713   8.419  14.312   6.188 -0.0728  0.3414 -0.2693
  881YOPE   C2B11714   8.320  14.324   6.551 -0.0028 -0.2678 -0.0764
  881YOPE   D3B11715   8.116  14.064   7.000 -0.1328  0.2975  0.1799
  881YOPE   C4B11716   8.143  14.135   7.509 -0.1081  0.0498  0.0070
  882YOPE   NH311717   2.799  12.235   5.551 -0.3217 -0.0855 -0.0732
  882YOPE   PO411718   2.364  12.278   5.719  0.0888  0.1571 -0.0052
  882YOPE   GL111719   2.498  12.328   6.228  0.1329 -0.0470 -0.0396
  882YOPE   GL211720   2.787  12.603   6.193  0.0039 -0.0225  0.2549
  882YOPE   C1A11721   2.858  12.237   6.524  0.1755 -0.0104  0.2264
  882YOPE   D2A11722   2.813  12.214   6.966 -0.0229  0.1169 -0.0302
  882YOPE   C3A11723   2.706  12.508   7.170 -0.2423  0.2019  0.0201
  882YOPE   C4A11724   2.593  12.638   7.518 -0.0724 -0.0551 -0.0771
  882YOPE   C1B11725   2.960  12.771   6.573 -0.0577 -0.0472 -0.1629
  882YOPE   C2B11726   2.943  12.927   7.037 -0.1084 -0.1561 -0.1953
  882YOPE   D3B11727   3.033  13.057   7.420 -0.0547  0.0396  0.2819
  882YOPE   C4B11728   3.092  13.027   7.853  0.1283  0.1384 -0.1677
  883YOPE   NH311729  13.826   1.814   6.146  0.0689  0.0130  0.0099
  883YOPE   PO411730  13.411   1.629   6.224  0.4156  0.2046 -0.1685
  883YOPE   GL111731  13.517   1.898   6.580 -0.1569 -0.0362 -0.0279
  883YOPE   GL211732  13.702   2.163   6.485  0.0148 -0.0487 -0.2261
  883YOPE   C1A11733  13.822   1.971   6.926  0.1314  0.3937  0.0261
  883YOPE   D2A11734  13.821   1.807   7.325  0.0542  0.0973 -0.2768
  883YOPE   C3A11735  13.922   2.147   7.693 -0.1520  0.0988  0.2601
  883YOPE   C4A11736  14.172   2.188   8.061  0.0391 -0.0052  0.0895
  883YOPE   C1B11737  13.767   2.555   6.688  0.1318  0.1838  0.1307
  883YOPE   C2B11738  14.006   2.653   7.056 -0.3244 -0.3107  0.1991
  883YOPE   D3B11739  13.999   2.900   7.420  0.2169 -0.2504 -0.1017
  883YOPE   C4B11740  13.856   3.115   7.892 -0.1454  0.0236  0.1829
  884YOPE   NH311741  15.500   2.871   5.981 -0.1290 -0.0043  0.3967
  884YOPE   PO411742  15.941   3.032   6.032 -0.2276  0.1004  0.0996
  884YOPE   GL111743  16.060   3.221   6.380 -0.1421 -0.2290  0.5002
  884YOPE   GL211744  16.363   3.431   6.392 -0.1458  0.2996 -0.1731
  884YOPE   C1A11745  15.962   3.057   6.757  0.6022  0.1122  0.1332
  884YOPE   D2A11746  15.784   2.751   7.003  0.0705  0.1320  0.0059
  884YOPE   C3A11747  15.366   2.688   6.998  0.0298 -0.0859  0.0246
  884YOPE   C4A11748  15.030   2.328   6.817  0.3115  0.1836 -0.2402
  884YOPE   C1B11749  16.272   3.398   6.865  0.2876  0.0766 -0.0630
  884YOPE   C2B11750  16.287   3.441   7.224  0.0191  0.0032 -0.3925
  884YOPE   D3B11751  16.296   3.610   7.683 -0.0648 -0.1047  0.1554
  884YOPE   C4B11752  16.151   3.722   8.198 -0.1463 -0.1384 -0.1990
  885YOPE   NH311753  12.516   2.000   6.129  0.0876 -0.0983 -0.0646
  885YOPE   PO411754  12.248   2.343   6.179  0.0008 -0.1629 -0.0216
  885YOPE   GL111755  12.528   2.406   6.517 -0.1453 -0.1398  0.2369
  885YOPE   GL211756  12.707   2.682   6.527  0.0785 -0.0661 -0.1039
  885YOPE   C1A11757  12.827   2.302   6.842 -0.0838  0.0565 -0.0527
  885YOPE   D2A11758  12.821   2.451   7.275  0.0103  0.2366  0.1205
  885YOPE   C3A11759  12.699   2.799   7.434  0.0558  0.0066 -0.0432
  885YOPE   C4A11760  12.637   3.024   7.677  0.0366 -0.0069 -0.0925
  885YOPE   C1B11761  12.683   2.947   6.883 -0.3875  0.1096 -0.0127
  885YOPE   C2B11762  12.354   2.976   7.198  0.0260  0.3770  0.3773
  885YOPE   D3B11763  12.161   3.041   7.534  0.1805 -0.1402  0.0103
  885YOPE   C4B11764  12.203   2.936   7.965 -0.2776  0.0360  0.3952
  886YOPE   NH311765  18.092  16.438   6.562  0.2518  0.0773 -0.1973
  886YOPE   PO411766  18.015  16.836   6.511  0.0444  0.1118  0.0303
  886YOPE   GL111767  18.367  16.820   6.767 -0.0590 -0.0197 -0.3009
  886YOPE   GL211768  18.665  16.958   6.622  0.3011 -0.2918  0.3007
  886YOPE   C1A11769  18.598  16.794   7.057 -0.3774 -0.1078 -0.0732
  886YOPE   D2A11770  18.559  16.921   7.466  0.1566  0.3298  0.3951
  886YOPE   C3A11771  18.830  16.979   7.821 -0.1735  0.2222  0.2397
  886YOPE   C4A11772  18.750  16.876   8.206 -0.2563  0.0233 -0.1222
  886YOPE   C1B11773  18.639  17.314   6.879 -0.1999  0.0974 -0.2141
  886YOPE   C2B11774  18.660  17.425   7.431  0.0027  0.0443  0.2631
  886YOPE   D3B11775  18.666  17.414   7.911  0.0722  0.0002  0.1487
  886YOPE   C4B11776  18.863  17.530   8.272 -0.1501 -0.0352  0.2939
  887YOPE   NH311777  11.036  14.483   5.782 -0.0308  0.1794  0.0910
  887YOPE   PO411778  11.205  14.872   5.805  0.2225 -0.3009  0.0716
  887YOPE   GL111779  11.033  14.808   6.200 -0.0714  0.2079 -0.0213
  887YOPE   GL211780  11.031  14.441   6.293 -0.1099 -0.3706  0.1430
  887YOPE   C1A11781  10.790  14.887   6.613 -0.0120 -0.0331  0.0058
  887YOPE   D2A11782  10.680  14.798   6.994  0.0914 -0.0485  0.0137
  887YOPE   C3A11783  10.798  14.404   7.166  0.1298  0.1272  0.1087
  887YOPE   C4A11784  10.893  14.354   7.642  0.2687  0.3245 -0.3364
  887YOPE   C1B11785  10.679  14.440   6.468 -0.0192  0.0490 -0.3783
  887YOPE   C2B11786  10.330  14.558   6.656 -0.0945 -0.4276  0.1842
  887YOPE   D3B11787  10.279  14.517   7.063  0.2498  0.2713  0.2730
  887YOPE   C4B11788  10.468  14.623   7.482  0.0472 -0.1652  0.0197
  888YOPE   NH311789  13.538  17.162   6.167  0.0150  0.3069 -0.3947
  888YOPE   PO411790  13.116  17.062   6.198  0.2668 -0.0440  0.0884
  888YOPE   GL111791  12.865  17.042   6.538  0.1702 -0.1291 -0.2041
  888YOPE   GL211792  12.759  16.714   6.568 -0.1801  0.0511 -0.0306
  888YOPE   C1A11793  12.913  17.203   6.997 -0.1814  0.1524  0.2873
  888YOPE   D2A11794  12.995  17.632   7.206 -0.3211  0.1510  0.0091
  888YOPE   C3A11795  12.659  17.888   7.390  0.1582  0.0543  0.3962
  888YOPE   C4A11796  12.285  17.912   7.754 -0.0572  0.0021  0.0275
  888YOPE   C1B11797  12.307  16.717   6.639  0.0091  0.0513  0.0018
  888YOPE   C2B11798  12.042  16.727   6.855 -0.2113  0.0387 -0.0103
  888YOPE   D3B11799  11.803  16.897   7.295 -0.1504  0.0835  0.1939
  888YOPE   C4B11800  11.854  16.945   7.785 -0.0201  0.0677  0.2452
  889YOPE   NH311801   8.442   4.461   6.244 -0.1840 -0.1274 -0.0388
  889YOPE   PO411802   8.799   4.545   6.086  0.3183 -0.0317  0.0380
  889YOPE   GL111803   8.959   4.279   6.379 -0.4630  0.2442  0.2388
  889YOPE   GL211804   9.203   4.192   6.183 -0.0971 -0.2875  0.2163
  889YOPE   C1A11805   8.866   3.955   6.663 -0.2832 -0.1922 -0.0791
  889YOPE   D2A11806   8.801   3.929   7.069  0.1397  0.1788 -0.0326
  889YOPE   C3A11807   8.816   3.703   7.393 -0.1195  0.2475  0.1170
  889YOPE   C4A11808   8.698   3.430   7.723 -0.1738 -0.2720 -0.0104
  889YOPE   C1B11809   9.345   3.935   6.518  0.1800 -0.0480  0.0500
  889YOPE   C2B11810   9.337   3.713   6.857  0.0409 -0.2216  0.2357
  889YOPE   D3B11811   9.032   3.445   6.987  0.0167 -0.1568 -0.2649
  889YOPE   C4B11812   8.720   3.268   7.265  0.3024 -0.1643  0.2143
  890YOPE   NH311813   1.847   8.080   6.042 -0.3139 -0.2618 -0.0315
  890YOPE   PO411814   2.317   8.151   6.061  0.0694  0.0027  0.0729
  890YOPE   GL111815   2.266   7.883   6.427  0.0264 -0.0150  0.1818
  890YOPE   GL211816   2.633   8.063   6.489 -0.1935 -0.0776 -0.2068
  890YOPE   C1A11817   2.352   7.668   6.847 -0.1111 -0.0369  0.1390
  890YOPE   D2A11818   2.356   7.853   7.239 -0.2532 -0.1823 -0.0707
  890YOPE   C3A11819   2.720   8.062   7.524 -0.0444 -0.0474  0.3036
  890YOPE   C4A11820   2.741   8.140   7.938 -0.0457  0.1405 -0.3916
  890YOPE   C1B11821   2.788   8.119   6.906  0.2105 -0.0111  0.2826
  890YOPE   C2B11822   2.931   8.337   7.141 -0.0412  0.1711 -0.0803
  890YOPE   D3B11823   3.195   8.531   7.453  0.2546 -0.2090  0.0137
  890YOPE   C4B11824   3.254   8.243   7.713  0.2472 -0.0298  0.2884
  891YOPE   NH311825  10.077  18.026   5.836 -0.1358  0.0127 -0.0245
  891YOPE   PO411826   9.866  17.827   5.618  0.0659  0.1513 -0.1084
  891YOPE   GL111827   9.813  17.720   6.137  0.1482 -0.0926 -0.0316
  891YOPE   GL211828   9.611  17.747   6.404  0.1597  0.1890 -0.0454
  891YOPE   C1A11829  10.151  17.762   6.508 -0.1774  0.1503 -0.0655
  891YOPE   D2A11830  10.357  17.560   6.822 -0.3664 -0.1224 -0.2488
  891YOPE   C3A11831  10.258  17.362   7.157  0.1477  0.0227  0.3903
  891YOPE   C4A11832  10.204  17.485   7.577 -0.0586  0.0330 -0.0747
  891YOPE   C1B11833   9.816  17.515   6.838  0.1447 -0.2861 -0.2072
  891YOPE   C2B11834   9.787  17.465   7.306 -0.1010  0.1649  0.0894
  891YOPE   D3B11835   9.424  17.368   7.574  0.3543 -0.2272 -0.0629
  891YOPE   C4B11836   9.079  17.304   8.023  0.1191 -0.0912  0.3220
  892YOPE   NH311837   8.562  11.389   5.617  0.0011  0.2335 -0.3192
  892YOPE   PO411838   8.534  10.910   5.689 -0.0990 -0.2211  0.3421
  892YOPE   GL111839   8.544  11.084   6.076 -0.0387 -0.1729 -0.0996
  892YOPE   GL211840   8.882  11.283   5.983  0.1353 -0.0055  0.1957
  892YOPE   C1A11841   8.461  11.253   6.448  0.2048  0.0479  0.2607
  892YOPE   D2A11842   8.587  11.298   6.846  0.1975 -0.2791  0.0754
  892YOPE   C3A11843   8.377  11.307   7.249  0.1049  0.0091  0.1165
  892YOPE   C4A11844   8.083  11.607   7.416 -0.0033 -0.0274  0.1585
  892YOPE   C1B11845   8.926  11.146   6.442 -0.1622 -0.0088  0.1393
  892YOPE   C2B11846   9.209  11.463   6.726  0.0231  0.3629  0.0889
  892YOPE   D3B11847   9.540  11.274   7.036  0.2154  0.3031  0.2963
  892YOPE   C4B11848   9.790  11.044   7.433 -0.0140 -0.0035  0.4305
  893YOPE   NH311849   9.593   4.893   6.277  0.1427 -0.1527  0.1254
  893YOPE   PO411850   9.238   4.691   6.255 -0.0200 -0.3366  0.0730
  893YOPE   GL111851   9.450   4.452   6.563 -0.0294  0.0737 -0.0811
  893YOPE   GL211852   9.653   4.672   6.729 -0.0714 -0.0444 -0.1278
  893YOPE   C1A11853   9.446   4.273   6.989  0.1624 -0.0537 -0.2327
  893YOPE   D2A11854   9.239   4.034   7.296  0.2749 -0.2557  0.0276
  893YOPE   C3A11855   9.424   3.575   7.393  0.3401  0.0062  0.5136
  893YOPE   C4A11856   9.426   3.236   7.174  0.0763 -0.0932  0.2321
  893YOPE   C1B11857   9.641   4.663   7.258 -0.0836 -0.0929  0.1539
  893YOPE   C2B11858   9.516   4.415   7.577 -0.1218  0.1211 -0.0491
  893YOPE   D3B11859   9.339   4.050   7.822 -0.1648 -0.3300  0.1961
  893YOPE   C4B11860   8.975   3.891   7.807  0.0040  0.0118  0.0797
  894YOPE   NH311861  14.870  16.072   6.284  0.0317  0.3138  0.1081
  894YOPE   PO411862  14.979  16.471   6.144  0.3855 -0.0164 -0.0089
  894YOPE   GL111863  14.912  16.508   6.605 -0.0624  0.0151  0.2242
  894YOPE   GL211864  14.679  16.637   6.740 -0.1559  0.0074  0.1460
  894YOPE   C1A11865  15.110  16.419   7.032 -0.3975  0.0178 -0.0433
  894YOPE   D2A11866  15.472  16.328   7.413 -0.0418 -0.1443 -0.2574
  894YOPE   C3A11867  15.432  16.243   7.826 -0.0281  0.0222  0.1271
  894YOPE   C4A11868  15.418  15.943   8.055  0.0391 -0.2742 -0.0760
  894YOPE   C1B11869  14.619  16.326   7.014 -0.0140 -0.1554  0.0549
  894YOPE   C2B11870  14.543  16.337   7.406 -0.0119 -0.2450  0.0716
  894YOPE   D3B11871  14.506  16.216   7.843  0.1016 -0.2389  0.1001
  894YOPE   C4B11872  14.471  16.001   8.160  0.0280 -0.1983  0.1643
  895YOPE   NH311873   4.234   4.184   5.940 -0.1193  0.1002  0.1446
  895YOPE   PO411874   3.851   3.935   5.646 -0.2954 -0.2946 -0.1337
  895YOPE   GL111875   3.707   4.171   5.962 -0.1093 -0.1094  0.0729
  895YOPE   GL211876   3.851   4.008   6.223 -0.2743  0.0316 -0.1430
  895YOPE   C1A11877   3.420   4.418   6.242 -0.0958  0.1734 -0.0541
  895YOPE   D2A11878   3.337   4.559   6.591 -0.0080 -0.0066 -0.0528
  895YOPE   C3A11879   3.061   4.429   6.838  0.0736 -0.2851  0.0231
  895YOPE   C4A11880   2.605   4.287   7.009 -0.1830  0.1234 -0.1824
  895YOPE   C1B11881   3.858   3.938   6.650  0.1543 -0.0548 -0.0045
  895YOPE   C2B11882   3.897   3.910   7.151 -0.1206  0.0106  0.3022
  895YOPE   D3B11883   3.694   3.783   7.579  0.1595 -0.2619 -0.0541
  895YOPE   C4B11884   3.494   3.457   7.786 -0.0281 -0.1882  0.1002
  896YOPE   NH311885   4.782  17.280   5.315  0.4652  0.2919 -0.1152
  896YOPE   PO411886   4.465  17.557   5.291  0.0299  0.0175  0.0594
  896YOPE   GL111887   4.342  17.546   5.699 -0.2068 -0.0823 -0.0955
  896YOPE   GL211888   4.275  17.876   5.849  0.1388  0.1528 -0.1979
  896YOPE   C1A11889   4.488  17.475   6.052 -0.0674 -0.1083 -0.0779
  896YOPE   D2A11890   4.358  17.506   6.420 -0.1199 -0.0175 -0.0058
  896YOPE   C3A11891   4.450  17.543   6.845 -0.1847 -0.1036  0.0937
  896YOPE   C4A11892   4.287  17.327   7.248  0.1596 -0.1214 -0.1020
  896YOPE   C1B11893   4.075  17.784   6.118  0.0534  0.0174  0.4688
  896YOPE   C2B11894   3.974  17.934   6.675  0.0223  0.4113  0.1361
  896YOPE   D3B11895   4.159  17.871   7.048  0.2707  0.0202 -0.0587
  896YOPE   C4B11896   4.388  17.756   7.392 -0.0118 -0.0654  0.1353
  897YOPE   NH311897   6.207   4.660   6.067 -0.2144  0.0594 -0.0262
  897YOPE   PO411898   5.855   4.940   6.121  0.1922  0.0950 -0.1297
  897YOPE   GL111899   5.787   5.301   6.384 -0.1500 -0.0875 -0.0303
  897YOPE   GL211900   5.984   5.181   6.568 -0.1509 -0.1634 -0.2881
  897YOPE   C1A11901   5.707   5.614   6.796 -0.1026  0.0565 -0.5364
  897YOPE   D2A11902   5.508   5.747   7.129 -0.0041 -0.0290 -0.2311
  897YOPE   C3A11903   5.122   5.695   7.279  0.3179 -0.0491 -0.1680
  897YOPE   C4A11904   4.722   5.782   7.447 -0.1858 -0.2074 -0.1938
  897YOPE   C1B11905   5.930   5.080   6.899  0.1630 -0.1678  0.0450
  897YOPE   C2B11906   5.987   4.990   7.313 -0.0059 -0.0997 -0.0028
  897YOPE   D3B11907   6.001   4.639   7.581 -0.1405  0.1519  0.1516
  897YOPE   C4B11908   5.819   4.254   7.786  0.2163  0.0787  0.0937
  898YOPE   NH311909   6.137  16.013   5.434 -0.2509 -0.0995  0.1041
  898YOPE   PO411910   6.072  16.394   5.607  0.1258  0.4128 -0.0912
  898YOPE   GL111911   5.799  16.506   5.892  0.0951 -0.0371  0.0866
  898YOPE   GL211912   5.605  16.850   5.952 -0.2481 -0.3248 -0.0599
  898YOPE   C1A11913   6.033  16.564   6.230  0.0397  0.0063 -0.0690
  898YOPE   D2A11914   6.045  16.450   6.671  0.0081  0.0544  0.0286
  898YOPE   C3A11915   5.805  16.174   6.859  0.0148 -0.0969 -0.2774
  898YOPE   C4A11916   5.851  15.730   7.071  0.1909 -0.0307 -0.0577
  898YOPE   C1B11917   5.562  16.609   6.408  0.1572  0.2947 -0.4405
  898YOPE   C2B11918   5.358  16.526   6.831 -0.1723 -0.1185  0.4690
  898YOPE   D3B11919   5.329  16.360   7.208  0.1941 -0.0485 -0.0035
  898YOPE   C4B11920   5.417  16.323   7.677 -0.2018 -0.0757 -0.1930
  899YOPE   NH311921  15.834  18.119   6.438 -0.0686 -0.2723  0.0898
  899YOPE   PO411922  15.835  18.479   6.379  0.1767  0.1184  0.3000
  899YOPE   GL111923  15.506  18.457   6.744 -0.2181 -0.2017  0.0264
  899YOPE   GL211924  15.260  18.493   6.606 -0.2329 -0.0084 -0.2285
  899YOPE   C1A11925  15.465  18.489   7.092 -0.3372  0.1241 -0.0709
  899YOPE   D2A11926  15.461  18.442   7.415  0.1124  0.1102 -0.0451
  899YOPE   C3A11927  15.239  18.586   7.765 -0.0277  0.2619  0.0039
  899YOPE   C4A11928  14.999  18.828   8.133 -0.2469  0.4256  0.3445
  899YOPE   C1B11929  15.050  18.677   6.966  0.0645 -0.0126  0.2515
  899YOPE   C2B11930  14.926  18.680   7.286  0.0731  0.2327  0.0268
  899YOPE   D3B11931  14.835  18.815   7.521 -0.0003  0.3570  0.3933
  899YOPE   C4B11932  14.611  18.680   7.829 -0.3992  0.2684 -0.2792
  900YOPE   NH311933   6.317  16.811   5.386 -0.0567 -0.2236 -0.1323
  900YOPE   PO411934   6.748  16.924   5.391 -0.1310 -0.2975  0.0359
  900YOPE   GL111935   6.710  16.687   5.714  0.1485  0.0696  0.3890
  900YOPE   GL211936   6.532  16.309   5.726  0.0668 -0.0643  0.1089
  900YOPE   C1A11937   6.439  16.763   6.105  0.1242  0.2909 -0.0454
  900YOPE   D2A11938   6.478  16.546   6.456  0.2220  0.2470 -0.0795
  900YOPE   C3A11939   6.790  16.514   6.713  0.1218 -0.3305 -0.0162
  900YOPE   C4A11940   7.113  16.527   6.989 -0.0726  0.1297  0.0877
  900YOPE   C1B11941   6.631  16.234   6.116 -0.2301 -0.1343  0.1829
  900YOPE   C2B11942   6.894  16.076   6.428  0.0737  0.0221 -0.1947
  900YOPE   D3B11943   7.008  16.005   6.833 -0.0550  0.3071  0.0642
  900YOPE   C4B11944   7.244  15.930   7.198 -0.0802 -0.2115  0.2824
  901YOPE   NH311945   7.835   3.050   6.180  0.1429 -0.2510 -0.0755
  901YOPE   PO411946   8.301   3.199   6.113  0.2209  0.1987 -0.0194
  901YOPE   GL111947   8.217   3.254   6.513 -0.1674  0.1261 -0.0360
  901YOPE   GL211948   8.207   3.027   6.598  0.2224 -0.0901  0.0887
  901YOPE   C1A11949   7.969   3.494   6.790 -0.1422  0.1509  0.0722
  901YOPE   D2A11950   7.901   3.591   7.167 -0.1322 -0.1414 -0.0173
  901YOPE   C3A11951   7.776   3.552   7.507  0.1387  0.0404 -0.1841
  901YOPE   C4A11952   7.823   3.338   7.842 -0.0255 -0.0847 -0.2752
  901YOPE   C1B11953   8.239   3.187   7.096 -0.0036 -0.1143  0.2300
  901YOPE   C2B11954   8.199   3.318   7.509  0.0623  0.0464 -0.0255
  901YOPE   D3B11955   8.242   3.647   7.785 -0.2549 -0.0615  0.1186
  901YOPE   C4B11956   8.450   3.669   8.189  0.0049 -0.1410  0.0640
  902YOPE   NH311957  10.486   9.963   5.685 -0.0418  0.1481 -0.0385
  902YOPE   PO411958  10.615  10.374   5.596 -0.2303 -0.0669  0.1554
  902YOPE   GL111959  10.524  10.642   5.965  0.0863 -0.0570 -0.2148
  902YOPE   GL211960  10.863  10.616   6.108  0.0190 -0.0187  0.2093
  902YOPE   C1A11961  10.452  10.792   6.351  0.5826 -0.3706  0.0727
  902YOPE   D2A11962  10.207  10.890   6.653 -0.1070 -0.0052  0.0216
  902YOPE   C3A11963  10.256  10.916   7.159  0.2343  0.2168  0.2471
  902YOPE   C4A11964  10.241  11.130   7.655 -0.2783 -0.0458  0.1509
  902YOPE   C1B11965  10.817  10.492   6.425  0.2171 -0.0351  0.3730
  902YOPE   C2B11966  10.737  10.119   6.735  0.0291  0.0628  0.2720
  902YOPE   D3B11967  10.893   9.992   7.126 -0.0826 -0.1634  0.2161
  902YOPE   C4B11968  10.831   9.980   7.644 -0.2162  0.0006  0.0652
  903YOPE   NH311969   5.670   8.262   5.797  0.0627 -0.1211 -0.1396
  903YOPE   PO411970   5.348   7.895   5.676 -0.0964  0.0123  0.1410
  903YOPE   GL111971   5.236   8.017   6.004  0.2109 -0.1607  0.1217
  903YOPE   GL211972   5.416   8.204   6.252 -0.0678 -0.2422  0.2030
  903YOPE   C1A11973   4.955   8.188   6.460 -0.1770  0.0338  0.2217
  903YOPE   D2A11974   4.570   8.369   6.710 -0.0935 -0.1208  0.3501
  903YOPE   C3A11975   4.519   8.484   7.122 -0.2214  0.1501 -0.0413
  903YOPE   C4A11976   4.446   8.612   7.465 -0.0837 -0.0517 -0.0655
  903YOPE   C1B11977   5.313   8.158   6.757 -0.0354 -0.0411 -0.0105
  903YOPE   C2B11978   5.446   7.989   7.171  0.0098  0.0753 -0.1555
  903YOPE   D3B11979   5.215   7.793   7.571 -0.0143  0.0156  0.1309
  903YOPE   C4B11980   5.117   7.974   7.965  0.1090  0.2287 -0.0379
  904YOPE   NH311981  16.219  14.670   6.280  0.1145  0.1444  0.2990
  904YOPE   PO411982  16.412  14.413   6.546 -0.2048  0.0863 -0.1319
  904YOPE   GL111983  16.350  14.434   6.926 -0.0866  0.0826  0.1713
  904YOPE   GL211984  16.220  14.661   7.065  0.5166 -0.1161  0.1796
  904YOPE   C1A11985  16.199  14.207   7.330 -0.3280  0.2337 -0.2925
  904YOPE   D2A11986  16.234  14.090   7.652  0.1490  0.2127 -0.1622
  904YOPE   C3A11987  16.550  13.926   7.914 -0.0109  0.1606  0.0584
  904YOPE   C4A11988  16.902  14.000   8.180 -0.3546  0.2353  0.1695
  904YOPE   C1B11989  16.238  14.734   7.485 -0.1001 -0.0518 -0.0688
  904YOPE   C2B11990  16.323  14.512   7.842  0.0103 -0.2219 -0.2848
  904YOPE   D3B11991  16.324  14.305   8.309  0.0208  0.1324  0.0235
  904YOPE   C4B11992  16.299  14.303   8.705 -0.0015  0.0567  0.0732
  905YOPE   NH311993   8.626   4.032   6.021 -0.0514  0.1519  0.0598
  905YOPE   PO411994   8.155   4.038   6.137 -0.2382  0.1280  0.2206
  905YOPE   GL111995   8.208   3.898   6.567  0.3753  0.2486  0.1015
  905YOPE   GL211996   8.446   4.243   6.698  0.1536  0.0170  0.1487
  905YOPE   C1A11997   8.207   3.983   7.040 -0.0819 -0.0039 -0.0030
  905YOPE   D2A11998   8.376   3.736   7.297  0.2226 -0.0212 -0.2275
  905YOPE   C3A11999   8.497   3.545   6.858  0.1401  0.0294 -0.0581
  905YOPE   C4A12000   8.704   3.157   6.628  0.1244  0.3825 -0.1027
  905YOPE   C1B12001   8.520   4.360   7.156 -0.1509  0.1604  0.0528
  905YOPE   C2B12002   8.624   4.116   7.508  0.3540  0.0553 -0.0433
  905YOPE   D3B12003   8.527   4.119   7.973 -0.1114 -0.1048  0.1074
  905YOPE   C4B12004   8.745   4.060   8.379 -0.1248  0.0232 -0.1131
  906YOPE   NH312005   3.205  12.965   5.897  0.2293 -0.0035 -0.1717
  906YOPE   PO412006   3.523  13.154   5.717 -0.1745  0.1963  0.3220
  906YOPE   GL112007   3.368  13.326   6.168  0.2171 -0.2351 -0.0827
  906YOPE   GL212008   3.032  13.297   6.238 -0.1955 -0.1142 -0.0980
  906YOPE   C1A12009   3.486  13.523   6.585  0.0545  0.0644  0.2751
  906YOPE   D2A12010   3.599  13.689   6.961 -0.1349  0.0729 -0.0085
  906YOPE   C3A12011   3.849  13.447   7.333  0.0752 -0.2965 -0.2330
  906YOPE   C4A12012   4.194  13.345   7.634 -0.1299 -0.0514 -0.2754
  906YOPE   C1B12013   3.008  13.338   6.617  0.0375  0.0380  0.1080
  906YOPE   C2B12014   3.024  13.428   6.957 -0.0508 -0.0643  0.1530
  906YOPE   D3B12015   2.935  13.696   7.333 -0.2914  0.2115  0.1959
  906YOPE   C4B12016   2.869  13.787   7.732 -0.2099 -0.1709 -0.0968
  907YOPE   NH312017  17.940   2.272   5.604  0.3330  0.2550  0.1317
  907YOPE   PO412018  18.053   2.686   5.644 -0.1907 -0.3305  0.1147
  907YOPE   GL112019  18.147   2.492   6.011 -0.0953  0.0250  0.0691
  907YOPE   GL212020  17.862   2.557   6.172  0.0944  0.0728 -0.0346
  907YOPE   C1A12021  18.166   2.234   6.446  0.3084 -0.0254  0.0488
  907YOPE   D2A12022  18.418   2.505   6.612 -0.1662 -0.3123  0.3272
  907YOPE   C3A12023  18.407   2.606   7.066  0.0575  0.2367 -0.2262
  907YOPE   C4A12024  18.065   2.685   7.485  0.1176  0.0871 -0.3001
  907YOPE   C1B12025  17.916   2.729   6.579  0.2894 -0.1416 -0.0021
  907YOPE   C2B12026  18.083   2.946   6.890  0.1899  0.0363 -0.1004
  907YOPE   D3B12027  18.114   3.102   7.292  0.2304  0.0326 -0.0322
  907YOPE   C4B12028  18.146   3.147   7.826  0.2445  0.4506  0.0925
  908YOPE   NH312029   0.744  15.944   6.574  0.0142 -0.0682 -0.1318
  908YOPE   PO412030   0.488  15.547   6.469 -0.0815  0.1948  0.0008
  908YOPE   GL112031   0.343  15.467   6.874  0.0912 -0.1619  0.0342
  908YOPE   GL212032   0.326  15.782   6.955  0.0304  0.2433  0.1439
  908YOPE   C1A12033   0.393  15.338   7.320 -0.0461 -0.0129  0.1024
  908YOPE   D2A12034   0.450  15.547   7.721 -0.3032 -0.1320 -0.2311
  908YOPE   C3A12035   0.116  15.550   8.054  0.0230 -0.0575 -0.4496
  908YOPE   C4A12036  -0.029  15.626   8.426 -0.1526  0.0402 -0.4261
  908YOPE   C1B12037   0.286  15.848   7.310  0.0401 -0.1737  0.1838
  908YOPE   C2B12038   0.152  15.965   7.693  0.2920  0.0160 -0.3856
  908YOPE   D3B12039   0.229  16.224   8.020 -0.0737  0.1896  0.0777
  908YOPE   C4B12040   0.547  16.348   8.205 -0.0032  0.1884 -0.0533
  909YOPE   NH312041   8.201   2.455   6.149 -0.0252 -0.1299  0.0466
  909YOPE   PO412042   8.021   2.134   6.166  0.1403  0.4954  0.0181
  909YOPE   GL112043   8.010   2.263   6.628 -0.0731 -0.0955 -0.0449
  909YOPE   GL212044   8.026   2.555   6.650 -0.2135 -0.0775  0.2162
  909YOPE   C1A12045   8.012   2.115   6.981 -0.0645 -0.2265 -0.0625
  909YOPE   D2A12046   8.097   2.178   7.416  0.3807 -0.0637  0.0541
  909YOPE   C3A12047   7.775   2.266   7.683  0.2533  0.0405 -0.0863
  909YOPE   C4A12048   7.567   2.418   7.961 -0.0401  0.0390  0.0798
  909YOPE   C1B12049   8.148   2.590   7.046  0.0521  0.0136 -0.2737
  909YOPE   C2B12050   8.151   2.675   7.510 -0.1358  0.0445  0.2371
  909YOPE   D3B12051   8.036   2.844   7.739 -0.2492 -0.0986  0.1057
  909YOPE   C4B12052   7.838   2.853   8.087  0.0376 -0.0814 -0.2272
  910YOPE   NH312053  10.143  12.740   5.378  0.2123 -0.1378  0.0408
  910YOPE   PO412054  10.012  13.058   5.559 -0.0749 -0.0817  0.1391
  910YOPE   GL112055  10.199  12.843   5.924 -0.0927  0.4125  0.0273
  910YOPE   GL212056  10.317  12.576   5.868  0.1947  0.1779 -0.0228
  910YOPE   C1A12057  10.277  13.012   6.237  0.2099 -0.2837 -0.0077
  910YOPE   D2A12058  10.420  13.205   6.694  0.3034  0.2521  0.0677
  910YOPE   C3A12059  10.552  13.013   7.011 -0.0720  0.4458 -0.0474
  910YOPE   C4A12060  10.665  13.100   7.430 -0.0233  0.0418 -0.2009
  910YOPE   C1B12061  10.597  12.391   6.184  0.0928 -0.0468  0.1919
  910YOPE   C2B12062  10.850  12.191   6.573  0.0362  0.0833  0.0746
  910YOPE   D3B12063  11.184  12.259   6.866 -0.1236  0.2634  0.2000
  910YOPE   C4B12064  11.047  12.305   7.291 -0.1267 -0.2806 -0.3501
  911YOPE   NH312065  12.692  16.730   6.084 -0.1661 -0.1368  0.4017
  911YOPE   PO412066  12.506  16.272   6.000  0.1479  0.0960  0.1808
  911YOPE   GL112067  12.568  16.343   6.335 -0.0512  0.1958 -0.1436
  911YOPE   GL212068  12.969  16.266   6.411  0.0650  0.1448  0.2251
  911YOPE   C1A12069  12.595  16.261   6.729 -0.1486  0.2797 -0.1203
  911YOPE   D2A12070  12.447  16.067   7.031  0.1140  0.3028 -0.0846
  911YOPE   C3A12071  12.394  16.148   7.368  0.0048 -0.0142 -0.0552
  911YOPE   C4A12072  12.276  15.970   7.696  0.0218 -0.3924 -0.0775
  911YOPE   C1B12073  13.002  16.417   6.890 -0.2565  0.0293  0.2601
  911YOPE   C2B12074  12.694  16.450   7.197  0.4369  0.4019 -0.2393
  911YOPE   D3B12075  12.289  16.581   7.207 -0.0994 -0.0550 -0.0312
  911YOPE   C4B12076  12.057  16.562   7.585 -0.4003  0.0815  0.1172
  912YOPE   NH312077  17.806   9.465   6.244 -0.0747 -0.2027  0.1043
  912YOPE   PO412078  18.173   9.347   6.020 -0.2598  0.2132 -0.2886
  912YOPE   GL112079  18.261   9.376   6.405 -0.0929  0.2883 -0.2306
  912YOPE   GL212080  18.294   9.661   6.471  0.1722 -0.0257 -0.1651
  912YOPE   C1A12081  18.332   9.369   6.833 -0.0724 -0.1187 -0.0295
  912YOPE   D2A12082  18.504   9.571   7.172 -0.0409 -0.1069  0.1218
  912YOPE   C3A12083  18.607   9.596   7.586  0.1028 -0.1778  0.0727
  912YOPE   C4A12084  18.948   9.501   7.882  0.0886 -0.0773  0.2522
  912YOPE   C1B12085  18.191   9.894   6.899  0.2251  0.0069 -0.2409
  912YOPE   C2B12086  18.310  10.005   7.343 -0.0048  0.0389  0.0362
  912YOPE   D3B12087  18.504  10.117   7.711 -0.0700 -0.0649 -0.3062
  912YOPE   C4B12088  18.314  10.095   8.129 -0.1249  0.1934  0.0918
  913YOPE   NH312089   1.244  14.909   6.284  0.1695  0.1865 -0.0191
  913YOPE   PO412090   0.863  14.631   6.112 -0.0426  0.0643 -0.0435
  913YOPE   GL112091   0.889  14.702   6.605 -0.0377 -0.0266  0.1019
  913YOPE   GL212092   1.003  14.409   6.620 -0.0581 -0.2839  0.0818
  913YOPE   C1A12093   0.846  14.551   7.092 -0.1571  0.2505  0.0665
  913YOPE   D2A12094   1.055  14.100   7.233  0.1247 -0.3165 -0.1792
  913YOPE   C3A12095   0.915  13.823   7.564 -0.2495  0.1680 -0.2029
  913YOPE   C4A12096   1.092  13.401   7.756  0.3348 -0.0420 -0.2341
  913YOPE   C1B12097   0.903  13.969   6.792 -0.1128 -0.1170 -0.0473
  913YOPE   C2B12098   0.981  13.654   7.034 -0.3139 -0.0492 -0.2731
  913YOPE   D3B12099   1.362  13.661   7.306 -0.1980 -0.2005  0.2710
  913YOPE   C4B12100   1.550  13.412   7.637  0.0911 -0.0177  0.0452
  914YOPE   NH312101   4.482   9.436   5.121  0.1197  0.0870 -0.0435
  914YOPE   PO412102   4.030   9.334   5.257 -0.1016  0.0390  0.0448
  914YOPE   GL112103   3.947   9.465   5.607 -0.0201  0.0834  0.3154
  914YOPE   GL212104   4.172   9.508   5.926  0.0385  0.0719 -0.1240
  914YOPE   C1A12105   3.665   9.708   5.806 -0.5904 -0.3898 -0.0195
  914YOPE   D2A12106   3.374   9.629   5.944  0.1984 -0.1272 -0.1195
  914YOPE   C3A12107   2.991   9.818   5.920  0.1500  0.2051  0.2986
  914YOPE   C4A12108   2.658   9.779   6.188  0.1167  0.1608  0.0023
  914YOPE   C1B12109   4.210   9.709   6.434  0.1293  0.0134  0.1955
  914YOPE   C2B12110   4.085   9.686   6.836  0.0091  0.1281 -0.2744
  914YOPE   D3B12111   4.083   9.703   7.240  0.1326  0.0501  0.1395
  914YOPE   C4B12112   3.980   9.514   7.608  0.1830 -0.1390 -0.0101
  915YOPE   NH312113  13.511  10.388   5.860 -0.1428  0.1206  0.1619
  915YOPE   PO412114  13.347  10.761   5.803  0.0607  0.0087  0.1780
  915YOPE   GL112115  13.491  10.715   6.259  0.1040  0.1077  0.0155
  915YOPE   GL212116  13.352  10.501   6.396 -0.0213  0.2729  0.2930
  915YOPE   C1A12117  13.606  10.837   6.668 -0.0892 -0.0972  0.0631
  915YOPE   D2A12118  13.881  10.788   7.012  0.1354  0.1514  0.1758
  915YOPE   C3A12119  13.636  10.777   7.227 -0.0372 -0.1258 -0.2267
  915YOPE   C4A12120  13.533  10.740   7.639 -0.0534  0.0765  0.3756
  915YOPE   C1B12121  13.342  10.499   6.873  0.3384 -0.2012  0.1557
  915YOPE   C2B12122  13.174  10.493   7.276 -0.1430  0.1669 -0.3619
  915YOPE   D3B12123  13.050  10.552   7.675 -0.0264  0.2836 -0.1306
  915YOPE   C4B12124  12.935  10.394   8.113 -0.2536 -0.2827 -0.2899
  916YOPE   NH312125  18.110   7.891   5.723 -0.1651  0.2910 -0.2823
  916YOPE   PO412126  17.704   8.008   5.917  0.0639 -0.0498  0.0634
  916YOPE   GL112127  17.914   8.005   6.320  0.2585  0.2575  0.0769
  916YOPE   GL212128  18.163   8.224   6.239  0.2359 -0.2536  0.1016
  916YOPE   C1A12129  17.853   8.000   6.836  0.0049 -0.0200  0.1218
  916YOPE   D2A12130  17.903   8.149   7.331 -0.2442  0.2315 -0.1176
  916YOPE   C3A12131  17.820   7.990   7.675 -0.0246 -0.3260 -0.0479
  916YOPE   C4A12132  17.570   7.735   7.894 -0.0953 -0.0599 -0.0053
  916YOPE   C1B12133  18.117   8.418   6.621 -0.1231 -0.1370  0.0924
  916YOPE   C2B12134  18.186   8.401   7.029 -0.3085 -0.0043 -0.0627
  916YOPE   D3B12135  18.348   8.578   7.447 -0.0106 -0.1949  0.1161
  916YOPE   C4B12136  18.755   8.480   7.812  0.3107 -0.1096  0.3424
  917YOPE   NH312137   3.414  14.094   5.396  0.0076 -0.1789  0.1680
  917YOPE   PO412138   3.713  14.441   5.439  0.0690  0.0766  0.2743
  917YOPE   GL112139   3.610  14.331   5.789  0.1039  0.1435 -0.1379
  917YOPE   GL212140   3.628  14.008   5.877  0.2284  0.0894 -0.0812
  917YOPE   C1A12141   3.524  14.528   6.232 -0.3235  0.0205  0.0342
  917YOPE   D2A12142   3.365  14.716   6.588 -0.2973  0.0911 -0.1467
  917YOPE   C3A12143   3.230  14.350   6.868  0.1303  0.0797  0.2167
  917YOPE   C4A12144   3.149  13.942   6.992 -0.4084 -0.2889  0.1319
  917YOPE   C1B12145   3.770  13.640   6.136 -0.0391 -0.0997  0.0726
  917YOPE   C2B12146   4.023  13.745   6.523  0.0014 -0.0906  0.1861
  917YOPE   D3B12147   4.104  13.811   6.925 -0.0271  0.0603 -0.1431
  917YOPE   C4B12148   4.310  13.622   7.192  0.1647  0.0216 -0.0758
  918YOPE   NH312149  15.957   4.177   6.237 -0.0487  0.2181  0.0186
  918YOPE   PO412150  16.364   4.119   6.178 -0.0705  0.0491 -0.1653
  918YOPE   GL112151  16.512   4.067   6.578  0.1695  0.4414  0.0684
  918YOPE   GL212152  16.220   4.290   6.672 -0.4083  0.1471 -0.2067
  918YOPE   C1A12153  16.455   3.834   6.946  0.0202  0.0579  0.1159
  918YOPE   D2A12154  16.479   3.968   7.377 -0.1206  0.2741  0.2473
  918YOPE   C3A12155  16.413   4.121   7.759 -0.1586 -0.2722 -0.3292
  918YOPE   C4A12156  16.537   4.187   8.199 -0.2081  0.2807  0.2485
  918YOPE   C1B12157  16.342   4.374   7.045  0.0433  0.1096  0.0153
  918YOPE   C2B12158  16.315   4.536   7.449 -0.1298  0.1454 -0.1927
  918YOPE   D3B12159  16.071   4.476   7.818  0.0346  0.0607 -0.0962
  918YOPE   C4B12160  15.701   4.496   8.091  0.0805  0.3754  0.0356
  919YOPE   NH312161   4.849   0.207   5.649  0.3058 -0.0623  0.2334
  919YOPE   PO412162   4.620  -0.162   5.535 -0.0205  0.2091 -0.0977
  919YOPE   GL112163   4.790  -0.157   5.976 -0.0979 -0.2092  0.0074
  919YOPE   GL212164   5.078   0.129   6.162 -0.0576  0.0358  0.2761
  919YOPE   C1A12165   4.899  -0.329   6.273 -0.0154  0.0638  0.3695
  919YOPE   D2A12166   5.108  -0.197   6.601  0.0329  0.1004 -0.1476
  919YOPE   C3A12167   5.211  -0.348   7.066 -0.1140  0.1986  0.1233
  919YOPE   C4A12168   5.341  -0.196   7.473 -0.0090 -0.1821  0.1662
  919YOPE   C1B12169   4.920   0.217   6.678 -0.2897  0.0045  0.1026
  919YOPE   C2B12170   5.116   0.124   6.958 -0.1674 -0.4068  0.0697
  919YOPE   D3B12171   5.139   0.275   7.327  0.1725 -0.1544 -0.2791
  919YOPE   C4B12172   5.011   0.570   7.686  0.1494 -0.1605  0.2257
  920YOPE   NH312173  16.975  10.431   6.245  0.0258  0.1632  0.1570
  920YOPE   PO412174  17.372  10.383   6.051  0.0869 -0.0184  0.1435
  920YOPE   GL112175  17.431  10.480   6.527 -0.2609 -0.0499  0.1409
  920YOPE   GL212176  17.614  10.224   6.699  0.1028  0.0365  0.1938
  920YOPE   C1A12177  17.542  10.618   7.001 -0.2884 -0.1216 -0.1955
  920YOPE   D2A12178  17.785  10.673   7.338 -0.1375  0.0635 -0.3671
  920YOPE   C3A12179  17.689  10.635   7.838 -0.0237 -0.2652  0.1578
  920YOPE   C4A12180  17.523  10.480   8.320 -0.2816 -0.0678  0.0765
  920YOPE   C1B12181  17.780  10.161   7.082  0.3680  0.1606 -0.0370
  920YOPE   C2B12182  17.840  10.143   7.557 -0.0541  0.1020 -0.1453
  920YOPE   D3B12183  17.789  10.131   8.014 -0.2903  0.0746 -0.0278
  920YOPE   C4B12184  17.530   9.888   8.288 -0.0719  0.2649  0.3443
  921YOPE   NH312185  14.161   2.814   6.079 -0.1343 -0.2209 -0.0964
  921YOPE   PO412186  14.144   3.196   6.132 -0.1632  0.0795 -0.2304
  921YOPE   GL112187  14.215   3.210   6.512 -0.2448 -0.0530  0.1408
  921YOPE   GL212188  14.103   2.897   6.611  0.1473 -0.1372  0.4306
  921YOPE   C1A12189  14.336   3.103   6.998 -0.3782  0.0838  0.5387
  921YOPE   D2A12190  14.577   3.088   7.386  0.0429  0.0092 -0.0837
  921YOPE   C3A12191  14.470   2.853   7.629  0.2538  0.0186 -0.0385
  921YOPE   C4A12192  14.526   2.504   7.951 -0.2135 -0.4841 -0.0883
  921YOPE   C1B12193  13.729   3.050   6.873 -0.1817 -0.1175 -0.0654
  921YOPE   C2B12194  13.530   3.190   7.225 -0.2415  0.0916  0.4221
  921YOPE   D3B12195  13.394   3.320   7.611  0.3397  0.1320  0.1834
  921YOPE   C4B12196  13.200   3.128   7.930 -0.1676  0.0106 -0.3652
  922YOPE   NH312197  13.036  11.092   6.030  0.1837 -0.4254  0.0293
  922YOPE   PO412198  13.256  11.494   6.052  0.1386  0.3460  0.3532
  922YOPE   GL112199  13.053  11.299   6.491  0.1455 -0.3126  0.0336
  922YOPE   GL212200  13.138  10.951   6.535 -0.0657 -0.2531 -0.1339
  922YOPE   C1A12201  13.031  11.467   6.908  0.0514  0.1243 -0.0266
  922YOPE   D2A12202  12.916  11.557   7.407 -0.1394 -0.1541 -0.0125
  922YOPE   C3A12203  12.859  11.815   7.745 -0.1026 -0.1190 -0.1348
  922YOPE   C4A12204  12.988  11.927   8.120 -0.2295  0.1367  0.0541
  922YOPE   C1B12205  13.215  10.966   6.940  0.0887 -0.1353  0.0490
  922YOPE   C2B12206  13.172  10.974   7.344  0.0117  0.2039  0.0161
  922YOPE   D3B12207  13.161  11.081   7.769  0.0152 -0.0681  0.3464
  922YOPE   C4B12208  12.863  10.907   8.143  0.1100 -0.0411 -0.1286
  923YOPE   NH312209   3.928   7.258   5.960  0.0120  0.0198  0.1281
  923YOPE   PO412210   3.425   7.239   6.031  0.2108 -0.0555 -0.3376
  923YOPE   GL112211   3.427   7.420   6.424 -0.0963  0.3089 -0.2094
  923YOPE   GL212212   3.681   7.246   6.534  0.1070  0.0967  0.2779
  923YOPE   C1A12213   3.592   7.729   6.673 -0.2185 -0.0869 -0.0348
  923YOPE   D2A12214   3.711   7.783   7.174 -0.0110 -0.3067 -0.1888
  923YOPE   C3A12215   3.500   7.576   7.475 -0.0883 -0.0507 -0.1993
  923YOPE   C4A12216   3.387   7.351   7.723 -0.1783  0.0234  0.1276
  923YOPE   C1B12217   3.640   6.994   6.777 -0.0063 -0.3866  0.1811
  923YOPE   C2B12218   3.795   6.739   7.018  0.1518  0.0831  0.1454
  923YOPE   D3B12219   3.853   6.349   7.279 -0.0643  0.0024 -0.2001
  923YOPE   C4B12220   3.883   6.043   7.619 -0.2715  0.2336 -0.1134
  924YOPE   NH312221   0.351   0.599   6.125 -0.1181 -0.1226 -0.4984
  924YOPE   PO412222   0.826   0.532   6.039  0.0440 -0.0456 -0.0036
  924YOPE   GL112223   1.077   0.598   6.376 -0.2556 -0.1484  0.1774
  924YOPE   GL212224   1.092   0.212   6.478  0.0213 -0.1516  0.0097
  924YOPE   C1A12225   1.339   0.610   6.758  0.1063  0.3428 -0.0887
  924YOPE   D2A12226   1.472   0.508   7.159 -0.1351 -0.2933 -0.0426
  924YOPE   C3A12227   1.328   0.591   7.550 -0.1274 -0.0899  0.1490
  924YOPE   C4A12228   1.172   0.632   7.945  0.1224  0.1183  0.2035
  924YOPE   C1B12229   1.373  -0.121   6.516 -0.1326  0.0702 -0.0982
  924YOPE   C2B12230   1.247  -0.340   6.809 -0.1103 -0.0365  0.1510
  924YOPE   D3B12231   1.288  -0.408   7.296 -0.3759  0.2085  0.4157
  924YOPE   C4B12232   1.093  -0.181   7.663 -0.0308 -0.4180  0.0298
  925YOPE   NH312233   2.475   9.125   5.242 -0.1399  0.0193  0.3213
  925YOPE   PO412234   2.685   8.888   5.667 -0.0366 -0.1686 -0.0771
  925YOPE   GL112235   2.716   9.067   6.040 -0.2237  0.0622 -0.1962
  925YOPE   GL212236   2.684   8.948   6.333 -0.2470 -0.0283 -0.0861
  925YOPE   C1A12237   2.924   9.387   6.144  0.1401  0.2217 -0.1555
  925YOPE   D2A12238   3.170   9.560   6.404 -0.1068 -0.0696  0.2146
  925YOPE   C3A12239   3.267   9.994   6.356 -0.1043 -0.0167 -0.0380
  925YOPE   C4A12240   3.311  10.288   6.074  0.0394  0.1990 -0.1687
  925YOPE   C1B12241   2.799   9.234   6.651  0.0948  0.2694 -0.1101
  925YOPE   C2B12242   2.901   9.548   6.904  0.4943 -0.0311 -0.4029
  925YOPE   D3B12243   3.078   9.588   7.320 -0.0734 -0.2818 -0.1267
  925YOPE   C4B12244   3.355   9.746   7.650  0.1462 -0.1146 -0.0096
  926YOPE   NH312245  13.074   6.638   6.343 -0.1473 -0.0371 -0.1267
  926YOPE   PO412246  13.214   7.026   6.380 -0.0530  0.1470  0.2491
  926YOPE   GL112247  13.090   6.760   6.804 -0.0982  0.2517  0.0310
  926YOPE   GL212248  12.812   6.584   6.850  0.0454  0.1310  0.3945
  926YOPE   C1A12249  13.115   6.840   7.214  0.1257 -0.3042 -0.3534
  926YOPE   D2A12250  12.995   7.207   7.464  0.4282  0.1257  0.1004
  926YOPE   C3A12251  12.774   7.201   7.880  0.2634  0.0124 -0.0117
  926YOPE   C4A12252  12.870   7.075   8.288  0.2436  0.0231  0.0899
  926YOPE   C1B12253  12.651   6.723   7.073 -0.0134 -0.0169 -0.0975
  926YOPE   C2B12254  12.705   6.724   7.468 -0.1972  0.1812 -0.0444
  926YOPE   D3B12255  12.875   6.755   7.881  0.1884 -0.2479 -0.2678
  926YOPE   C4B12256  13.175   6.644   8.168  0.2070 -0.0278  0.2529
  927YOPE   NH312257  16.820  13.217   6.307  0.1045  0.1582 -0.1255
  927YOPE   PO412258  17.137  13.460   6.424 -0.3705  0.0439 -0.0846
  927YOPE   GL112259  17.085  13.307   6.784 -0.0946 -0.1312  0.2919
  927YOPE   GL212260  17.372  13.350   6.882  0.1264 -0.1119 -0.0584
  927YOPE   C1A12261  17.009  13.054   7.124 -0.1541 -0.2433  0.0966
  927YOPE   D2A12262  17.118  12.922   7.516  0.0022  0.0625 -0.2440
  927YOPE   C3A12263  17.139  13.144   7.944  0.1351 -0.1572 -0.3008
  927YOPE   C4A12264  17.158  13.014   8.386  0.1006  0.1088 -0.1168
  927YOPE   C1B12265  17.344  13.422   7.292  0.0451 -0.0781  0.1258
  927YOPE   C2B12266  17.478  13.472   7.734  0.1446 -0.0148 -0.2628
  927YOPE   D3B12267  17.587  13.350   8.098 -0.0902 -0.1218 -0.1864
  927YOPE   C4B12268  17.440  13.365   8.567 -0.1745  0.1165 -0.2066
  928YOPE   NH312269  16.181  15.722   6.264  0.0580 -0.0801 -0.0304
  928YOPE   PO412270  16.527  15.853   6.543  0.1808 -0.2929  0.1275
  928YOPE   GL112271  16.597  15.726   6.971  0.2351 -0.1146  0.2936
  928YOPE   GL212272  16.682  15.390   6.979  0.0318 -0.2607  0.1268
  928YOPE   C1A12273  16.450  15.654   7.374  0.0047 -0.0797 -0.0154
  928YOPE   D2A12274  16.092  15.369   7.411  0.1228  0.2396 -0.2035
  928YOPE   C3A12275  16.004  15.465   7.816 -0.1673  0.0077  0.1039
  928YOPE   C4A12276  16.227  15.447   8.208  0.0260  0.1179 -0.0237
  928YOPE   C1B12277  16.585  15.114   7.369 -0.1060 -0.0399  0.2152
  928YOPE   C2B12278  16.402  15.084   7.751  0.0868  0.0141 -0.0010
  928YOPE   D3B12279  16.350  14.981   8.075 -0.1077  0.2662  0.3141
  928YOPE   C4B12280  16.150  14.726   8.351  0.1506  0.0173  0.1360
  929YOPE   NH312281  11.516   2.028   5.934 -0.1412  0.3350 -0.1803
  929YOPE   PO412282  11.250   2.340   6.070  0.0619 -0.2166  0.1567
  929YOPE   GL112283  11.186   2.530   6.428  0.2002  0.1533 -0.1505
  929YOPE   GL212284  11.128   2.883   6.339  0.0577  0.2019 -0.2858
  929YOPE   C1A12285  10.990   2.331   6.791 -0.1019  0.0188  0.2629
  929YOPE   D2A12286  11.072   2.096   7.222 -0.0197  0.0190  0.2951
  929YOPE   C3A12287  10.935   1.952   7.524 -0.2253  0.0135  0.0514
  929YOPE   C4A12288  11.125   1.763   7.821  0.0059 -0.3894 -0.0976
  929YOPE   C1B12289  11.107   2.882   6.850 -0.0936  0.0172  0.1449
  929YOPE   C2B12290  11.183   2.638   7.204 -0.0353 -0.0039  0.3060
  929YOPE   D3B12291  10.847   2.511   7.469 -0.5344 -0.2370 -0.2561
  929YOPE   C4B12292  10.908   2.490   7.810 -0.0937  0.0534  0.1789
  930YOPE   NH312293  15.861  17.176   6.307 -0.1537  0.3332  0.0780
  930YOPE   PO412294  15.453  17.224   6.414 -0.1907  0.0769  0.0648
  930YOPE   GL112295  15.288  16.899   6.820 -0.0332 -0.0465  0.0990
  930YOPE   GL212296  14.994  17.045   6.892  0.3877  0.0662 -0.0339
  930YOPE   C1A12297  15.370  16.811   7.155  0.0701  0.3385 -0.2182
  930YOPE   D2A12298  15.200  16.687   7.619 -0.2720 -0.1058  0.1369
  930YOPE   C3A12299  14.930  16.402   7.735 -0.2921  0.2101  0.0387
  930YOPE   C4A12300  14.954  16.027   7.944 -0.1155 -0.0987 -0.1463
  930YOPE   C1B12301  14.880  16.787   7.223  0.2635 -0.0010 -0.1363
  930YOPE   C2B12302  14.727  16.795   7.579 -0.0138 -0.1026  0.1810
  930YOPE   D3B12303  14.486  16.759   7.888  0.3519 -0.0128  0.2324
  930YOPE   C4B12304  14.243  16.611   8.191  0.0526 -0.2463 -0.0754
  931YOPE   NH312305   6.221   4.121   5.935 -0.0156  0.0461  0.1491
  931YOPE   PO412306   6.203   3.709   5.763 -0.2809  0.0258 -0.0737
  931YOPE   GL112307   6.147   3.358   5.964  0.1646  0.1775  0.1465
  931YOPE   GL212308   5.960   3.399   6.189 -0.3135  0.1499 -0.2970
  931YOPE   C1A12309   6.053   2.947   6.160  0.0128 -0.1285 -0.1126
  931YOPE   D2A12310   5.851   2.813   6.532 -0.1416 -0.1286  0.0457
  931YOPE   C3A12311   5.472   2.801   6.442  0.1224 -0.3555 -0.1585
  931YOPE   C4A12312   5.144   2.808   6.736 -0.1597  0.0424 -0.0118
  931YOPE   C1B12313   6.060   3.274   6.603 -0.1673 -0.4109 -0.0262
  931YOPE   C2B12314   5.936   3.089   7.018  0.0688  0.0205 -0.0834
  931YOPE   D3B12315   5.802   2.965   7.437  0.3331  0.1356 -0.1643
  931YOPE   C4B12316   5.643   2.915   7.795 -0.0138 -0.1956  0.3061
  932YOPE   NH312317  14.428  12.378   6.117 -0.2935 -0.0731  0.2034
  932YOPE   PO412318  14.160  12.648   6.247 -0.2363 -0.0530 -0.1601
  932YOPE   GL112319  14.158  12.432   6.580 -0.0890 -0.0427  0.0300
  932YOPE   GL212320  14.101  12.075   6.604  0.2760  0.0310  0.2686
  932YOPE   C1A12321  13.958  12.438   6.940 -0.1785  0.1100 -0.0785
  932YOPE   D2A12322  13.841  12.250   7.318 -0.1451 -0.3462  0.1120
  932YOPE   C3A12323  13.887  12.402   7.714 -0.1700  0.0678 -0.1859
  932YOPE   C4A12324  13.976  12.674   8.081 -0.2462  0.0935 -0.1819
  932YOPE   C1B12325  13.945  11.827   6.931  0.2693 -0.0861  0.1320
  932YOPE   C2B12326  13.898  11.755   7.265 -0.3334  0.3857 -0.0440
  932YOPE   D3B12327  13.594  11.803   7.514 -0.0467 -0.0075  0.1031
  932YOPE   C4B12328  13.288  11.571   7.764  0.0114 -0.1257 -0.0950
  933YOPE   NH312329  14.791  15.129   6.444  0.2030  0.0307 -0.0393
  933YOPE   PO412330  14.822  15.554   6.345  0.1749  0.0017 -0.3248
  933YOPE   GL112331  14.510  15.605   6.670 -0.2825 -0.1523  0.0981
  933YOPE   GL212332  14.409  15.323   6.800 -0.3087  0.0449  0.2246
  933YOPE   C1A12333  14.432  15.824   7.010 -0.1213 -0.0086  0.1508
  933YOPE   D2A12334  14.488  15.762   7.491  0.3738  0.1301  0.0775
  933YOPE   C3A12335  14.242  15.696   7.782 -0.0771 -0.1216  0.0490
  933YOPE   C4A12336  13.961  15.679   8.062 -0.1302 -0.0147 -0.3124
  933YOPE   C1B12337  14.406  15.283   7.185 -0.2921  0.0176 -0.2127
  933YOPE   C2B12338  14.533  15.185   7.615  0.3152 -0.1807 -0.0206
  933YOPE   D3B12339  14.604  15.058   7.998  0.1415 -0.1318 -0.0476
  933YOPE   C4B12340  14.725  15.102   8.463  0.3781  0.1754 -0.2635
  934YOPE   NH312341  15.507  12.317   6.412 -0.0286  0.0448 -0.0959
  934YOPE   PO412342  15.128  12.567   6.342  0.2248 -0.0545 -0.1307
  934YOPE   GL112343  15.140  12.744   6.795 -0.1642 -0.1944 -0.3819
  934YOPE   GL212344  14.870  12.861   6.731  0.3670  0.1650  0.0905
  934YOPE   C1A12345  15.222  12.691   7.296  0.3688  0.0184  0.1686
  934YOPE   D2A12346  15.222  12.907   7.757  0.1479  0.2372  0.3452
  934YOPE   C3A12347  15.408  12.657   8.182  0.2063  0.2185 -0.0443
  934YOPE   C4A12348  15.802  12.578   8.441  0.1929  0.0172  0.1314
  934YOPE   C1B12349  14.819  13.043   7.132 -0.0547  0.3160 -0.1675
  934YOPE   C2B12350  14.670  12.958   7.418  0.0175  0.1395 -0.0780
  934YOPE   D3B12351  14.742  13.071   7.837  0.2221  0.2894  0.2947
  934YOPE   C4B12352  15.000  13.024   8.195 -0.0932 -0.1623  0.0672
  935YOPE   NH312353   2.279   2.562   5.534 -0.1326 -0.0292 -0.1447
  935YOPE   PO412354   2.003   2.214   5.671  0.0197  0.1667 -0.1267
  935YOPE   GL112355   2.166   2.358   6.023  0.4075  0.1029 -0.1146
  935YOPE   GL212356   2.463   2.548   6.056  0.0925  0.0112  0.0038
  935YOPE   C1A12357   2.146   2.317   6.473 -0.0933 -0.0085 -0.0442
  935YOPE   D2A12358   1.990   2.047   6.735 -0.1827 -0.1726 -0.0495
  935YOPE   C3A12359   1.849   2.101   7.174  0.1713  0.1834  0.2153
  935YOPE   C4A12360   1.858   2.036   7.617 -0.1527 -0.0625 -0.1555
  935YOPE   C1B12361   2.643   2.562   6.482 -0.2841  0.0613 -0.2952
  935YOPE   C2B12362   2.633   2.388   6.857 -0.0529  0.0814 -0.0774
  935YOPE   D3B12363   2.318   2.388   7.181  0.0463  0.1766 -0.0543
  935YOPE   C4B12364   1.984   2.473   7.565 -0.1409 -0.2437 -0.0322
  936YOPE   NH312365   8.231   6.589   5.991  0.1160 -0.1588  0.0270
  936YOPE   PO412366   8.502   6.979   6.105 -0.1713  0.2510 -0.1273
  936YOPE   GL112367   8.385   7.138   6.501  0.2694  0.2379 -0.1561
  936YOPE   GL212368   8.655   7.374   6.647 -0.1596  0.1750  0.2608
  936YOPE   C1A12369   8.216   7.025   6.914 -0.1455  0.1228  0.0820
  936YOPE   D2A12370   8.123   7.230   7.235 -0.0026  0.1938 -0.5451
  936YOPE   C3A12371   7.938   7.553   7.298  0.1443  0.0235  0.2004
  936YOPE   C4A12372   7.917   7.882   7.270 -0.1524 -0.0184 -0.1494
  936YOPE   C1B12373   8.596   7.384   7.107 -0.1236  0.1253 -0.2275
  936YOPE   C2B12374   8.542   7.222   7.506  0.0903 -0.0727  0.2994
  936YOPE   D3B12375   8.604   7.133   7.911  0.1940 -0.3336 -0.0003
  936YOPE   C4B12376   8.991   6.782   8.072 -0.2073 -0.1556  0.0107
  937YOPE   NH312377   1.265   0.245   5.973 -0.0665  0.0146 -0.5065
  937YOPE   PO412378   1.715   0.308   5.835  0.1589  0.1947  0.1162
  937YOPE   GL112379   1.717   0.288   6.312 -0.1716 -0.2496  0.1349
  937YOPE   GL212380   1.572   0.595   6.280 -0.3692 -0.0360  0.3301
  937YOPE   C1A12381   1.772   0.305   6.748 -0.1185  0.1913 -0.1959
  937YOPE   D2A12382   1.939   0.327   7.102 -0.0845 -0.0867  0.1424
  937YOPE   C3A12383   1.881   0.384   7.523  0.1526 -0.0854  0.3053
  937YOPE   C4A12384   1.687   0.638   7.915  0.0306 -0.1068 -0.2348
  937YOPE   C1B12385   1.734   0.947   6.474  0.0440  0.0569 -0.2227
  937YOPE   C2B12386   1.756   0.972   6.894  0.5078 -0.0816 -0.0616
  937YOPE   D3B12387   1.742   0.874   7.398 -0.3211  0.0503  0.0384
  937YOPE   C4B12388   2.004   1.074   7.782 -0.0673  0.0172 -0.0300
  938YOPE   NH312389   6.306   5.151   6.223  0.1207 -0.3311  0.3331
  938YOPE   PO412390   6.115   5.616   6.246 -0.0466 -0.1470 -0.1142
  938YOPE   GL112391   6.058   5.889   6.511  0.0022  0.0853 -0.1585
  938YOPE   GL212392   6.098   6.170   6.313  0.2192  0.0440 -0.1069
  938YOPE   C1A12393   5.978   6.008   6.905 -0.2386 -0.1292  0.4168
  938YOPE   D2A12394   5.923   6.038   7.352 -0.2815 -0.2967  0.0021
  938YOPE   C3A12395   5.803   5.745   7.528 -0.0857 -0.0810 -0.4103
  938YOPE   C4A12396   5.449   5.570   7.788 -0.0322  0.3732  0.0716
  938YOPE   C1B12397   5.906   6.418   6.619  0.2640 -0.0721  0.0746
  938YOPE   C2B12398   5.825   6.490   7.096  0.1661  0.1126 -0.0341
  938YOPE   D3B12399   5.548   6.462   7.409 -0.1046  0.0942 -0.1921
  938YOPE   C4B12400   5.327   6.064   7.509 -0.0924 -0.3358  0.0513
  939YOPE   NH312401   1.272  11.214   5.743 -0.1312  0.2108 -0.2916
  939YOPE   PO412402   0.811  11.043   5.649 -0.1022 -0.0250  0.0782
  939YOPE   GL112403   0.882  11.111   6.053 -0.0462 -0.1598  0.1404
  939YOPE   GL212404   0.844  11.379   6.179 -0.1934 -0.4592  0.0518
  939YOPE   C1A12405   1.115  10.923   6.474 -0.0637 -0.1977 -0.2693
  939YOPE   D2A12406   1.205  10.710   6.834  0.0619 -0.3192 -0.1086
  939YOPE   C3A12407   1.269  10.827   7.288  0.1685  0.0495 -0.0484
  939YOPE   C4A12408   1.522  10.868   7.649 -0.0200  0.0879  0.0965
  939YOPE   C1B12409   0.960  11.395   6.563 -0.1291  0.3706  0.0086
  939YOPE   C2B12410   1.215  11.254   6.895  0.4103  0.0748  0.0091
  939YOPE   D3B12411   1.323  11.282   7.343  0.0537 -0.0220 -0.1311
  939YOPE   C4B12412   1.308  11.302   7.885  0.0048 -0.2274  0.0154
  940YOPE   NH312413   5.461  13.278   5.574 -0.0341 -0.1469 -0.0821
  940YOPE   PO412414   5.490  12.767   5.473 -0.1400  0.3595  0.1100
  940YOPE   GL112415   5.426  12.649   5.860 -0.2796  0.0246 -0.1287
  940YOPE   GL212416   5.160  12.463   5.804  0.1611 -0.3240  0.0853
  940YOPE   C1A12417   5.179  12.977   6.188  0.0195  0.0879  0.0764
  940YOPE   D2A12418   4.984  13.185   6.563  0.0661 -0.0635 -0.3035
  940YOPE   C3A12419   5.169  13.091   6.914  0.0490 -0.1833 -0.1130
  940YOPE   C4A12420   5.360  13.044   7.327 -0.0362 -0.1261 -0.0002
  940YOPE   C1B12421   5.163  12.517   6.223 -0.0789 -0.0709 -0.0896
  940YOPE   C2B12422   5.222  12.627   6.538  0.2041 -0.2944  0.0247
  940YOPE   D3B12423   5.285  12.599   6.933  0.1064 -0.3461  0.0688
  940YOPE   C4B12424   5.658  12.405   7.132 -0.0856  0.2207 -0.1200
  941YOPE   NH312425   9.396  10.287   5.612  0.0205  0.2376 -0.1510
  941YOPE   PO412426   9.118   9.959   5.612  0.0139  0.4029  0.0485
  941YOPE   GL112427   8.935  10.152   5.959  0.0788 -0.1073 -0.0471
  941YOPE   GL212428   9.203  10.284   6.082  0.1217 -0.0758 -0.1767
  941YOPE   C1A12429   8.811  10.279   6.426 -0.2150  0.0820 -0.0979
  941YOPE   D2A12430   8.610  10.344   6.793 -0.0739 -0.2850  0.0730
  941YOPE   C3A12431   8.879  10.469   7.169  0.0855 -0.1496 -0.1973
  941YOPE   C4A12432   9.019  10.366   7.667  0.1948  0.1308 -0.1104
  941YOPE   C1B12433   9.299  10.478   6.422  0.0351  0.1562 -0.0330
  941YOPE   C2B12434   9.354  10.441   6.927  0.0418  0.0008  0.1474
  941YOPE   D3B12435   9.333  10.732   7.282  0.2654  0.2317 -0.1796
  941YOPE   C4B12436   9.270  10.900   7.697 -0.1144 -0.1131  0.0228
  942POPC   NC312437   1.723   3.768   5.594  0.0149 -0.0526  0.0895
  942POPC   PO412438   1.708   3.668   5.951 -0.1980 -0.1087  0.0304
  942POPC   GL112439   1.498   3.853   6.213 -0.0856 -0.1862  0.0889
  942POPC   GL212440   1.724   4.133   6.212  0.0986  0.1493 -0.1737
  942POPC   C1A12441   1.614   3.737   6.694  0.1693  0.1735 -0.0042
  942POPC   D2A12442   1.528   3.791   7.110  0.0953  0.0793 -0.0633
  942POPC   C3A12443   1.550   4.003   7.389  0.2295  0.0813  0.0863
  942POPC   C4A12444   1.356   4.405   7.571 -0.2661  0.1695 -0.0670
  942POPC   C1B12445   1.721   4.232   6.718 -0.0527  0.0258  0.1993
  942POPC   C2B12446   1.733   4.405   7.131  0.1813  0.0912  0.1008
  942POPC   C3B12447   1.926   4.369   7.450 -0.3886 -0.1810  0.0788
  942POPC   C4B12448   1.788   4.443   7.916 -0.3910  0.0034 -0.0303
  943POPC   NC312449  11.655   0.637   5.835  0.0304  0.2874  0.0495
  943POPC   PO412450  12.071   0.759   5.877  0.1272 -0.1209 -0.5238
  943POPC   GL112451  12.135   0.793   6.324  0.0276  0.1911 -0.0269
  943POPC   GL212452  12.255   1.040   6.504 -0.2109 -0.1815  0.1373
  943POPC   C1A12453  11.850   0.902   6.715  0.1927 -0.2817 -0.0995
  943POPC   D2A12454  11.757   0.835   7.127  0.2191 -0.1628 -0.2398
  943POPC   C3A12455  11.476   1.124   7.388  0.0022 -0.3295  0.1925
  943POPC   C4A12456  11.255   1.296   7.765 -0.2359  0.0583  0.0938
  943POPC   C1B12457  12.332   0.769   6.837  0.1222  0.1230  0.1768
  943POPC   C2B12458  12.230   0.893   7.198 -0.3111 -0.1106 -0.2192
  943POPC   C3B12459  12.021   0.996   7.644 -0.2511  0.0481  0.0962
  943POPC   C4B12460  11.683   1.056   7.939  0.0225 -0.0702 -0.0850
  944POPC   NC312461   8.218   5.642   6.261  0.2885 -0.0401  0.1935
  944POPC   PO412462   8.513   5.419   6.379  0.1411 -0.1667  0.2069
  944POPC   GL112463   8.210   5.277   6.664 -0.0740  0.0958 -0.1755
  944POPC   GL212464   7.925   5.444   6.601  0.0061  0.2348 -0.2959
  944POPC   C1A12465   8.168   5.072   7.023  0.5801 -0.2745 -0.1101
  944POPC   D2A12466   8.333   5.016   7.372 -0.1051 -0.1675  0.1113
  944POPC   C3A12467   8.220   5.084   7.856 -0.0249 -0.0908 -0.1988
  944POPC   C4A12468   8.417   5.064   8.256  0.3537  0.0578 -0.0248
  944POPC   C1B12469   7.794   5.416   6.970  0.1721  0.1079 -0.1656
  944POPC   C2B12470   7.802   5.078   7.335 -0.1141 -0.1291 -0.2418
  944POPC   C3B12471   7.739   4.898   7.730 -0.0975  0.0752  0.2512
  944POPC   C4B12472   7.578   4.851   8.144  0.1203  0.0616 -0.1923
  945POPC   NC312473  12.258  11.311   5.805  0.2474 -0.3901  0.0027
  945POPC   PO412474  11.807  11.309   5.844 -0.1368 -0.2543  0.0680
  945POPC   GL112475  12.051  11.118   6.263 -0.3273  0.0270 -0.1190
  945POPC   GL212476  12.037  10.776   6.336  0.2203  0.1531 -0.1850
  945POPC   C1A12477  12.150  11.262   6.602  0.2976 -0.3624 -0.0229
  945POPC   D2A12478  12.167  11.366   7.018 -0.0062  0.0552  0.0538
  945POPC   C3A12479  11.951  11.257   7.382  0.0518  0.2474 -0.0428
  945POPC   C4A12480  11.893  11.240   7.813 -0.2890 -0.1360  0.1445
  945POPC   C1B12481  12.165  10.798   6.743 -0.3834 -0.3143  0.2333
  945POPC   C2B12482  12.304  10.820   7.091 -0.0753 -0.0557 -0.1710
  945POPC   C3B12483  12.232  10.785   7.563 -0.0689 -0.0999  0.0334
  945POPC   C4B12484  12.104  10.627   7.975 -0.0288  0.0652 -0.0229
  946POPC   NC312485  15.840   6.264   6.298  0.4687  0.3138  0.0051
  946POPC   PO412486  16.207   6.457   6.157 -0.1578 -0.2208  0.0247
  946POPC   GL112487  16.233   6.666   6.446 -0.2826  0.0372 -0.1992
  946POPC   GL212488  15.868   6.692   6.576  0.1265  0.1160  0.0974
  946POPC   C1A12489  16.200   6.594   6.954  0.2164  0.1375 -0.0137
  946POPC   D2A12490  16.195   6.517   7.308  0.3325  0.1350 -0.0681
  946POPC   C3A12491  16.268   6.701   7.518  0.1908  0.0915 -0.2205
  946POPC   C4A12492  16.198   6.663   7.982  0.3105  0.1497  0.0039
  946POPC   C1B12493  15.684   6.700   6.947  0.0581 -0.3733 -0.0694
  946POPC   C2B12494  15.766   6.929   7.336 -0.0903 -0.0749 -0.2212
  946POPC   C3B12495  15.516   7.183   7.702 -0.1654 -0.2492 -0.2264
  946POPC   C4B12496  15.285   7.491   7.954 -0.1630  0.0987 -0.1489
  947POPC   NC312497   2.993   4.895   5.702  0.1237 -0.0773 -0.1069
  947POPC   PO412498   2.704   4.780   5.871 -0.3130  0.3737  0.0075
  947POPC   GL112499   2.622   4.896   6.306 -0.1333 -0.0204 -0.0737
  947POPC   GL212500   2.334   4.938   6.367 -0.2515 -0.0630  0.1519
  947POPC   C1A12501   2.714   5.262   6.665  0.4056  0.3985  0.0166
  947POPC   D2A12502   2.911   5.608   6.859 -0.2483  0.2548 -0.0505
  947POPC   C3A12503   2.595   5.691   7.261  0.1995 -0.1053  0.0822
  947POPC   C4A12504   2.672   5.736   7.714 -0.1632  0.0134  0.1317
  947POPC   C1B12505   2.269   5.084   6.804 -0.2762 -0.0302  0.2154
  947POPC   C2B12506   2.193   5.343   7.163 -0.3040 -0.0523  0.4385
  947POPC   C3B12507   2.076   5.596   7.373 -0.1425 -0.0449 -0.1414
  947POPC   C4B12508   2.112   5.719   7.794  0.2315  0.4161 -0.1392
  948POPC   NC312509   3.811   1.396   5.823 -0.1153  0.0211 -0.2785
  948POPC   PO412510   3.646   1.829   5.613  0.2177  0.4666 -0.2995
  948POPC   GL112511   3.568   1.877   6.005 -0.0256  0.1234 -0.2824
  948POPC   GL212512   3.245   1.957   6.035 -0.0987 -0.1182  0.1481
  948POPC   C1A12513   3.751   1.678   6.465 -0.0769 -0.1656 -0.1096
  948POPC   D2A12514   3.851   1.632   6.853 -0.2622  0.1354 -0.1421
  948POPC   C3A12515   3.874   1.644   7.263  0.0688 -0.1291 -0.0449
  948POPC   C4A12516   3.892   1.902   7.692 -0.0435 -0.1766  0.0915
  948POPC   C1B12517   3.297   1.677   6.431  0.2507  0.4832  0.1375
  948POPC   C2B12518   3.342   1.565   6.821 -0.0519 -0.0690  0.1422
  948POPC   C3B12519   3.553   1.326   7.085 -0.1428 -0.0464  0.0600
  948POPC   C4B12520   3.953   1.122   7.218 -0.2474  0.1735 -0.0120
  949POPC   NC312521   9.029   4.858   5.836 -0.0462 -0.2354 -0.0359
  949POPC   PO412522   9.168   5.203   6.026 -0.2872  0.1513 -0.1118
  949POPC   GL112523   9.178   5.158   6.473 -0.1923  0.1446 -0.1436
  949POPC   GL212524   8.802   5.212   6.704  0.1394  0.0303 -0.0325
  949POPC   C1A12525   9.198   4.891   6.953  0.2158 -0.0145 -0.2181
  949POPC   D2A12526   9.110   5.016   7.282  0.0853  0.0970  0.1585
  949POPC   C3A12527   9.272   4.886   7.626  0.0206 -0.1127  0.0322
  949POPC   C4A12528   9.440   4.871   8.038 -0.2852  0.1579 -0.1133
  949POPC   C1B12529   8.701   5.289   7.095 -0.2901  0.2644 -0.2427
  949POPC   C2B12530   8.702   5.203   7.617  0.0811  0.0226 -0.2577
  949POPC   C3B12531   8.968   5.102   8.004 -0.0219  0.1768 -0.3251
  949POPC   C4B12532   8.907   4.851   8.329  0.2126 -0.1385 -0.3659
  950POPC   NC312533   7.275   5.740   6.157  0.0336  0.0371  0.0030
  950POPC   PO412534   6.866   5.937   5.963 -0.2213 -0.2148 -0.1273
  950POPC   GL112535   7.070   6.169   6.388 -0.0035  0.1103 -0.0588
  950POPC   GL212536   7.334   6.029   6.594 -0.0514 -0.1796 -0.1659
  950POPC   C1A12537   7.003   6.396   6.741  0.2332 -0.1103 -0.3080
  950POPC   D2A12538   7.087   6.533   7.184  0.2017  0.3088  0.1568
  950POPC   C3A12539   7.341   6.781   7.422 -0.4487 -0.2950 -0.0309
  950POPC   C4A12540   7.287   7.075   7.831 -0.0150 -0.0693 -0.0305
  950POPC   C1B12541   7.239   6.003   7.069  0.0554  0.0213 -0.1531
  950POPC   C2B12542   7.185   6.028   7.428 -0.0321 -0.1594  0.0928
  950POPC   C3B12543   6.937   6.284   7.620  0.0640 -0.1376  0.2256
  950POPC   C4B12544   6.569   6.501   7.844  0.0652 -0.2858 -0.1516
  951POPC   NC312545   2.056   5.813   5.517 -0.2184 -0.2615  0.4139
  951POPC   PO412546   1.956   5.559   5.871 -0.0768 -0.0694  0.0067
  951POPC   GL112547   1.811   5.774   6.269  0.2295  0.0619 -0.0010
  951POPC   GL212548   1.569   5.732   6.415  0.0224  0.0163  0.3528
  951POPC   C1A12549   2.021   5.945   6.576  0.2372  0.0491  0.0499
  951POPC   D2A12550   2.125   5.950   6.984 -0.2564  0.1839  0.2711
  951POPC   C3A12551   1.836   6.027   7.312 -0.1574 -0.1137 -0.2611
  951POPC   C4A12552   1.928   6.240   7.757 -0.2155 -0.0656  0.1032
  951POPC   C1B12553   1.251   5.640   6.752  0.1196  0.0103  0.0936
  951POPC   C2B12554   0.966   5.583   7.042 -0.0384 -0.1408  0.1659
  951POPC   C3B12555   0.852   5.280   7.319  0.0985 -0.1259 -0.1858
  951POPC   C4B12556   0.882   4.944   7.422 -0.0624  0.0537 -0.0488
  952POPC   NC312557   8.991  12.177   5.652 -0.2674 -0.0367 -0.4304
  952POPC   PO412558   8.969  11.699   5.535  0.0448 -0.0085  0.0250
  952POPC   GL112559   8.799  11.810   5.942  0.0941 -0.2380 -0.0742
  952POPC   GL212560   8.942  12.009   6.136  0.1560  0.0203  0.2149
  952POPC   C1A12561   8.783  11.660   6.393 -0.0362  0.0626  0.0928
  952POPC   D2A12562   8.826  11.751   6.903  0.1324  0.1757 -0.2278
  952POPC   C3A12563   9.123  11.607   7.174  0.0291  0.0185  0.3490
  952POPC   C4A12564   9.370  11.417   7.477 -0.0057  0.2933  0.1148
  952POPC   C1B12565   9.324  11.882   6.341  0.0550 -0.4328 -0.1302
  952POPC   C2B12566   9.620  11.774   6.748  0.0674  0.1648 -0.1235
  952POPC   C3B12567   9.628  11.711   7.192  0.4903  0.0426 -0.0270
  952POPC   C4B12568   9.876  11.556   7.485  0.6533 -0.0210  0.2744
  953POPC   NC312569  14.065  16.433   6.077  0.1256 -0.0105  0.0650
  953POPC   PO412570  13.794  16.691   6.205  0.0770  0.2545  0.2295
  953POPC   GL112571  13.557  16.520   6.607 -0.0715 -0.0107 -0.4206
  953POPC   GL212572  13.295  16.706   6.431  0.0438 -0.2565 -0.1446
  953POPC   C1A12573  13.509  16.546   7.039  0.1735 -0.1666 -0.0867
  953POPC   D2A12574  13.606  16.635   7.428  0.1089 -0.3519 -0.2600
  953POPC   C3A12575  13.572  16.461   7.833 -0.2582  0.0268  0.1788
  953POPC   C4A12576  13.103  16.398   8.164  0.3767 -0.1603  0.1032
  953POPC   C1B12577  13.209  16.867   6.801 -0.1554  0.0671  0.1047
  953POPC   C2B12578  13.116  16.808   7.196 -0.2100  0.3433  0.1013
  953POPC   C3B12579  12.671  16.882   7.397 -0.1319 -0.2966  0.5435
  953POPC   C4B12580  12.364  16.956   7.551 -0.0166  0.0893  0.0130
  954POPC   NC312581   2.825  11.382   5.518  0.0036 -0.0074 -0.0555
  954POPC   PO412582   2.481  11.600   5.756 -0.2595 -0.1125 -0.1915
  954POPC   GL112583   2.263  11.380   6.135  0.3480  0.3741 -0.1542
  954POPC   GL212584   2.184  11.125   6.241  0.2512  0.2221 -0.1667
  954POPC   C1A12585   1.939  11.541   6.433 -0.0893 -0.2413 -0.0004
  954POPC   D2A12586   1.882  11.554   6.918  0.0801 -0.1212  0.1038
  954POPC   C3A12587   1.812  11.312   7.335 -0.2947 -0.0505  0.1545
  954POPC   C4A12588   1.840  11.283   7.796 -0.2662 -0.2375 -0.0827
  954POPC   C1B12589   2.242  11.100   6.643 -0.0053 -0.1372 -0.1901
  954POPC   C2B12590   2.206  11.206   7.025  0.1526 -0.1969 -0.0631
  954POPC   C3B12591   2.201  11.006   7.345 -0.1421 -0.1343 -0.2411
  954POPC   C4B12592   2.040  10.711   7.499  0.2010 -0.1225 -0.0309
  955POPC   NC312593   8.787   8.610   5.374  0.1299  0.0288 -0.0423
  955POPC   PO412594   8.884   8.348   5.829 -0.0089  0.1836  0.3341
  955POPC   GL112595   8.932   8.476   6.194 -0.1056 -0.0782 -0.1444
  955POPC   GL212596   9.102   8.574   6.407  0.3429  0.0368  0.1116
  955POPC   C1A12597   8.704   8.809   6.359  0.1448 -0.1581 -0.2872
  955POPC   D2A12598   8.561   8.978   6.844  0.0574  0.2266 -0.0100
  955POPC   C3A12599   8.543   8.635   7.272  0.0177 -0.0614 -0.1077
  955POPC   C4A12600   8.529   8.663   7.730 -0.0750 -0.1181  0.1770
  955POPC   C1B12601   8.889   8.564   6.752 -0.0499 -0.0662  0.0193
  955POPC   C2B12602   9.015   8.705   7.062  0.0216  0.2732 -0.0024
  955POPC   C3B12603   9.388   8.729   7.364 -0.2505 -0.2657 -0.1002
  955POPC   C4B12604   9.522   8.352   7.641 -0.2680 -0.1686 -0.0614
  956POPC   NC312605  10.494   1.834   5.567  0.0413  0.0543 -0.2321
  956POPC   PO412606  10.553   1.842   5.921  0.1188  0.0345  0.3204
  956POPC   GL112607  10.212   2.043   6.232 -0.1485 -0.2216  0.2343
  956POPC   GL212608  10.226   2.369   6.339  0.2405 -0.2601 -0.3296
  956POPC   C1A12609   9.853   2.089   6.575  0.1713 -0.0617 -0.0910
  956POPC   D2A12610   9.741   2.458   6.846 -0.1771  0.1173  0.3473
  956POPC   C3A12611   9.434   2.387   7.075  0.1336  0.2966  0.2528
  956POPC   C4A12612   9.304   2.075   7.373  0.0652  0.0040  0.1054
  956POPC   C1B12613  10.437   2.080   6.683  0.2924  0.1033 -0.1095
  956POPC   C2B12614  10.757   1.768   6.719 -0.0765 -0.4113  0.4854
  956POPC   C3B12615  11.154   1.735   6.823  0.0162  0.1323 -0.1802
  956POPC   C4B12616  11.629   1.771   6.573  0.4980 -0.1176 -0.0125
  957POPC   NC312617   3.990  12.002   5.204 -0.0609 -0.1157 -0.1941
  957POPC   PO412618   3.650  11.836   5.431  0.1902  0.0060 -0.1338
  957POPC   GL112619   3.832  11.604   5.770 -0.1979 -0.1370  0.1797
  957POPC   GL212620   3.731  11.332   5.845  0.0066 -0.3070  0.2786
  957POPC   C1A12621   4.040  11.665   6.183 -0.2323  0.2939  0.1124
  957POPC   D2A12622   4.119  11.477   6.628  0.0181 -0.3460  0.5141
  957POPC   C3A12623   3.893  11.404   6.929 -0.2932 -0.2159  0.2085
  957POPC   C4A12624   4.160  11.140   7.169  0.0412 -0.0422  0.2818
  957POPC   C1B12625   3.646  11.120   6.130 -0.1775  0.1317 -0.1488
  957POPC   C2B12626   3.785  11.113   6.590 -0.1246  0.5403  0.5206
  957POPC   C3B12627   3.723  10.893   6.921  0.0932  0.0046 -0.2686
  957POPC   C4B12628   3.521  10.648   7.386 -0.0566  0.0208  0.1128
  958POPC   NC312629   6.888   1.872   6.079  0.2216 -0.1846 -0.1951
  958POPC   PO412630   6.503   1.879   5.852 -0.1256  0.3786  0.1169
  958POPC   GL112631   6.248   1.813   6.280 -0.1021  0.2719  0.1624
  958POPC   GL212632   6.148   1.538   6.242 -0.1198  0.0540 -0.2754
  958POPC   C1A12633   6.239   1.848   6.765 -0.1746 -0.2765 -0.0869
  958POPC   D2A12634   6.092   1.776   7.221  0.1510  0.1801 -0.0268
  958POPC   C3A12635   6.130   2.036   7.517 -0.0037 -0.1159  0.1908
  958POPC   C4A12636   6.225   2.250   7.875  0.0914 -0.0695  0.1540
  958POPC   C1B12637   6.335   1.379   6.631  0.3241  0.1599 -0.3208
  958POPC   C2B12638   6.395   1.391   7.071  0.1515  0.0057  0.1395
  958POPC   C3B12639   6.312   1.484   7.553  0.0026  0.1037 -0.0068
  958POPC   C4B12640   6.358   1.706   7.969  0.0286  0.0970 -0.1688
  959POPC   NC312641   7.566   3.909   6.047 -0.1498  0.0620 -0.0391
  959POPC   PO412642   7.522   3.425   6.111 -0.0257  0.0749  0.0800
  959POPC   GL112643   7.516   3.650   6.515 -0.1444 -0.3194 -0.0431
  959POPC   GL212644   7.171   3.621   6.624  0.0693 -0.1773 -0.1368
  959POPC   C1A12645   7.491   3.514   6.945  0.0716  0.2278  0.1135
  959POPC   D2A12646   7.276   3.606   7.288 -0.0105 -0.2517  0.0267
  959POPC   C3A12647   7.364   3.335   7.633  0.0550 -0.1166  0.3911
  959POPC   C4A12648   7.355   3.261   8.000  0.0217  0.1779  0.1813
  959POPC   C1B12649   6.972   3.467   6.915  0.0042  0.1942 -0.1456
  959POPC   C2B12650   6.782   3.309   7.290  0.1174 -0.0764 -0.0178
  959POPC   C3B12651   6.737   3.377   7.722 -0.0107  0.1434 -0.2405
  959POPC   C4B12652   6.790   3.294   8.272 -0.1451 -0.0968  0.1131
  960POPC   NC312653   3.345   7.144   5.524  0.1125  0.2877  0.0588
  960POPC   PO412654   3.644   6.828   5.763 -0.1438  0.2884 -0.0047
  960POPC   GL112655   3.636   6.815   6.227 -0.1124  0.0600 -0.0198
  960POPC   GL212656   3.228   6.898   6.341 -0.0851 -0.1340  0.2618
  960POPC   C1A12657   3.568   6.564   6.578  0.0652  0.1146  0.0306
  960POPC   D2A12658   3.630   6.249   6.850  0.3094 -0.2156 -0.0567
  960POPC   C3A12659   3.834   5.852   6.984  0.1174 -0.1456 -0.1382
  960POPC   C4A12660   3.603   5.749   7.273  0.2019 -0.0642 -0.0829
  960POPC   C1B12661   3.149   7.147   6.735 -0.1544 -0.1077 -0.1968
  960POPC   C2B12662   3.465   7.406   6.991 -0.1786 -0.0835  0.0550
  960POPC   C3B12663   3.758   7.234   7.245  0.1069  0.0588 -0.2009
  960POPC   C4B12664   3.877   7.197   7.653  0.2637  0.1056  0.0322
  961POPC   NC312665   4.027  14.846   5.512 -0.3363  0.0707 -0.0259
  961POPC   PO412666   4.349  14.700   5.793 -0.1735 -0.3708 -0.2108
  961POPC   GL112667   4.562  14.645   6.166 -0.0250 -0.0130  0.3424
  961POPC   GL212668   4.368  14.893   6.463  0.0889 -0.0068  0.2377
  961POPC   C1A12669   4.349  14.362   6.599 -0.5098  0.2531 -0.1353
  961POPC   D2A12670   4.164  14.356   7.011 -0.0194  0.1060 -0.1824
  961POPC   C3A12671   4.260  14.144   7.342  0.1807  0.3122  0.2391
  961POPC   C4A12672   4.021  13.850   7.517  0.1399 -0.0200  0.1765
  961POPC   C1B12673   4.430  14.893   6.948  0.0489 -0.2319  0.0643
  961POPC   C2B12674   4.280  14.712   7.349 -0.0941 -0.0787 -0.2295
  961POPC   C3B12675   3.939  14.445   7.543  0.0145  0.1664 -0.2568
  961POPC   C4B12676   3.702  14.084   7.851  0.1640 -0.0577  0.0463
  962POPC   NC312677   9.839  16.996   5.846  0.1839 -0.3252  0.2192
  962POPC   PO412678   9.538  17.377   5.820 -0.1400  0.2416  0.1939
  962POPC   GL112679   9.518  17.307   6.168 -0.1078 -0.1121 -0.1719
  962POPC   GL212680   9.854  17.246   6.271  0.1007  0.1405  0.1047
  962POPC   C1A12681   9.349  17.338   6.570  0.0612 -0.1296  0.0210
  962POPC   D2A12682   9.392  17.251   7.095 -0.0594  0.2137 -0.0672
  962POPC   C3A12683   8.983  17.456   7.368 -0.1277 -0.0187  0.0817
  962POPC   C4A12684   9.049  17.675   7.688 -0.2522 -0.0137  0.0040
  962POPC   C1B12685   9.676  16.991   6.597  0.1640  0.0230  0.0443
  962POPC   C2B12686   9.476  16.803   6.875  0.0774  0.1321 -0.0009
  962POPC   C3B12687   9.388  16.464   7.162  0.0135  0.1817  0.0346
  962POPC   C4B12688   9.398  16.429   7.558 -0.1082  0.2881  0.1242
  963POPC   NC312689   2.558   4.273   5.890  0.1635 -0.1147 -0.2773
  963POPC   PO412690   2.579   3.852   5.868  0.1670 -0.1537 -0.0128
  963POPC   GL112691   2.951   3.917   6.154  0.0649 -0.2179  0.2950
  963POPC   GL212692   3.207   3.926   6.059 -0.4049  0.2321 -0.0773
  963POPC   C1A12693   2.875   4.056   6.590 -0.0976  0.1001  0.0508
  963POPC   D2A12694   2.914   3.851   6.940 -0.2126 -0.0762  0.1515
  963POPC   C3A12695   2.577   3.834   7.276 -0.0234  0.0533 -0.1147
  963POPC   C4A12696   2.516   3.732   7.682 -0.0850  0.2675 -0.0119
  963POPC   C1B12697   3.360   3.957   6.487 -0.3519  0.0650  0.3378
  963POPC   C2B12698   3.404   4.080   6.984  0.2360  0.3694 -0.2417
  963POPC   C3B12699   3.520   4.283   7.421 -0.2416  0.0799 -0.0357
  963POPC   C4B12700   3.650   4.520   7.713 -0.5607 -0.2112 -0.0436
  964POPC   NC312701   8.927   7.553   5.642 -0.0084 -0.0177 -0.0259
  964POPC   PO412702   8.522   7.792   5.610  0.1620  0.0216  0.2984
  964POPC   GL112703   8.329   8.040   5.883 -0.2552  0.0315 -0.3726
  964POPC   GL212704   8.561   8.011   6.113  0.2853 -0.0957 -0.0465
  964POPC   C1A12705   8.132   8.483   6.060  0.2464  0.2621 -0.1233
  964POPC   D2A12706   8.178   8.811   6.425 -0.1120 -0.1158 -0.0452
  964POPC   C3A12707   8.068   8.939   6.780 -0.0363  0.3341 -0.0846
  964POPC   C4A12708   8.006   8.813   7.232 -0.2679  0.2109 -0.1705
  964POPC   C1B12709   8.514   8.326   6.487 -0.0697  0.1130  0.1078
  964POPC   C2B12710   8.301   8.499   6.871  0.0617  0.1702 -0.1232
  964POPC   C3B12711   8.266   8.270   7.272  0.0987 -0.0354  0.2170
  964POPC   C4B12712   8.168   8.209   7.693  0.0123 -0.2965  0.0255
  965POPC   NC312713   0.581   4.280   5.465 -0.1461 -0.0415 -0.1211
  965POPC   PO412714   0.889   4.355   5.862  0.1212  0.1146 -0.1970
  965POPC   GL112715   0.960   4.000   6.106  0.0461  0.1870  0.0599
  965POPC   GL212716   0.959   3.666   6.134  0.0797 -0.0415  0.0471
  965POPC   C1A12717   0.723   3.885   6.535  0.0259 -0.2223  0.1110
  965POPC   D2A12718   0.406   3.927   6.848  0.0777 -0.3670 -0.4120
  965POPC   C3A12719   0.500   3.979   7.248 -0.0296  0.2688  0.2496
  965POPC   C4A12720   0.697   4.310   7.436  0.2228  0.1922 -0.4465
  965POPC   C1B12721   1.085   3.541   6.534 -0.0950  0.1028  0.0520
  965POPC   C2B12722   1.238   3.402   6.960  0.1145 -0.2902  0.0728
  965POPC   C3B12723   1.267   3.578   7.487  0.4906  0.1545  0.0624
  965POPC   C4B12724   1.278   3.576   7.952  0.1204 -0.1000 -0.0164
  966POPC   NC312725  11.504   6.572   6.112  0.1326  0.0545  0.0825
  966POPC   PO412726  11.927   6.885   5.985 -0.0392  0.0292  0.1506
  966POPC   GL112727  11.800   6.949   6.385 -0.4205 -0.0827  0.0566
  966POPC   GL212728  11.565   6.837   6.508  0.0909  0.0785 -0.1135
  966POPC   C1A12729  11.912   7.105   6.786 -0.0644  0.1643  0.1785
  966POPC   D2A12730  11.611   7.089   7.132  0.1026  0.1405  0.0096
  966POPC   C3A12731  11.431   7.066   7.644  0.0761  0.1350  0.1238
  966POPC   C4A12732  11.447   7.203   8.116 -0.2353 -0.0466  0.0024
  966POPC   C1B12733  11.399   7.259   6.633  0.1339 -0.0054 -0.0581
  966POPC   C2B12734  11.436   7.518   6.929 -0.0284  0.0728 -0.0258
  966POPC   C3B12735  11.502   7.531   7.341  0.2464  0.1193  0.2071
  966POPC   C4B12736  11.489   7.586   7.813  0.5249  0.0347 -0.0554
  967POPC   NC312737   5.813   3.848   6.098  0.3335 -0.0423  0.0705
  967POPC   PO412738   5.458   3.652   5.988  0.0756 -0.2328 -0.2094
  967POPC   GL112739   5.373   3.687   6.323  0.1692 -0.0635  0.0109
  967POPC   GL212740   5.195   3.968   6.420 -0.0108 -0.0190 -0.0019
  967POPC   C1A12741   5.311   3.701   6.838 -0.1228 -0.2584 -0.0010
  967POPC   D2A12742   4.911   3.343   6.915  0.0766 -0.0043 -0.1693
  967POPC   C3A12743   4.914   2.954   7.135  0.0290  0.0555  0.1687
  967POPC   C4A12744   4.861   2.544   7.046 -0.0785 -0.1018  0.2198
  967POPC   C1B12745   4.913   3.647   6.499 -0.0712  0.1076  0.1641
  967POPC   C2B12746   4.686   3.370   6.320 -0.1369  0.0203 -0.1501
  967POPC   C3B12747   4.318   3.148   6.351  0.2503  0.0940 -0.2319
  967POPC   C4B12748   4.047   3.032   6.760 -0.0011 -0.2975 -0.1445
  968POPC   NC312749  16.441   9.568   5.771 -0.4196 -0.1079 -0.0459
  968POPC   PO412750  16.915   9.535   5.828  0.0842 -0.0830 -0.1129
  968POPC   GL112751  16.745   9.478   6.151 -0.3178  0.2545 -0.3658
  968POPC   GL212752  17.004   9.506   6.384  0.1580  0.0979  0.0864
  968POPC   C1A12753  16.377   9.423   6.379  0.0856 -0.0182  0.0068
  968POPC   D2A12754  16.156   9.370   6.742  0.0639 -0.2824  0.2290
  968POPC   C3A12755  16.397   9.541   7.075  0.1730 -0.0415  0.2514
  968POPC   C4A12756  16.423   9.790   7.476  0.0005  0.1172  0.1566
  968POPC   C1B12757  16.727   9.737   6.708 -0.2166 -0.0028  0.1698
  968POPC   C2B12758  16.707   9.912   7.104 -0.1657  0.0304 -0.0979
  968POPC   C3B12759  16.943  10.054   7.521  0.4329  0.0841  0.1004
  968POPC   C4B12760  16.828  10.324   7.883  0.1203 -0.0439 -0.1977
  969POPC   NC312761  11.635  10.780   6.052 -0.1116 -0.2451  0.2127
  969POPC   PO412762  11.767  10.366   6.176 -0.3614  0.0876  0.0931
  969POPC   GL112763  11.364  10.468   6.351 -0.2628  0.1773 -0.0450
  969POPC   GL212764  11.261  10.774   6.469  0.2182  0.0345 -0.2794
  969POPC   C1A12765  11.220  10.297   6.724  0.3947 -0.1727  0.0156
  969POPC   D2A12766  11.156  10.478   7.047  0.0688 -0.4502  0.0946
  969POPC   C3A12767  11.183  10.325   7.495 -0.2554 -0.2087  0.1304
  969POPC   C4A12768  10.917  10.433   7.824  0.0497  0.1145 -0.2429
  969POPC   C1B12769  11.261  10.888   6.829  0.0541  0.0700  0.0498
  969POPC   C2B12770  11.110  10.926   7.228 -0.0224  0.0897 -0.2774
  969POPC   C3B12771  11.047  10.866   7.626 -0.3005  0.2505 -0.0141
  969POPC   C4B12772  11.023  11.006   8.072 -0.1719  0.1781  0.0147
  970POPC   NC312773  13.265   4.522   5.901 -0.5586  0.3366 -0.2392
  970POPC   PO412774  12.818   4.540   6.082  0.4569  0.0539  0.0441
  970POPC   GL112775  12.819   4.282   6.413  0.4338 -0.0753 -0.4166
  970POPC   GL212776  12.546   4.212   6.669 -0.3260 -0.1254 -0.0150
  970POPC   C1A12777  13.017   4.042   6.753 -0.1351 -0.1696  0.0629
  970POPC   D2A12778  12.952   3.760   7.133 -0.0418 -0.1328  0.0646
  970POPC   C3A12779  13.128   3.815   7.521  0.3359 -0.0305  0.1392
  970POPC   C4A12780  13.153   3.909   7.937  0.2055  0.2080  0.1716
  970POPC   C1B12781  12.510   3.936   6.989 -0.3116  0.0110  0.2360
  970POPC   C2B12782  12.230   3.929   7.346  0.2064  0.4755  0.1037
  970POPC   C3B12783  12.108   3.984   7.711 -0.5074 -0.1484 -0.0292
  970POPC   C4B12784  11.949   3.805   7.967 -0.0264  0.2450 -0.0594
  971POPC   NC312785  10.678   7.271   6.111  0.2335 -0.1136  0.1611
  971POPC   PO412786  10.998   7.487   6.136 -0.0450 -0.0353 -0.2116
  971POPC   GL112787  10.744   7.735   6.396 -0.0647 -0.1197 -0.2114
  971POPC   GL212788  10.449   7.519   6.513 -0.0332 -0.0523  0.2576
  971POPC   C1A12789  10.578   7.878   6.824  0.0865  0.0948  0.0574
  971POPC   D2A12790  10.546   8.082   7.189  0.1603 -0.0433  0.1023
  971POPC   C3A12791  10.309   7.909   7.417 -0.0268  0.2663  0.0373
  971POPC   C4A12792  10.181   7.638   7.734  0.1004 -0.0794  0.0564
  971POPC   C1B12793  10.187   7.497   6.855  0.1704  0.0824  0.0218
  971POPC   C2B12794  10.024   7.535   7.290  0.1472 -0.1297 -0.0969
  971POPC   C3B12795   9.796   7.743   7.488  0.0869  0.1299  0.0491
  971POPC   C4B12796   9.750   7.968   7.921  0.1189  0.2079 -0.1582
  972POPC   NC312797  14.707   9.508   6.046  0.1645 -0.0265 -0.0675
  972POPC   PO412798  14.894   9.761   6.282  0.3835 -0.2548  0.2413
  972POPC   GL112799  14.746   9.972   6.725  0.0939  0.0188 -0.0049
  972POPC   GL212800  14.811  10.342   6.827  0.0875 -0.0716  0.0791
  972POPC   C1A12801  14.436  10.022   6.939  0.3167 -0.0436  0.1461
  972POPC   D2A12802  14.229  10.009   7.356  0.0598 -0.1917  0.1676
  972POPC   C3A12803  14.380   9.944   7.644 -0.0601 -0.0588 -0.0469
  972POPC   C4A12804  14.709   9.714   7.862 -0.2949 -0.2617 -0.0033
  972POPC   C1B12805  14.742  10.385   7.202  0.2775  0.0014  0.3134
  972POPC   C2B12806  14.875  10.327   7.561  0.0527 -0.3867  0.0185
  972POPC   C3B12807  14.874  10.248   8.003 -0.2940 -0.0601 -0.0235
  972POPC   C4B12808  14.556  10.088   8.294 -0.2610  0.1404 -0.1412
  973POPC   NC312809  10.596   3.072   5.868 -0.0667  0.1007 -0.0193
  973POPC   PO412810  11.043   3.236   5.984  0.1624  0.1071 -0.1554
  973POPC   GL112811  10.691   3.243   6.341  0.1252 -0.0350  0.0260
  973POPC   GL212812  10.461   3.418   6.348 -0.2507  0.2377 -0.5178
  973POPC   C1A12813  10.719   3.164   6.773  0.0785  0.0909  0.1060
  973POPC   D2A12814  10.872   3.034   7.234 -0.0403 -0.1458 -0.1594
  973POPC   C3A12815  10.752   3.073   7.644 -0.0988  0.0734 -0.3921
  973POPC   C4A12816  10.458   2.960   7.929  0.3243  0.1277  0.2757
  973POPC   C1B12817  10.225   3.296   6.754 -0.1637 -0.0830  0.0010
  973POPC   C2B12818  10.154   3.038   7.167  0.2584  0.1250 -0.0201
  973POPC   C3B12819  10.367   2.800   7.393  0.0916  0.0705  0.2493
  973POPC   C4B12820  10.403   2.384   7.679 -0.5171 -0.1973 -0.0631
  974POPC   NC312821   1.887  15.318   6.177  0.0714 -0.2326  0.1918
  974POPC   PO412822   1.702  15.015   6.159 -0.2629  0.0578 -0.0795
  974POPC   GL112823   1.814  14.839   6.466  0.2172 -0.1999 -0.0566
  974POPC   GL212824   1.980  15.123   6.591 -0.2924 -0.2080  0.0338
  974POPC   C1A12825   2.016  14.727   6.839 -0.0332 -0.0026  0.0750
  974POPC   D2A12826   1.944  14.613   7.218  0.1550 -0.0816  0.0018
  974POPC   C3A12827   2.065  14.625   7.646  0.1055 -0.0089  0.0465
  974POPC   C4A12828   1.982  14.763   8.038 -0.3253  0.0253  0.4708
  974POPC   C1B12829   1.750  15.161   6.934 -0.0029  0.1019  0.1445
  974POPC   C2B12830   1.883  15.042   7.375 -0.1255 -0.1048  0.0677
  974POPC   C3B12831   1.926  15.234   7.731  0.2927  0.1990  0.3659
  974POPC   C4B12832   2.242  15.223   8.113 -0.0459 -0.1920 -0.0856
  975POPC   NC312833  11.210   5.221   6.124  0.0717 -0.0810 -0.4038
  975POPC   PO412834  11.069   4.978   6.301 -0.0676 -0.1036 -0.1509
  975POPC   GL112835  10.885   4.960   6.734  0.1779 -0.4117 -0.1683
  975POPC   GL212836  10.648   5.102   6.811  0.1447 -0.2368 -0.0375
  975POPC   C1A12837  10.941   4.956   7.166 -0.2373 -0.0748 -0.0023
  975POPC   D2A12838  10.724   4.820   7.541  0.1386  0.0010  0.1557
  975POPC   C3A12839  10.932   4.900   7.872  0.0792 -0.0935  0.3554
  975POPC   C4A12840  10.944   4.521   8.186  0.2772  0.2889  0.0595
  975POPC   C1B12841  10.565   5.249   7.159  0.0040  0.1271  0.2213
  975POPC   C2B12842  10.739   5.287   7.615  0.2753  0.3706  0.0063
  975POPC   C3B12843  10.756   5.352   8.017  0.0593  0.2394 -0.0202
  975POPC   C4B12844  10.929   5.317   8.417  0.2123  0.0364  0.3472
  976POPC   NC312845   2.056  16.107   6.059 -0.2706  0.1095  0.4791
  976POPC   PO412846   2.219  15.703   6.262 -0.2250 -0.2276 -0.1100
  976POPC   GL112847   1.995  16.009   6.528  0.1946 -0.0745 -0.0003
  976POPC   GL212848   1.950  16.322   6.524  0.1603  0.1608 -0.0124
  976POPC   C1A12849   2.000  15.965   6.997 -0.2460 -0.2265  0.0526
  976POPC   D2A12850   2.396  16.156   7.142  0.0640 -0.0446  0.1733
  976POPC   C3A12851   2.421  16.150   7.528 -0.1148 -0.2849 -0.1291
  976POPC   C4A12852   2.543  15.971   7.819  0.1077 -0.0163 -0.1104
  976POPC   C1B12853   2.264  16.588   6.824  0.0948 -0.1201 -0.4743
  976POPC   C2B12854   2.338  16.606   7.331  0.1012 -0.0516  0.3793
  976POPC   C3B12855   2.163  16.526   7.706 -0.1868  0.1080  0.0964
  976POPC   C4B12856   2.214  16.322   8.073 -0.1276 -0.1040 -0.0331
  977POPC   NC312857  15.519   6.823   6.149 -0.1087  0.2901 -0.1537
  977POPC   PO412858  15.461   6.568   6.318 -0.1232  0.0297  0.0605
  977POPC   GL112859  15.426   6.385   6.683  0.3426 -0.2639 -0.2924
  977POPC   GL212860  15.207   6.112   6.775 -0.0944  0.3080 -0.1480
  977POPC   C1A12861  15.204   6.517   7.161  0.0814 -0.0743 -0.4621
  977POPC   D2A12862  15.275   6.715   7.536  0.0492  0.1855  0.2128
  977POPC   C3A12863  15.209   6.546   7.844 -0.0687 -0.1978  0.0902
  977POPC   C4A12864  14.786   6.650   8.000  0.1501 -0.0778  0.0526
  977POPC   C1B12865  15.172   6.028   7.248 -0.0079 -0.0855  0.1999
  977POPC   C2B12866  15.093   6.091   7.557  0.0383 -0.0058 -0.0276
  977POPC   C3B12867  14.900   6.202   7.945  0.3136  0.1462  0.0141
  977POPC   C4B12868  14.872   5.995   8.266 -0.1445  0.3411  0.0443
  978POPC   NC312869   2.903  14.640   5.740  0.1189 -0.1202  0.3800
  978POPC   PO412870   3.085  14.246   5.787 -0.0957 -0.0194 -0.4029
  978POPC   GL112871   2.990  14.291   6.219  0.2561  0.1973 -0.1324
  978POPC   GL212872   2.734  14.383   6.246 -0.0320 -0.0721  0.0361
  978POPC   C1A12873   2.847  14.081   6.652 -0.2547 -0.3741 -0.3380
  978POPC   D2A12874   2.588  13.807   6.920 -0.2161  0.0046 -0.0124
  978POPC   C3A12875   2.447  13.770   7.374 -0.0492 -0.1117  0.1328
  978POPC   C4A12876   2.330  13.747   7.761 -0.1370 -0.0947  0.0060
  978POPC   C1B12877   2.876  14.584   6.569 -0.1559 -0.0851 -0.0793
  978POPC   C2B12878   2.914  14.693   7.015 -0.3126 -0.2836 -0.3451
  978POPC   C3B12879   3.166  14.728   7.373  0.0260  0.0082  0.1823
  978POPC   C4B12880   3.562  14.800   7.426 -0.1517 -0.0778  0.1275
  979POPC   NC312881  15.310   3.847   6.105  0.0312  0.3016  0.0785
  979POPC   PO412882  15.494   4.321   6.146  0.0017 -0.0313 -0.0363
  979POPC   GL112883  15.691   4.466   6.543  0.1754 -0.2485  0.2498
  979POPC   GL212884  15.677   4.866   6.498  0.0064 -0.4797 -0.3681
  979POPC   C1A12885  15.793   4.217   6.930  0.2103  0.0211  0.2529
  979POPC   D2A12886  16.030   4.127   7.320 -0.0573 -0.1857  0.1026
  979POPC   C3A12887  15.941   4.018   7.775  0.1794  0.0483  0.3685
  979POPC   C4A12888  15.682   3.972   8.238 -0.1514  0.0661 -0.1495
  979POPC   C1B12889  15.824   4.714   6.940  0.1020 -0.2035 -0.3013
  979POPC   C2B12890  16.021   4.868   7.310  0.0184 -0.0136 -0.0769
  979POPC   C3B12891  16.169   4.938   7.744  0.2921 -0.3231 -0.0859
  979POPC   C4B12892  15.971   4.892   8.102 -0.2004 -0.3329  0.0104
  980POPC   NC312893   6.826  11.626   5.328  0.1568 -0.1754 -0.1842
  980POPC   PO412894   6.646  11.250   5.504 -0.0453 -0.3106  0.1477
  980POPC   GL112895   6.830  11.364   5.859 -0.3358  0.0471 -0.1701
  980POPC   GL212896   6.866  11.687   5.862  0.0017 -0.1219  0.0279
  980POPC   C1A12897   6.860  11.181   6.264 -0.0693 -0.0443 -0.1301
  980POPC   D2A12898   6.898  11.147   6.708 -0.0361 -0.2245 -0.1391
  980POPC   C3A12899   6.918  10.813   6.924  0.1675  0.2198 -0.0285
  980POPC   C4A12900   6.951  10.718   7.348 -0.0884  0.3168  0.0597
  980POPC   C1B12901   6.815  11.899   6.292 -0.0707 -0.0939  0.0305
  980POPC   C2B12902   6.772  12.020   6.660  0.0481  0.3350 -0.1215
  980POPC   C3B12903   6.722  11.753   7.048 -0.1826 -0.4458 -0.1949
  980POPC   C4B12904   6.698  12.051   7.524  0.0692  0.2024  0.0188
  981POPC   NC312905  10.793   4.382   6.206 -0.0902 -0.0572  0.0340
  981POPC   PO412906  10.543   4.189   5.854 -0.1377 -0.1316  0.0471
  981POPC   GL112907  10.529   3.962   6.271 -0.0113 -0.1410  0.2076
  981POPC   GL212908  10.827   3.798   6.192 -0.0004 -0.2216  0.1544
  981POPC   C1A12909  10.467   3.801   6.617  0.1413  0.0030 -0.2224
  981POPC   D2A12910  10.188   3.756   6.981 -0.0552  0.3418  0.1665
  981POPC   C3A12911  10.241   3.836   7.316  0.3485 -0.0994 -0.1550
  981POPC   C4A12912  10.275   3.842   7.753  0.0887 -0.0039  0.2040
  981POPC   C1B12913  10.977   3.818   6.547  0.0690  0.1261 -0.0595
  981POPC   C2B12914  10.849   3.593   6.981 -0.0283 -0.1691 -0.2648
  981POPC   C3B12915  10.529   3.451   7.234  0.0858  0.3227  0.1097
  981POPC   C4B12916  10.342   3.396   7.566  0.0630  0.0011  0.1571
  982YOPC   NC312917  16.626  17.125   6.598  0.0384 -0.2981 -0.0358
  982YOPC   PO412918  16.210  17.243   6.627 -0.0382 -0.3286  0.0032
  982YOPC   GL112919  16.324  17.320   6.990  0.1319 -0.0418 -0.2117
  982YOPC   GL212920  16.286  17.092   7.103 -0.1146  0.0306 -0.1512
  982YOPC   C1A12921  16.387  17.551   7.374  0.0555 -0.0222  0.1619
  982YOPC   D2A12922  16.239  17.707   7.695  0.2513 -0.1763 -0.0889
  982YOPC   C3A12923  16.479  18.000   7.909 -0.0935 -0.0353 -0.1348
  982YOPC   C4A12924  16.651  18.410   8.126 -0.5290 -0.2064  0.1855
  982YOPC   C1B12925  16.084  17.160   7.424 -0.1993 -0.1246  0.0789
  982YOPC   C2B12926  16.036  17.061   7.731  0.0298  0.0271 -0.0536
  982YOPC   D3B12927  16.124  17.254   8.084  0.1170  0.0815 -0.1121
  982YOPC   C4B12928  16.325  17.251   8.456  0.1348 -0.0917 -0.0634
  983YOPC   NC312929  13.358  14.483   5.646  0.1743  0.1555  0.3745
  983YOPC   PO412930  13.541  14.785   5.951  0.1363 -0.0396 -0.0928
  983YOPC   GL112931  13.477  14.837   6.388  0.2123  0.0967  0.3527
  983YOPC   GL212932  13.526  15.120   6.595 -0.1573 -0.1610  0.1570
  983YOPC   C1A12933  13.235  14.682   6.694 -0.2048 -0.1294 -0.0918
  983YOPC   D2A12934  12.775  14.592   6.892  0.0840 -0.1379  0.3091
  983YOPC   C3A12935  12.640  14.499   7.286 -0.4276 -0.0197 -0.0484
  983YOPC   C4A12936  12.268  14.345   7.595  0.0742 -0.2111 -0.1778
  983YOPC   C1B12937  13.387  15.079   7.018 -0.2072  0.0312 -0.1810
  983YOPC   C2B12938  13.370  14.733   7.365  0.3141 -0.4104  0.1655
  983YOPC   D3B12939  13.508  14.775   7.771  0.0078 -0.1869  0.2045
  983YOPC   C4B12940  13.854  14.777   8.062 -0.1956 -0.1192 -0.2193
  984YOPC   NC312941   6.101   8.466   5.488  0.1538  0.1122 -0.3962
  984YOPC   PO412942   6.391   8.688   5.640  0.2675 -0.3852  0.2992
  984YOPC   GL112943   6.015   8.660   5.920 -0.1853  0.0961 -0.0923
  984YOPC   GL212944   6.276   8.567   6.182 -0.2804  0.2285  0.2436
  984YOPC   C1A12945   5.791   8.603   6.356  0.2401 -0.2844 -0.0493
  984YOPC   D2A12946   5.513   8.619   6.655  0.2780 -0.0889  0.2307
  984YOPC   C3A12947   5.418   8.635   7.121 -0.0346 -0.1206  0.0066
  984YOPC   C4A12948   5.374   8.357   7.554 -0.2158  0.1120  0.0922
  984YOPC   C1B12949   6.204   8.596   6.625  0.1446 -0.0356  0.1687
  984YOPC   C2B12950   6.286   8.468   7.034 -0.0207 -0.0695 -0.3426
  984YOPC   D3B12951   6.459   8.748   7.394 -0.1925  0.1022 -0.1215
  984YOPC   C4B12952   6.788   8.912   7.433 -0.0830 -0.0322  0.2130
  985YOPC   NC312953  15.712  10.033   5.952 -0.0125  0.2412 -0.1038
  985YOPC   PO412954  16.181   9.994   5.893 -0.0845  0.0557 -0.0747
  985YOPC   GL112955  16.081  10.211   6.304  0.1156  0.0710 -0.0276
  985YOPC   GL212956  15.679  10.251   6.400 -0.1325 -0.1288  0.2348
  985YOPC   C1A12957  16.218  10.522   6.618  0.1770  0.0159 -0.1478
  985YOPC   D2A12958  15.992  10.870   6.825 -0.1527  0.2594 -0.4531
  985YOPC   C3A12959  15.568  10.750   7.046 -0.0548  0.2624  0.0159
  985YOPC   C4A12960  15.225  10.400   7.100 -0.0828 -0.0208  0.0412
  985YOPC   C1B12961  15.832  10.361   6.831 -0.0667  0.4586  0.1423
  985YOPC   C2B12962  15.752  10.290   7.256  0.0958 -0.1712 -0.1676
  985YOPC   D3B12963  15.375  10.047   7.403 -0.0211 -0.2054  0.2340
  985YOPC   C4B12964  15.148   9.909   7.763  0.0803 -0.1589 -0.2834
  986YOPC   NC312965   4.225  15.740   5.592  0.0959 -0.2092 -0.1392
  986YOPC   PO412966   3.868  15.591   5.804 -0.0349  0.1424 -0.0936
  986YOPC   GL112967   4.140  15.671   6.073  0.0847 -0.0977 -0.0811
  986YOPC   GL212968   4.376  15.952   6.010 -0.0908  0.0226  0.1122
  986YOPC   C1A12969   4.258  15.693   6.467  0.0348 -0.0394  0.3843
  986YOPC   D2A12970   4.548  15.901   6.680 -0.3724  0.1859  0.0412
  986YOPC   C3A12971   4.398  15.875   7.154 -0.0071 -0.1865  0.2043
  986YOPC   C4A12972   4.236  16.227   7.198  0.0260  0.0375  0.2973
  986YOPC   C1B12973   4.463  16.289   6.361 -0.1619 -0.3506 -0.1121
  986YOPC   C2B12974   4.418  16.321   6.776 -0.3522  0.0490 -0.2174
  986YOPC   D3B12975   4.694  16.358   7.182 -0.0042  0.0151 -0.0160
  986YOPC   C4B12976   4.897  15.994   7.243 -0.3615  0.2717  0.2056
  987YOPC   NC312977   7.205  16.840   5.242  0.0159  0.2278 -0.1075
  987YOPC   PO412978   7.405  16.506   5.547  0.0921  0.0756  0.3294
  987YOPC   GL112979   7.646  16.464   5.857  0.2420 -0.0947 -0.0714
  987YOPC   GL212980   7.822  16.143   5.783  0.0062 -0.0782  0.2146
  987YOPC   C1A12981   7.592  16.361   6.242  0.1376 -0.0255  0.2281
  987YOPC   D2A12982   7.277  16.335   6.530 -0.0017 -0.1422  0.0282
  987YOPC   C3A12983   7.580  16.268   6.908  0.0085  0.1053 -0.1637
  987YOPC   C4A12984   7.729  15.980   7.260  0.1244  0.2068 -0.1568
  987YOPC   C1B12985   7.884  15.889   6.222  0.1372  0.0843 -0.2784
  987YOPC   C2B12986   7.935  16.107   6.642  0.2193 -0.0387 -0.2989
  987YOPC   D3B12987   8.185  16.209   6.984  0.0899  0.2564 -0.1357
  987YOPC   C4B12988   8.175  16.196   7.398  0.3323  0.2468  0.2717
  988YOPC   NC312989  15.830   1.717   5.803 -0.0611 -0.1035 -0.0778
  988YOPC   PO412990  15.537   1.711   6.113  0.0844 -0.0271  0.0684
  988YOPC   GL112991  15.735   1.375   6.531 -0.1093 -0.2669 -0.3087
  988YOPC   GL212992  16.095   1.238   6.547  0.0351  0.0605 -0.1513
  988YOPC   C1A12993  15.853   1.367   6.942  0.1098  0.1061 -0.0162
  988YOPC   D2A12994  15.931   1.154   7.367  0.1262  0.1741  0.0666
  988YOPC   C3A12995  15.729   1.184   7.818 -0.1521 -0.1020 -0.0694
  988YOPC   C4A12996  15.668   1.368   8.325 -0.0478 -0.1050 -0.0659
  988YOPC   C1B12997  15.936   0.897   6.754 -0.2938  0.1866 -0.0986
  988YOPC   C2B12998  15.941   0.601   6.977  0.3124  0.0632 -0.2647
  988YOPC   D3B12999  15.903   0.613   7.378 -0.0527  0.0473 -0.2490
  988YOPC   C4B13000  15.728   0.584   7.736 -0.2207  0.1641 -0.2471
  989YOPC   NC313001   1.435   8.872   6.095 -0.2946  0.0626  0.0875
  989YOPC   PO413002   1.873   9.084   6.128  0.1642  0.0539 -0.0072
  989YOPC   GL113003   2.111   9.069   6.452 -0.2054  0.1188 -0.2653
  989YOPC   GL213004   2.335   9.317   6.220  0.0679  0.0584  0.1022
  989YOPC   C1A13005   2.377   8.995   6.722  0.1655  0.2654 -0.2861
  989YOPC   D2A13006   2.471   9.322   7.064  0.0493 -0.0190  0.0319
  989YOPC   C3A13007   2.053   9.372   7.040 -0.0006  0.0770  0.5656
  989YOPC   C4A13008   1.889   9.494   6.642 -0.1171 -0.2371  0.4898
  989YOPC   C1B13009   2.467   9.568   6.598  0.1589  0.1339  0.1604
  989YOPC   C2B13010   2.456   9.900   6.959 -0.5076  0.3710  0.0365
  989YOPC   D3B13011   2.442   9.724   7.356 -0.0186 -0.0737 -0.1363
  989YOPC   C4B13012   2.605   9.412   7.647 -0.2249 -0.2108 -0.2701
  990YOPC   NC313013   2.672   8.505   6.113 -0.4064  0.0299 -0.2041
  990YOPC   PO413014   2.921   8.088   5.906 -0.1161  0.1043  0.1066
  990YOPC   GL113015   3.088   8.213   6.275 -0.2896 -0.0241 -0.1699
  990YOPC   GL213016   3.410   8.377   6.245 -0.0332 -0.2904  0.1434
  990YOPC   C1A13017   3.205   8.315   6.671  0.1079 -0.3060 -0.1154
  990YOPC   D2A13018   3.392   8.180   6.845  0.0406 -0.3816 -0.1433
  990YOPC   C3A13019   3.541   8.234   7.261  0.1144  0.0733 -0.0627
  990YOPC   C4A13020   3.829   8.134   7.651  0.0760 -0.1875 -0.2240
  990YOPC   C1B13021   3.567   8.642   6.597 -0.1010  0.2041  0.0931
  990YOPC   C2B13022   3.414   8.653   7.009 -0.0080 -0.2043 -0.1523
  990YOPC   D3B13023   3.544   8.929   7.277 -0.1444  0.3534 -0.0222
  990YOPC   C4B13024   3.542   9.299   7.488 -0.0902  0.1374 -0.2296
  991YOPC   NC313025   7.824   8.774   5.474  0.3609 -0.2577 -0.0555
  991YOPC   PO413026   7.476   8.503   5.694 -0.1790  0.1244  0.0882
  991YOPC   GL113027   7.193   8.588   6.022  0.0249  0.0612 -0.1707
  991YOPC   GL213028   7.013   8.843   5.829 -0.0682 -0.2418 -0.1148
  991YOPC   C1A13029   7.242   8.670   6.512  0.0311  0.2827 -0.1548
  991YOPC   D2A13030   7.550   8.758   6.840  0.1406 -0.0389  0.0422
  991YOPC   C3A13031   7.578   9.103   7.182 -0.0678 -0.0166 -0.1746
  991YOPC   C4A13032   7.443   9.465   7.356 -0.1408 -0.1174 -0.0511
  991YOPC   C1B13033   7.186   9.066   6.176 -0.0973  0.0321 -0.0789
  991YOPC   C2B13034   7.034   9.115   6.638 -0.2462  0.2280 -0.0124
  991YOPC   D3B13035   7.084   8.926   6.930 -0.1510 -0.0767 -0.2221
  991YOPC   C4B13036   7.203   8.797   7.226 -0.2735 -0.0309  0.2152
  992YOPC   NC313037  12.711   8.619   5.660 -0.2077 -0.1598  0.1278
  992YOPC   PO413038  12.726   8.214   5.954 -0.3238 -0.0338 -0.0377
  992YOPC   GL113039  12.874   8.230   6.440 -0.0679  0.0352 -0.0667
  992YOPC   GL213040  12.609   8.376   6.555  0.1969 -0.0891  0.4815
  992YOPC   C1A13041  12.974   8.002   6.803 -0.0211  0.0174  0.2400
  992YOPC   D2A13042  12.762   8.090   7.168 -0.2516 -0.0198  0.1076
  992YOPC   C3A13043  12.790   8.044   7.662  0.1376 -0.2841 -0.0585
  992YOPC   C4A13044  12.719   7.773   7.989 -0.1740 -0.0690 -0.0499
  992YOPC   C1B13045  12.829   8.530   7.012 -0.0656 -0.3265  0.0304
  992YOPC   C2B13046  12.908   8.494   7.450 -0.1347  0.0182  0.2006
  992YOPC   D3B13047  12.738   8.501   7.847 -0.0775 -0.0622 -0.5796
  992YOPC   C4B13048  12.799   8.265   8.166 -0.0271  0.2293 -0.0014
  993YOPC   NC313049  14.952  11.586   6.182 -0.0318  0.1568  0.2168
  993YOPC   PO413050  15.179  11.945   6.428 -0.1291 -0.1908 -0.1991
  993YOPC   GL113051  15.154  12.182   6.771  0.0874 -0.1723 -0.1329
  993YOPC   GL213052  15.466  12.331   6.914 -0.1627 -0.2156  0.0807
  993YOPC   C1A13053  15.186  12.195   7.340 -0.2209  0.1513  0.1558
  993YOPC   D2A13054  15.247  12.346   7.783  0.0035  0.0953 -0.3969
  993YOPC   C3A13055  15.263  12.152   8.212  0.0803  0.0829  0.0767
  993YOPC   C4A13056  15.083  12.438   8.484 -0.3276  0.0356  0.0669
  993YOPC   C1B13057  15.671  12.309   7.346 -0.1375 -0.2478  0.1063
  993YOPC   C2B13058  15.971  12.108   7.540 -0.1855 -0.0077 -0.0114
  993YOPC   D3B13059  16.081  11.936   7.908 -0.1766 -0.1288 -0.2511
  993YOPC   C4B13060  15.984  11.527   8.196  0.2005 -0.1678  0.0640
  994YOPC   NC313061  13.514  15.270   6.063 -0.0045  0.0531 -0.0357
  994YOPC   PO413062  13.708  15.628   6.011  0.1995 -0.1623 -0.1060
  994YOPC   GL113063  13.484  15.652   6.367  0.1769 -0.1357 -0.0784
  994YOPC   GL213064  13.321  15.860   6.484 -0.0730  0.2593 -0.2506
  994YOPC   C1A13065  13.548  15.555   6.870  0.2275 -0.1165 -0.3100
  994YOPC   D2A13066  13.622  15.495   7.228  0.0072 -0.0675 -0.1003
  994YOPC   C3A13067  13.472  15.250   7.529 -0.0506 -0.2512 -0.3003
  994YOPC   C4A13068  13.613  15.226   8.056 -0.0203 -0.2265 -0.2498
  994YOPC   C1B13069  13.517  16.035   6.849  0.0080  0.0329 -0.0864
  994YOPC   C2B13070  13.405  16.085   7.237 -0.1272 -0.0769 -0.0364
  994YOPC   D3B13071  13.188  16.393   7.477 -0.1032 -0.0318  0.0380
  994YOPC   C4B13072  13.006  16.729   7.715 -0.0915  0.1402 -0.1133
  995YOPC   NC313073   6.293  13.337   5.088 -0.0232  0.2789  0.0409
  995YOPC   PO413074   6.531  13.573   5.300  0.3279  0.3080 -0.3255
  995YOPC   GL113075   6.722  13.639   5.669  0.0095  0.0620  0.1351
  995YOPC   GL213076   6.841  13.431   5.848 -0.0552 -0.0553 -0.0808
  995YOPC   C1A13077   7.016  13.918   5.768  0.2530 -0.0938 -0.0016
  995YOPC   D2A13078   7.214  14.307   5.794 -0.1186  0.0370  0.0326
  995YOPC   C3A13079   7.655  14.201   5.838 -0.0956 -0.1150  0.0720
  995YOPC   C4A13080   8.024  14.280   5.809 -0.2513  0.0284  0.0738
  995YOPC   C1B13081   6.968  13.642   6.242 -0.1093 -0.0993  0.1849
  995YOPC   C2B13082   7.359  13.604   6.494 -0.1283 -0.5120 -0.0422
  995YOPC   D3B13083   7.268  13.766   6.938  0.2384  0.1839  0.1726
  995YOPC   C4B13084   7.243  14.121   7.331  0.1867  0.0060 -0.1447
  996YOPC   NC313085   3.975  10.266   5.326 -0.0850 -0.0760  0.0253
  996YOPC   PO413086   4.072  10.681   5.451 -0.0020 -0.2086  0.2583
  996YOPC   GL113087   4.079  10.435   5.768  0.0366 -0.1295  0.2291
  996YOPC   GL213088   3.786  10.416   5.943 -0.0379  0.1167  0.1489
  996YOPC   C1A13089   4.271  10.295   6.192 -0.1883  0.0589  0.0522
  996YOPC   D2A13090   4.366  10.579   6.415  0.1491  0.0601 -0.1496
  996YOPC   C3A13091   4.682  10.405   6.664 -0.0191  0.1618  0.2989
  996YOPC   C4A13092   4.724  10.414   7.061 -0.0682  0.4499  0.2932
  996YOPC   C1B13093   3.845  10.047   6.239 -0.0528  0.1479  0.2104
  996YOPC   C2B13094   4.055  10.127   6.592  0.3704 -0.1324  0.1088
  996YOPC   D3B13095   4.148  10.441   6.940  0.2838 -0.0523  0.0382
  996YOPC   C4B13096   4.010  10.654   7.301 -0.1561 -0.0674 -0.2726
  997YOPC   NC313097   5.651  17.802   5.621 -0.4684 -0.3319 -0.0195
  997YOPC   PO413098   5.665  18.246   5.646  0.0956 -0.3771  0.2567
  997YOPC   GL113099   5.922  18.172   6.035 -0.0263 -0.0673  0.1477
  997YOPC   GL213100   6.228  17.985   5.944  0.1900 -0.2572 -0.2467
  997YOPC   C1A13101   5.925  17.934   6.369 -0.4143  0.1163  0.2107
  997YOPC   D2A13102   5.620  17.944   6.735  0.2129 -0.2544  0.1109
  997YOPC   C3A13103   5.664  18.137   7.127  0.2125  0.1549  0.0405
  997YOPC   C4A13104   5.846  18.123   7.509  0.1057  0.0284  0.0937
  997YOPC   C1B13105   6.343  17.620   6.161 -0.0873  0.0344  0.0864
  997YOPC   C2B13106   6.172  17.199   6.216 -0.0488  0.0191 -0.2107
  997YOPC   D3B13107   6.207  16.924   6.703  0.0539 -0.0252 -0.0959
  997YOPC   C4B13108   6.415  16.919   7.082 -0.2215 -0.1819  0.0155
  998YOPC   NC313109   9.101   1.951   5.584 -0.1304 -0.1497  0.0682
  998YOPC   PO413110   8.766   1.769   5.664 -0.1386 -0.2793 -0.1946
  998YOPC   GL113111   8.961   1.707   6.012 -0.0784 -0.1017  0.0227
  998YOPC   GL213112   8.997   1.416   6.188  0.1044 -0.0265  0.2450
  998YOPC   C1A13113   9.336   1.640   6.405 -0.0088 -0.0804 -0.1911
  998YOPC   D2A13114   9.262   1.509   6.863 -0.0277 -0.1829  0.1863
  998YOPC   C3A13115   9.319   1.591   7.258 -0.0555  0.0134  0.0352
  998YOPC   C4A13116   9.668   1.772   7.545 -0.0029  0.0187 -0.1122
  998YOPC   C1B13117   8.977   1.178   6.505 -0.0463  0.1870  0.0438
  998YOPC   C2B13118   8.890   1.168   6.944  0.1345 -0.2076  0.2247
  998YOPC   D3B13119   8.850   1.460   7.245  0.0910  0.1704 -0.1960
  998YOPC   C4B13120   9.182   1.520   7.703 -0.3680  0.0095 -0.1537
  999YOPC   NC313121   8.613  12.743   5.050 -0.2502 -0.2231  0.0442
  999YOPC   PO413122   8.515  12.831   5.551 -0.1240  0.0369  0.2493
  999YOPC   GL113123   8.286  12.880   5.909  0.0862  0.3776  0.1426
  999YOPC   GL213124   8.513  13.000   6.172 -0.0532  0.0604  0.4910
  999YOPC   C1A13125   8.024  12.831   6.200  0.2929 -0.0726 -0.1323
  999YOPC   D2A13126   7.921  12.611   6.639  0.0991  0.0091  0.1451
  999YOPC   C3A13127   8.199  12.408   6.877  0.2726 -0.1130  0.1970
  999YOPC   C4A13128   8.464  12.602   7.235  0.0447 -0.0741  0.1079
  999YOPC   C1B13129   8.823  12.826   6.333 -0.2420 -0.1443  0.0438
  999YOPC   C2B13130   8.931  12.868   6.701  0.0861  0.2897 -0.0138
  999YOPC   D3B13131   8.894  12.899   7.163  0.0758  0.0931 -0.0451
  999YOPC   C4B13132   8.757  12.904   7.613  0.2597 -0.2271  0.1734
 1000YOPC   NC313133  12.830   5.924   5.827 -0.1207 -0.1641 -0.2437
 1000YOPC   PO413134  12.572   5.518   5.906  0.1439  0.0703  0.3371
 1000YOPC   GL113135  12.617   5.506   6.353  0.1031  0.1722  0.2718
 1000YOPC   GL213136  12.339   5.714   6.563  0.0701  0.0269  0.1887
 1000YOPC   C1A13137  12.849   5.743   6.641 -0.0218  0.2355 -0.2586
 1000YOPC   D2A13138  12.754   5.933   6.910 -0.1137 -0.1688  0.1467
 1000YOPC   C3A13139  12.687   5.764   7.254  0.0468 -0.2967  0.1600
 1000YOPC   C4A13140  12.768   5.737   7.657  0.1264  0.0384 -0.0591
 1000YOPC   C1B13141  12.331   5.694   6.885 -0.1810  0.0484 -0.0083
 1000YOPC   C2B13142  12.230   5.494   7.198  0.2151 -0.0130  0.1478
 1000YOPC   D3B13143  12.226   5.756   7.494 -0.1434  0.0965  0.1506
 1000YOPC   C4B13144  11.982   5.905   7.814  0.2733  0.1135 -0.0607
 1001YOPC   NC313145  14.281   8.819   6.186  0.3870  0.0379 -0.1233
 1001YOPC   PO413146  14.638   9.080   6.191 -0.0315 -0.1384 -0.3006
 1001YOPC   GL113147  14.786   8.980   6.562 -0.0772 -0.2199 -0.1698
 1001YOPC   GL213148  14.475   8.870   6.705 -0.1577  0.0891  0.1199
 1001YOPC   C1A13149  14.831   9.259   6.952 -0.3678  0.1156  0.1550
 1001YOPC   D2A13150  15.211   9.451   6.860  0.2223 -0.0549  0.0143
 1001YOPC   C3A13151  15.327   9.566   7.380 -0.0974 -0.2167 -0.1300
 1001YOPC   C4A13152  15.625   9.721   7.706 -0.0290  0.1118 -0.2223
 1001YOPC   C1B13153  14.521   8.929   7.043  0.2771 -0.0900 -0.2489
 1001YOPC   C2B13154  14.504   8.976   7.500 -0.1417 -0.3853 -0.0170
 1001YOPC   D3B13155  14.261   9.013   7.809  0.2608  0.1236 -0.2401
 1001YOPC   C4B13156  14.015   8.891   8.140 -0.2153  0.0397 -0.1540
 1002YOPC   NC313157  16.832  11.710   6.501 -0.3393  0.1510  0.0663
 1002YOPC   PO413158  16.546  11.494   6.199  0.0702 -0.0692 -0.1849
 1002YOPC   GL113159  16.646  11.251   6.627 -0.1099 -0.1888 -0.1720
 1002YOPC   GL213160  16.346  11.193   6.704  0.1361 -0.3547 -0.1010
 1002YOPC   C1A13161  16.696  11.146   7.097 -0.1173  0.3575  0.2344
 1002YOPC   D2A13162  16.339  11.081   7.394 -0.1245 -0.1724  0.0404
 1002YOPC   C3A13163  16.133  11.042   7.818  0.2020 -0.2534  0.1365
 1002YOPC   C4A13164  15.968  10.981   8.264 -0.2706 -0.0893 -0.1571
 1002YOPC   C1B13165  16.336  11.430   7.087  0.4114  0.0678  0.2474
 1002YOPC   C2B13166  16.585  11.535   7.469 -0.2721  0.1281  0.1053
 1002YOPC   D3B13167  16.447  11.563   7.879  0.2002 -0.0901  0.2765
 1002YOPC   C4B13168  16.496  11.187   8.168  0.0204 -0.1413  0.0477
 1003YOPC   NC313169  15.720  15.474   6.298  0.0616  0.0728 -0.2182
 1003YOPC   PO413170  15.278  15.291   6.340 -0.1379 -0.1739 -0.4505
 1003YOPC   GL113171  15.313  15.391   6.798 -0.2721 -0.1412  0.1091
 1003YOPC   GL213172  15.004  15.375   6.822  0.2275 -0.2022 -0.3533
 1003YOPC   C1A13173  15.254  15.329   7.269 -0.0057 -0.0324 -0.0007
 1003YOPC   D2A13174  15.435  15.252   7.679  0.0670  0.0825 -0.0263
 1003YOPC   C3A13175  15.184  15.523   8.025 -0.1228 -0.1968 -0.3497
 1003YOPC   C4A13176  14.960  15.569   8.404  0.0946  0.0518 -0.0166
 1003YOPC   C1B13177  14.817  15.594   7.159 -0.0058  0.2143 -0.2359
 1003YOPC   C2B13178  14.919  15.537   7.539 -0.1070  0.1145 -0.4350
 1003YOPC   D3B13179  14.718  15.537   7.917 -0.1555 -0.0091 -0.2310
 1003YOPC   C4B13180  14.433  15.494   8.266 -0.2424 -0.1208  0.0033
 1004YOPC   NC313181  11.065  16.088   5.237  0.0994 -0.2879 -0.1241
 1004YOPC   PO413182  10.945  16.355   5.651  0.2680 -0.1316 -0.1467
 1004YOPC   GL113183  10.929  16.531   6.019 -0.1887  0.1340 -0.0780
 1004YOPC   GL213184  11.096  16.787   6.172  0.1388  0.0619  0.0171
 1004YOPC   C1A13185  10.743  16.510   6.493  0.0952 -0.1907  0.0072
 1004YOPC   D2A13186  10.587  16.398   6.831  0.0773 -0.1284 -0.0037
 1004YOPC   C3A13187  10.527  16.250   7.377 -0.0404  0.0447 -0.0856
 1004YOPC   C4A13188  10.368  16.416   7.779  0.2932  0.2152  0.0733
 1004YOPC   C1B13189  11.154  16.822   6.639 -0.0739 -0.0840 -0.2780
 1004YOPC   C2B13190  10.943  16.691   7.018  0.4128  0.2772 -0.0250
 1004YOPC   D3B13191  11.010  16.374   7.261  0.2368 -0.0073 -0.1452
 1004YOPC   C4B13192  11.298  15.980   7.337 -0.2215  0.1838 -0.0969
 1005YOPC   NC313193  11.170   3.673   5.758  0.0029 -0.1527 -0.4135
 1005YOPC   PO413194  11.544   3.425   5.860  0.1821  0.1709  0.1323
 1005YOPC   GL113195  11.418   3.480   6.208  0.1873  0.0048  0.0569
 1005YOPC   GL213196  11.699   3.436   6.481 -0.1343 -0.1871 -0.2170
 1005YOPC   C1A13197  11.198   3.346   6.649  0.1036 -0.0298 -0.0951
 1005YOPC   D2A13198  11.383   3.384   7.086 -0.2344  0.1408  0.0395
 1005YOPC   C3A13199  11.317   3.213   7.448 -0.1861 -0.1196 -0.3135
 1005YOPC   C4A13200  11.236   2.872   7.704  0.2566  0.0840 -0.0804
 1005YOPC   C1B13201  11.557   3.689   6.757 -0.0676 -0.1073 -0.2698
 1005YOPC   C2B13202  11.277   3.888   7.053 -0.1690 -0.2171  0.0408
 1005YOPC   D3B13203  11.193   3.685   7.404 -0.2977  0.1568 -0.1097
 1005YOPC   C4B13204  10.938   3.524   7.717  0.0156 -0.1536 -0.3046
 1006YOPC   NC313205   7.478   2.031   6.338 -0.2438 -0.0589  0.0959
 1006YOPC   PO413206   7.303   1.577   6.361 -0.0197  0.1714  0.2179
 1006YOPC   GL113207   7.686   1.624   6.573  0.0895 -0.1270 -0.0880
 1006YOPC   GL213208   7.636   1.845   6.795 -0.1648 -0.0558  0.0188
 1006YOPC   C1A13209   7.736   1.381   6.949  0.0637 -0.3150 -0.3176
 1006YOPC   D2A13210   7.840   1.318   7.420 -0.3029 -0.1656  0.1440
 1006YOPC   C3A13211   7.955   1.174   7.772  0.1806 -0.2322 -0.2346
 1006YOPC   C4A13212   7.803   0.819   8.056  0.0904 -0.3863 -0.2013
 1006YOPC   C1B13213   7.718   1.826   7.279  0.1034 -0.1984 -0.1250
 1006YOPC   C2B13214   7.781   1.738   7.802 -0.1475 -0.3198 -0.0362
 1006YOPC   D3B13215   7.890   1.974   8.055 -0.2057  0.1788  0.1132
 1006YOPC   C4B13216   8.101   2.358   7.974  0.0299 -0.1831 -0.0046
 1007YOPC   NC313217   1.856  14.509   6.018 -0.1404  0.2736  0.2012
 1007YOPC   PO413218   1.527  14.515   6.324 -0.1409  0.1822  0.4056
 1007YOPC   GL113219   1.829  14.187   6.399  0.0355  0.0183  0.3594
 1007YOPC   GL213220   1.714  14.008   6.175 -0.1065 -0.3116 -0.0660
 1007YOPC   C1A13221   1.914  14.243   6.795 -0.0957 -0.0088  0.2649
 1007YOPC   D2A13222   2.131  14.124   7.165 -0.0447  0.3845 -0.1831
 1007YOPC   C3A13223   1.977  14.180   7.591 -0.2899 -0.1601 -0.0424
 1007YOPC   C4A13224   1.812  13.874   7.763  0.2073 -0.1089 -0.0639
 1007YOPC   C1B13225   1.764  13.602   6.425 -0.0712  0.0555 -0.0317
 1007YOPC   C2B13226   2.090  13.354   6.690  0.1524  0.2595  0.2165
 1007YOPC   D3B13227   2.291  13.381   7.000 -0.0963  0.2277 -0.1628
 1007YOPC   C4B13228   2.626  13.275   7.244 -0.3606 -0.1603 -0.0052
 1008YOPC   NC313229   6.976   2.186   5.708  0.1728  0.1361  0.0729
 1008YOPC   PO413230   7.092   2.401   6.133  0.2620 -0.0991 -0.1883
 1008YOPC   GL113231   7.267   2.483   6.506  0.0414 -0.0692 -0.2207
 1008YOPC   GL213232   7.110   2.770   6.496 -0.1772  0.0909  0.0843
 1008YOPC   C1A13233   7.571   2.409   6.789 -0.0659 -0.0919 -0.0610
 1008YOPC   D2A13234   7.586   2.370   7.202  0.0305  0.0469  0.0610
 1008YOPC   C3A13235   7.325   2.550   7.444 -0.1771  0.0901  0.0173
 1008YOPC   C4A13236   7.093   2.424   7.799 -0.1653  0.0220  0.0822
 1008YOPC   C1B13237   7.286   3.126   6.763 -0.0124  0.2675  0.0842
 1008YOPC   C2B13238   7.197   3.124   7.199 -0.2437 -0.2210 -0.3019
 1008YOPC   D3B13239   7.003   2.870   7.504 -0.1093  0.2856 -0.0024
 1008YOPC   C4B13240   6.880   2.974   7.924 -0.1279 -0.0718  0.1531
 1009YOPC   NC313241  17.271   7.588   5.944 -0.1629  0.0521  0.2967
 1009YOPC   PO413242  16.804   7.329   6.090 -0.2435 -0.2489  0.3436
 1009YOPC   GL113243  16.654   7.312   6.535 -0.3927  0.0779 -0.2624
 1009YOPC   GL213244  16.374   7.198   6.559 -0.4196 -0.0352 -0.1295
 1009YOPC   C1A13245  16.627   7.352   6.974 -0.3790  0.0741 -0.2806
 1009YOPC   D2A13246  16.843   7.476   7.306 -0.1148  0.2286  0.2778
 1009YOPC   C3A13247  16.829   7.814   7.323  0.0837  0.1036 -0.3221
 1009YOPC   C4A13248  16.647   8.229   7.247  0.4315  0.0247  0.1394
 1009YOPC   C1B13249  16.550   6.897   6.810  0.0704  0.2896 -0.0275
 1009YOPC   C2B13250  16.638   6.922   7.310 -0.5051 -0.1452 -0.2226
 1009YOPC   D3B13251  17.146   6.905   7.399  0.2349 -0.2632  0.0235
 1009YOPC   C4B13252  17.458   6.476   7.438 -0.0196 -0.3039 -0.1533
 1010YOPC   NC313253   1.158  10.728   5.562  0.0164 -0.1850 -0.1229
 1010YOPC   PO413254   0.806  10.503   5.782 -0.1528 -0.2796 -0.0517
 1010YOPC   GL113255   0.912  10.557   6.209  0.3081 -0.0061  0.3102
 1010YOPC   GL213256   0.848  10.236   6.391  0.0812 -0.2863 -0.2020
 1010YOPC   C1A13257   1.357  10.486   6.364  0.0468  0.0791  0.0194
 1010YOPC   D2A13258   1.700  10.378   6.686  0.1911 -0.1485 -0.1498
 1010YOPC   C3A13259   2.072  10.052   6.599  0.1388  0.2371 -0.0470
 1010YOPC   C4A13260   2.141   9.832   6.257 -0.1312  0.1147 -0.0450
 1010YOPC   C1B13261   1.053  10.271   6.724 -0.1005 -0.0199  0.1675
 1010YOPC   C2B13262   1.266  10.255   7.129 -0.0488  0.0586  0.3037
 1010YOPC   D3B13263   1.308  10.366   7.558  0.1585  0.1581  0.0531
 1010YOPC   C4B13264   1.336  10.462   7.963 -0.2094 -0.1064  0.0678
 1011YOPC   NC313265   8.827  16.678   5.416 -0.1351 -0.1110 -0.0876
 1011YOPC   PO413266   8.872  16.369   5.253  0.0007 -0.1566  0.0017
 1011YOPC   GL113267   8.724  16.208   5.635 -0.2407  0.3774 -0.2027
 1011YOPC   GL213268   8.871  15.865   5.635  0.1822  0.3233 -0.0042
 1011YOPC   C1A13269   8.787  16.181   6.025  0.0979 -0.0182  0.0240
 1011YOPC   D2A13270   8.837  16.041   6.422 -0.0188  0.1040 -0.2089
 1011YOPC   C3A13271   9.313  16.020   6.442  0.0959  0.3029 -0.4151
 1011YOPC   C4A13272   9.482  16.379   6.597 -0.0176 -0.2157 -0.0024
 1011YOPC   C1B13273   9.250  15.835   5.920 -0.1762  0.2442 -0.1119
 1011YOPC   C2B13274   9.600  15.617   6.158 -0.3905 -0.1099  0.0679
 1011YOPC   D3B13275   9.455  15.586   6.596  0.2194 -0.0857  0.3019
 1011YOPC   C4B13276   9.448  15.562   7.079 -0.0766 -0.0097 -0.1514
 1012YOPC   NC313277   5.670  10.778   5.563 -0.0243  0.2810 -0.0614
 1012YOPC   PO413278   5.632  11.102   5.724 -0.4816 -0.2378 -0.2854
 1012YOPC   GL113279   5.434  11.177   6.128 -0.2198  0.2418  0.1016
 1012YOPC   GL213280   5.505  11.577   6.242  0.3095 -0.2175 -0.2951
 1012YOPC   C1A13281   5.033  11.202   6.519  0.0157 -0.0890  0.0195
 1012YOPC   D2A13282   5.055  11.237   6.935 -0.1208  0.2379  0.1680
 1012YOPC   C3A13283   4.769  11.261   7.276 -0.0672  0.1656 -0.0299
 1012YOPC   C4A13284   4.822  11.075   7.615 -0.1091  0.0388  0.1577
 1012YOPC   C1B13285   5.458  11.462   6.684 -0.0469 -0.0620 -0.4071
 1012YOPC   C2B13286   5.550  11.421   7.084 -0.1379 -0.1557 -0.1480
 1012YOPC   D3B13287   5.874  11.483   7.356 -0.1965 -0.1752 -0.1522
 1012YOPC   C4B13288   6.266  11.769   7.502 -0.2033 -0.2087  0.5452
 1013YOPC   NC313289   1.751  17.202   6.075 -0.2009 -0.0403  0.2027
 1013YOPC   PO413290   1.316  17.100   6.231  0.1280 -0.2160  0.0352
 1013YOPC   GL113291   1.088  17.347   6.493  0.2124  0.2724  0.3197
 1013YOPC   GL213292   0.762  17.418   6.513 -0.1702 -0.2058  0.0939
 1013YOPC   C1A13293   1.016  17.422   6.982  0.2255  0.2007  0.1402
 1013YOPC   D2A13294   0.754  17.751   7.206  0.0094  0.0858 -0.0031
 1013YOPC   C3A13295   0.790  18.151   7.333 -0.0510  0.2335  0.0371
 1013YOPC   C4A13296   0.434  18.435   7.389  0.0381  0.0756 -0.0839
 1013YOPC   C1B13297   0.797  17.851   6.636  0.2382  0.0999  0.1163
 1013YOPC   C2B13298   0.868  18.154   6.858 -0.0155 -0.1057  0.1219
 1013YOPC   D3B13299   1.319  18.300   6.949  0.2311 -0.0093  0.0228
 1013YOPC   C4B13300   1.411  18.247   7.342 -0.3357  0.1668  0.0988
 1014YOPC   NC313301   9.454   6.157   6.093  0.0734 -0.1378 -0.1824
 1014YOPC   PO413302   9.281   6.628   5.936  0.1770  0.2029 -0.1174
 1014YOPC   GL113303   9.199   6.572   6.350  0.1935 -0.2004  0.0785
 1014YOPC   GL213304   9.096   6.363   6.569  0.0271 -0.0594  0.0667
 1014YOPC   C1A13305   9.437   6.685   6.628 -0.4073 -0.1785  0.1001
 1014YOPC   D2A13306   9.820   6.867   6.652 -0.2026 -0.1509  0.0027
 1014YOPC   C3A13307   9.941   7.059   7.064 -0.2088 -0.0416 -0.0073
 1014YOPC   C4A13308   9.989   7.098   7.553 -0.2265  0.2765 -0.2419
 1014YOPC   C1B13309   9.103   6.510   6.940 -0.1287  0.1011 -0.1798
 1014YOPC   C2B13310   9.100   6.565   7.322 -0.1164  0.1108 -0.1242
 1014YOPC   D3B13311   9.211   6.523   7.714  0.0367  0.0252 -0.0186
 1014YOPC   C4B13312   9.400   6.491   8.152 -0.2034  0.0882  0.1757
 1015YOPC   NC313313   7.814   9.379   5.984  0.0570 -0.0839  0.2618
 1015YOPC   PO413314   8.073   9.113   5.806  0.1409 -0.3198  0.2849
 1015YOPC   GL113315   8.334   9.351   6.074  0.2268 -0.1097  0.0122
 1015YOPC   GL213316   8.634   9.207   6.128 -0.0080 -0.0037  0.1992
 1015YOPC   C1A13317   8.194   9.388   6.588 -0.2051  0.1290  0.0364
 1015YOPC   D2A13318   8.031   9.452   6.977 -0.3436  0.3606 -0.1723
 1015YOPC   C3A13319   7.980   9.254   7.435  0.2955 -0.1435 -0.0751
 1015YOPC   C4A13320   7.897   9.360   7.780  0.3208  0.0857  0.1993
 1015YOPC   C1B13321   8.709   9.398   6.494 -0.3021  0.1078 -0.2464
 1015YOPC   C2B13322   8.567   9.529   6.923  0.0750 -0.1913 -0.1521
 1015YOPC   D3B13323   8.438   9.159   7.270  0.2436 -0.0028  0.1008
 1015YOPC   C4B13324   8.386   9.117   7.726 -0.1893  0.4179  0.1278
 1016YOPC   NC313325   6.720   4.101   6.029 -0.4057 -0.0778 -0.1546
 1016YOPC   PO413326   6.618   4.440   6.264  0.3342 -0.0205  0.2515
 1016YOPC   GL113327   6.498   4.496   6.659  0.3548 -0.1357 -0.3160
 1016YOPC   GL213328   6.353   4.816   6.715 -0.1752 -0.1639  0.0588
 1016YOPC   C1A13329   6.438   4.635   7.158 -0.0962  0.1083 -0.1607
 1016YOPC   D2A13330   6.540   4.590   7.630  0.0572 -0.3772 -0.3210
 1016YOPC   C3A13331   6.384   4.469   8.038 -0.0067  0.2405  0.1530
 1016YOPC   C4A13332   6.013   4.426   8.268  0.0868 -0.1440  0.3475
 1016YOPC   C1B13333   6.430   5.145   7.077  0.2518 -0.2127 -0.0574
 1016YOPC   C2B13334   6.514   5.458   7.386 -0.3197  0.1408 -0.3784
 1016YOPC   D3B13335   6.586   5.407   7.737  0.3386 -0.0875 -0.0958
 1016YOPC   C4B13336   6.468   5.335   8.093  0.0840  0.0006  0.1126
 1017YOPC   NC313337   2.000   7.899   5.509 -0.2657 -0.0659 -0.0012
 1017YOPC   PO413338   1.709   7.685   5.798 -0.3564  0.1273  0.2082
 1017YOPC   GL113339   1.834   7.660   6.290  0.0337 -0.0329 -0.1820
 1017YOPC   GL213340   1.783   7.434   6.502  0.0056  0.3023  0.3912
 1017YOPC   C1A13341   1.850   7.812   6.796 -0.3675  0.0936  0.0935
 1017YOPC   D2A13342   1.805   7.766   7.213  0.0379 -0.0085  0.3230
 1017YOPC   C3A13343   1.982   7.796   7.619 -0.5447  0.0900 -0.1153
 1017YOPC   C4A13344   2.292   8.074   7.724 -0.2519  0.1527  0.3357
 1017YOPC   C1B13345   1.914   7.325   6.883 -0.0916  0.0660  0.1260
 1017YOPC   C2B13346   2.080   7.341   7.275  0.0147  0.2384  0.1149
 1017YOPC   D3B13347   2.372   7.350   7.550  0.1144 -0.3680 -0.2810
 1017YOPC   C4B13348   2.591   7.651   7.826  0.3258  0.2582  0.1910
 1018YOPC   NC313349   2.738  17.224   5.742 -0.0181 -0.0666  0.1654
 1018YOPC   PO413350   2.383  17.403   5.843 -0.2515  0.4622  0.1816
 1018YOPC   GL113351   2.177  17.394   6.295 -0.2958  0.3766 -0.2908
 1018YOPC   GL213352   2.321  17.645   6.328  0.0057  0.0315  0.1733
 1018YOPC   C1A13353   2.099  17.486   6.780  0.1708  0.2033  0.1668
 1018YOPC   D2A13354   2.246  17.631   7.083 -0.0658 -0.0458 -0.0477
 1018YOPC   C3A13355   2.529  17.410   7.273  0.3033 -0.1101  0.0682
 1018YOPC   C4A13356   2.584  17.489   7.724  0.2392  0.0046 -0.0481
 1018YOPC   C1B13357   2.313  17.904   6.618 -0.3526 -0.2548  0.0421
 1018YOPC   C2B13358   2.261  18.091   6.970 -0.0242  0.0375  0.0557
 1018YOPC   D3B13359   2.517  18.014   7.237  0.1167  0.1868 -0.0090
 1018YOPC   C4B13360   2.781  18.171   7.548 -0.1208 -0.0516  0.1370
 1019YOPC   NC313361  14.782  10.762   6.008 -0.3898  0.0292 -0.1859
 1019YOPC   PO413362  15.167  10.605   6.133  0.2289  0.1111  0.1119
 1019YOPC   GL113363  15.265  10.467   6.449  0.1705  0.0004 -0.1155
 1019YOPC   GL213364  15.446  10.708   6.615 -0.2087 -0.0248  0.0469
 1019YOPC   C1A13365  15.229  10.130   6.672 -0.1095  0.0697 -0.2030
 1019YOPC   D2A13366  15.139   9.900   7.026 -0.1342 -0.1456 -0.1492
 1019YOPC   C3A13367  14.787   9.761   7.255  0.0597 -0.0322  0.0023
 1019YOPC   C4A13368  14.732   9.428   7.490 -0.0410  0.0998  0.2066
 1019YOPC   C1B13369  15.029  10.852   6.909 -0.0751 -0.3140 -0.2877
 1019YOPC   C2B13370  15.095  10.853   7.306  0.1779  0.0174  0.2026
 1019YOPC   D3B13371  15.431  10.595   7.488  0.3528  0.2292  0.0391
 1019YOPC   C4B13372  15.481  10.320   7.835  0.2299  0.5548  0.3494
 1020YOPC   NC313373   0.932  14.198   5.968  0.3930 -0.1858  0.3311
 1020YOPC   PO413374   1.101  13.854   5.897  0.1538 -0.2681 -0.0678
 1020YOPC   GL113375   1.199  13.972   6.340 -0.0197  0.2625  0.0394
 1020YOPC   GL213376   1.182  13.673   6.522  0.0614  0.2553 -0.3593
 1020YOPC   C1A13377   1.390  13.988   6.802  0.1563 -0.2657  0.2402
 1020YOPC   D2A13378   1.576  14.110   7.115  0.0058  0.2321  0.2874
 1020YOPC   C3A13379   1.417  14.061   7.568  0.0170  0.1822 -0.2604
 1020YOPC   C4A13380   1.304  13.819   7.888  0.0973 -0.0463  0.3736
 1020YOPC   C1B13381   1.339  13.389   6.783  0.1534  0.0338 -0.1871
 1020YOPC   C2B13382   1.234  13.076   7.025 -0.0862 -0.0863 -0.1996
 1020YOPC   D3B13383   1.184  13.073   7.391 -0.3178  0.0147  0.1997
 1020YOPC   C4B13384   0.984  12.903   7.824  0.0548 -0.3140  0.2447
 1021YOPC   NC313385  17.823  10.515   6.146  0.0588 -0.1403  0.1044
 1021YOPC   PO413386  17.775  10.980   6.279 -0.2517 -0.1190 -0.0656
 1021YOPC   GL113387  17.737  11.120   6.686  0.0915 -0.1081  0.0437
 1021YOPC   GL213388  17.997  11.180   6.756 -0.3578 -0.2567  0.0217
 1021YOPC   C1A13389  17.623  11.125   7.124  0.0242  0.4262 -0.2023
 1021YOPC   D2A13390  17.534  11.098   7.576 -0.1277  0.0372 -0.1929
 1021YOPC   C3A13391  17.529  11.498   7.950 -0.1073 -0.2325  0.0803
 1021YOPC   C4A13392  17.396  11.644   8.418  0.0543  0.1867  0.1807
 1021YOPC   C1B13393  18.117  11.165   7.227  0.1854 -0.2047  0.0335
 1021YOPC   C2B13394  18.071  10.987   7.622 -0.1879 -0.0879 -0.3207
 1021YOPC   D3B13395  17.795  11.046   8.021 -0.1266  0.0178 -0.2225
 1021YOPC   C4B13396  17.582  10.944   8.348 -0.1337 -0.1318  0.1195
 1022YOPC   NC313397  11.325  16.682   5.721  0.0136  0.0772 -0.0022
 1022YOPC   PO413398  11.563  16.510   6.060 -0.0368 -0.0468 -0.0921
 1022YOPC   GL113399  11.609  16.348   6.418 -0.0952 -0.1804 -0.1098
 1022YOPC   GL213400  11.673  15.955   6.543  0.1089 -0.1306 -0.1977
 1022YOPC   C1A13401  11.507  16.371   6.837  0.2875  0.0321  0.1138
 1022YOPC   D2A13402  11.853  16.274   7.137 -0.0517 -0.0311  0.2401
 1022YOPC   C3A13403  11.734  16.224   7.518  0.1543  0.1507  0.3213
 1022YOPC   C4A13404  11.430  16.176   7.799  0.6557 -0.1710  0.1946
 1022YOPC   C1B13405  11.502  15.724   6.934  0.2691 -0.1346 -0.1466
 1022YOPC   C2B13406  11.266  15.442   7.423  0.1737  0.0873  0.4030
 1022YOPC   D3B13407  11.032  15.761   7.719  0.1746  0.1608  0.1479
 1022YOPC   C4B13408  10.901  16.255   7.769  0.0422  0.1250  0.2780
 1023YOPC   NC313409   3.110   6.635   5.669  0.0359  0.2143  0.0526
 1023YOPC   PO413410   3.331   6.192   5.649  0.1331 -0.1439  0.1562
 1023YOPC   GL113411   3.383   6.259   6.061 -0.3130  0.1178  0.1957
 1023YOPC   GL213412   3.132   6.404   6.227  0.0701  0.3581 -0.1217
 1023YOPC   C1A13413   3.593   6.097   6.374  0.1243 -0.1326  0.1961
 1023YOPC   D2A13414   3.911   5.715   6.510  0.1652 -0.2690  0.2728
 1023YOPC   C3A13415   4.311   5.759   6.236  0.1713 -0.1566 -0.1830
 1023YOPC   C4A13416   4.670   5.872   6.438 -0.0334 -0.0402  0.2596
 1023YOPC   C1B13417   3.019   6.039   6.497  0.0728 -0.1200  0.0446
 1023YOPC   C2B13418   3.125   6.041   6.938  0.1049 -0.1920 -0.0415
 1023YOPC   D3B13419   2.931   6.074   7.283  0.2795 -0.3142 -0.1188
 1023YOPC   C4B13420   3.099   5.661   7.393 -0.1953  0.1779  0.1183
 1024YOPC   NC313421  17.730   7.219   6.283  0.0858 -0.1807 -0.3683
 1024YOPC   PO413422  17.414   6.856   6.264 -0.0988 -0.1304 -0.0063
 1024YOPC   GL113423  17.623   6.966   6.665  0.1856  0.1630  0.0638
 1024YOPC   GL213424  17.533   7.295   6.769  0.0628 -0.0148 -0.0754
 1024YOPC   C1A13425  17.609   6.917   7.139 -0.1203 -0.0981 -0.4283
 1024YOPC   D2A13426  17.554   7.163   7.559 -0.0858  0.0256  0.0403
 1024YOPC   C3A13427  17.100   7.337   7.720  0.0813 -0.1419 -0.2499
 1024YOPC   C4A13428  16.960   7.599   8.118  0.0639 -0.1348  0.2576
 1024YOPC   C1B13429  17.429   7.383   7.142  0.2330 -0.2401  0.0393
 1024YOPC   C2B13430  17.339   7.617   7.415  0.1208 -0.0390  0.0211
 1024YOPC   D3B13431  17.135   7.845   7.733  0.1472  0.1508  0.2220
 1024YOPC   C4B13432  17.231   8.165   7.985  0.0930 -0.1622  0.1677
 1025YOPC   NC313433  12.837  12.784   5.735  0.0288 -0.1789 -0.1622
 1025YOPC   PO413434  12.860  13.068   5.931  0.1030 -0.0871  0.0711
 1025YOPC   GL113435  12.727  12.817   6.237 -0.5158 -0.2804 -0.1675
 1025YOPC   GL213436  12.555  12.982   6.370  0.0715 -0.2228  0.5371
 1025YOPC   C1A13437  13.058  12.580   6.539 -0.4233 -0.1419 -0.2280
 1025YOPC   D2A13438  13.193  12.208   6.462  0.0328 -0.0867 -0.3090
 1025YOPC   C3A13439  12.951  11.830   6.491  0.0865  0.6775  0.0017
 1025YOPC   C4A13440  12.714  11.800   6.160 -0.3437 -0.1967  0.1748
 1025YOPC   C1B13441  12.509  12.652   6.781  0.1681  0.0698  0.2170
 1025YOPC   C2B13442  12.516  12.462   7.253  0.0070 -0.1024  0.2549
 1025YOPC   D3B13443  12.465  12.659   7.713 -0.0967  0.1875  0.1796
 1025YOPC   C4B13444  12.145  12.655   7.895 -0.0718 -0.1112 -0.0267
 1026YOPC   NC313445   1.404   7.368   6.087  0.0812 -0.0242  0.0904
 1026YOPC   PO413446   1.147   6.989   6.271 -0.0842  0.0861 -0.0235
 1026YOPC   GL113447   1.371   6.917   6.593 -0.0377  0.2009 -0.2776
 1026YOPC   GL213448   1.287   6.555   6.742 -0.0517  0.1398  0.1389
 1026YOPC   C1A13449   1.522   7.016   6.957  0.0036 -0.2500  0.0928
 1026YOPC   D2A13450   1.769   6.944   7.159  0.1693  0.0333  0.1650
 1026YOPC   C3A13451   1.731   6.811   7.573 -0.4003  0.0949  0.5199
 1026YOPC   C4A13452   1.878   6.907   8.014  0.2294  0.0501 -0.2170
 1026YOPC   C1B13453   1.476   6.468   7.053  0.3278 -0.0954 -0.1949
 1026YOPC   C2B13454   1.589   6.394   7.370 -0.1519  0.3386 -0.0364
 1026YOPC   D3B13455   1.474   6.483   7.839 -0.0199  0.1573 -0.2401
 1026YOPC   C4B13456   1.597   6.579   8.382 -0.0572 -0.1507  0.0593
 1027YOPC   NC313457  16.053   7.762   5.871  0.1187 -0.3699 -0.0816
 1027YOPC   PO413458  16.100   8.163   5.800  0.2376  0.0109  0.1235
 1027YOPC   GL113459  15.952   8.154   6.262  0.2775 -0.3724 -0.1788
 1027YOPC   GL213460  16.116   8.385   6.465  0.0497 -0.2150  0.0031
 1027YOPC   C1A13461  15.787   7.972   6.705  0.4468  0.0284  0.1385
 1027YOPC   D2A13462  15.701   7.970   7.126 -0.0855 -0.0057  0.1073
 1027YOPC   C3A13463  15.788   8.094   7.559  0.1761  0.0783 -0.1822
 1027YOPC   C4A13464  15.915   8.332   7.899 -0.1893 -0.1169 -0.3044
 1027YOPC   C1B13465  16.289   8.439   6.918 -0.1510  0.1651  0.1265
 1027YOPC   C2B13466  16.085   8.257   7.191  0.0583 -0.2408 -0.0998
 1027YOPC   D3B13467  16.299   8.280   7.630  0.0025 -0.0150 -0.2054
 1027YOPC   C4B13468  16.646   8.028   7.801  0.0089 -0.0642 -0.2395
 1028YOPC   NC313469  15.937  16.174   5.972 -0.1458 -0.1796  0.1133
 1028YOPC   PO413470  15.785  15.984   6.336  0.3429 -0.3895 -0.2013
 1028YOPC   GL113471  15.754  15.789   6.715 -0.0832  0.0940  0.2828
 1028YOPC   GL213472  16.070  15.868   6.895 -0.0987  0.1818 -0.0001
 1028YOPC   C1A13473  15.689  15.527   7.116 -0.0330  0.2451 -0.0851
 1028YOPC   D2A13474  15.629  15.656   7.466  0.3349  0.1724 -0.1165
 1028YOPC   C3A13475  15.319  15.840   7.571 -0.1023 -0.1931 -0.2920
 1028YOPC   C4A13476  14.933  16.042   7.351 -0.0389 -0.0052  0.0131
 1028YOPC   C1B13477  16.042  15.935   7.369 -0.1058  0.1146  0.0482
 1028YOPC   C2B13478  15.914  15.937   7.849  0.1858  0.2572 -0.1104
 1028YOPC   D3B13479  15.732  15.600   8.160 -0.2209 -0.1486 -0.1160
 1028YOPC   C4B13480  15.568  15.540   8.595  0.2453  0.0297  0.1981
 1029YOPC   NC313481  16.984  11.270   6.236 -0.0949 -0.0408 -0.0444
 1029YOPC   PO413482  16.809  10.917   6.168  0.1563 -0.0838 -0.0412
 1029YOPC   GL113483  16.676  10.740   6.523  0.1870 -0.0214 -0.0262
 1029YOPC   GL213484  16.888  10.788   6.722  0.3313  0.1886 -0.1562
 1029YOPC   C1A13485  16.447  10.769   6.948 -0.0249  0.3533  0.1114
 1029YOPC   D2A13486  16.198  10.525   7.300 -0.2295  0.1883 -0.0859
 1029YOPC   C3A13487  16.370  10.396   7.702  0.1990  0.2057  0.0702
 1029YOPC   C4A13488  16.328  10.583   8.150  0.0145 -0.2519  0.0961
 1029YOPC   C1B13489  17.177  10.966   6.967 -0.0279  0.1525 -0.2823
 1029YOPC   C2B13490  17.166  11.282   7.224  0.1284  0.1185  0.1144
 1029YOPC   D3B13491  17.026  11.272   7.627  0.2279  0.1105  0.2251
 1029YOPC   C4B13492  17.159  11.174   8.076 -0.0089 -0.5056 -0.1569
 1030YOPC   NC313493   7.341  15.450   5.154 -0.1173  0.3732 -0.1056
 1030YOPC   PO413494   7.764  15.716   5.268 -0.1088 -0.2610 -0.0409
 1030YOPC   GL113495   7.604  15.553   5.605 -0.2418  0.0872  0.0162
 1030YOPC   GL213496   7.868  15.634   5.738 -0.1194 -0.0456 -0.0236
 1030YOPC   C1A13497   7.611  15.135   5.648  0.1955  0.0657 -0.0947
 1030YOPC   D2A13498   7.412  14.767   5.774  0.0144 -0.0098 -0.0016
 1030YOPC   C3A13499   7.596  14.829   6.134 -0.1472  0.2303  0.2368
 1030YOPC   C4A13500   7.858  14.484   6.219  0.0364  0.2480 -0.2376
 1030YOPC   C1B13501   7.695  15.465   6.084  0.3545  0.0193 -0.2294
 1030YOPC   C2B13502   7.674  15.267   6.387  0.1076 -0.0861 -0.1106
 1030YOPC   D3B13503   7.971  15.442   6.712  0.0550 -0.0397  0.1157
 1030YOPC   C4B13504   8.059  15.725   6.996  0.1254 -0.0509 -0.1288
 1031YOPC   NC313505  14.112   4.477   5.885 -0.0032 -0.1223  0.1324
 1031YOPC   PO413506  13.779   4.404   6.106  0.0478 -0.1875 -0.2190
 1031YOPC   GL113507  14.032   4.516   6.503  0.0160  0.2965  0.2698
 1031YOPC   GL213508  14.350   4.561   6.449 -0.1444 -0.1805  0.0525
 1031YOPC   C1A13509  13.901   4.603   6.978 -0.1865 -0.0716 -0.1938
 1031YOPC   D2A13510  13.790   4.517   7.443  0.1500 -0.0442  0.0292
 1031YOPC   C3A13511  13.475   4.804   7.699 -0.1655  0.0686 -0.3332
 1031YOPC   C4A13512  13.279   4.902   8.063 -0.0070  0.2033 -0.1327
 1031YOPC   C1B13513  14.334   4.378   6.917  0.2698  0.0582 -0.1200
 1031YOPC   C2B13514  14.272   4.712   7.284 -0.2855  0.1999 -0.0858
 1031YOPC   D3B13515  14.179   4.642   7.663 -0.1878 -0.1481 -0.1497
 1031YOPC   C4B13516  13.860   4.551   7.947  0.2659  0.0973 -0.0524
 1032YOPC   NC313517   8.669   0.477   5.602  0.2355 -0.0083  0.0802
 1032YOPC   PO413518   8.735   0.265   5.966 -0.1999 -0.1095  0.0335
 1032YOPC   GL113519   8.699   0.259   6.314 -0.2507  0.0360 -0.1140
 1032YOPC   GL213520   8.841   0.101   6.524 -0.1845 -0.2421 -0.0332
 1032YOPC   C1A13521   8.360   0.379   6.618  0.1458  0.0815  0.1390
 1032YOPC   D2A13522   7.988   0.284   6.704  0.1402 -0.0730 -0.2068
 1032YOPC   C3A13523   7.756   0.377   7.040 -0.1543 -0.0483  0.1358
 1032YOPC   C4A13524   7.590   0.145   7.349 -0.3015  0.2957 -0.0458
 1032YOPC   C1B13525   8.810   0.031   6.944 -0.3630  0.3458  0.0438
 1032YOPC   C2B13526   8.670  -0.272   7.317 -0.4563  0.0441  0.2799
 1032YOPC   D3B13527   8.629  -0.380   7.831  0.3851  0.1250 -0.1278
 1032YOPC   C4B13528   8.858  -0.342   8.202 -0.0716 -0.1075 -0.0963
 1033YOPC   NC313529   0.877   2.959   6.075  0.1376 -0.0690  0.2241
 1033YOPC   PO413530   0.466   3.217   5.915  0.1281  0.0827  0.0139
 1033YOPC   GL113531   0.461   3.494   6.125  0.1306  0.2451  0.2361
 1033YOPC   GL213532   0.567   3.293   6.409  0.1148  0.0326  0.2676
 1033YOPC   C1A13533   0.253   3.787   6.425 -0.1409 -0.1100 -0.3014
 1033YOPC   D2A13534  -0.040   4.003   6.710 -0.0311  0.0206  0.0653
 1033YOPC   C3A13535  -0.369   4.185   7.030 -0.1530 -0.2280  0.3518
 1033YOPC   C4A13536  -0.444   4.572   7.346  0.2609 -0.1033 -0.1043
 1033YOPC   C1B13537   0.636   3.422   6.848 -0.0047 -0.0638  0.2459
 1033YOPC   C2B13538   0.789   3.607   7.155 -0.0143 -0.1478 -0.1892
 1033YOPC   D3B13539   0.678   3.629   7.537 -0.1746 -0.0562 -0.2359
 1033YOPC   C4B13540   0.559   3.452   7.925 -0.1814  0.0449  0.2565
 1034YOPC   NC313541  13.456  12.789   5.448 -0.1405 -0.1141 -0.3058
 1034YOPC   PO413542  13.601  12.612   5.683  0.2919  0.2179 -0.1328
 1034YOPC   GL113543  13.621  12.459   6.027  0.0106 -0.0507  0.0528
 1034YOPC   GL213544  13.268  12.546   6.110  0.1655  0.0555 -0.1053
 1034YOPC   C1A13545  13.633  12.375   6.506  0.0624  0.2663  0.0911
 1034YOPC   D2A13546  13.541  12.169   6.861 -0.0738  0.2667  0.0790
 1034YOPC   C3A13547  13.171  11.950   6.998  0.1255  0.3673 -0.1497
 1034YOPC   C4A13548  12.919  12.072   7.323 -0.0018  0.1422 -0.1370
 1034YOPC   C1B13549  13.435  12.845   6.400  0.1175 -0.1372 -0.3310
 1034YOPC   C2B13550  13.867  12.852   6.629 -0.0088  0.1235 -0.0676
 1034YOPC   D3B13551  13.937  12.917   7.101  0.1598 -0.1900  0.0362
 1034YOPC   C4B13552  13.888  12.830   7.546 -0.0185 -0.3122 -0.1900
 1035YOPC   NC313553   0.295   9.262   5.617  0.1618  0.0939  0.0442
 1035YOPC   PO413554  -0.131   9.118   5.502  0.2731  0.0290  0.0812
 1035YOPC   GL113555  -0.017   8.886   5.881  0.3937 -0.0053  0.2302
 1035YOPC   GL213556  -0.103   8.919   6.186 -0.0510  0.0382  0.0436
 1035YOPC   C1A13557   0.284   8.596   6.217 -0.1108 -0.1435 -0.0504
 1035YOPC   D2A13558   0.498   8.364   6.465  0.0937  0.1385  0.1740
 1035YOPC   C3A13559   0.456   8.261   6.808  0.1236  0.1172  0.3213
 1035YOPC   C4A13560   0.477   8.155   7.266  0.1916 -0.1663 -0.0771
 1035YOPC   C1B13561  -0.136   8.887   6.624 -0.2016  0.0961  0.0665
 1035YOPC   C2B13562  -0.066   8.913   7.079  0.3274 -0.0302 -0.0760
 1035YOPC   D3B13563   0.252   9.068   7.285 -0.0445  0.1740 -0.0730
 1035YOPC   C4B13564   0.461   9.034   7.575 -0.1523  0.2000 -0.4230
 1036YOPC   NC313565   1.548   3.301   5.699  0.0047  0.1069  0.3876
 1036YOPC   PO413566   2.008   3.267   5.732  0.0680 -0.1093  0.0498
 1036YOPC   GL113567   2.141   3.512   6.082 -0.2059  0.0935  0.0452
 1036YOPC   GL213568   2.514   3.508   6.190 -0.1550  0.0298  0.1415
 1036YOPC   C1A13569   2.159   3.467   6.494 -0.0093  0.4197  0.5196
 1036YOPC   D2A13570   1.921   3.425   6.946  0.1511  0.0349 -0.3223
 1036YOPC   C3A13571   2.196   3.483   7.317 -0.1982  0.3659  0.0581
 1036YOPC   C4A13572   2.486   3.191   7.575  0.0317 -0.1576  0.0023
 1036YOPC   C1B13573   2.602   3.547   6.651 -0.1055 -0.0228  0.3366
 1036YOPC   C2B13574   2.443   3.357   6.922 -0.0571 -0.4665  0.0282
 1036YOPC   D3B13575   2.827   3.356   7.195  0.0591 -0.0254  0.0375
 1036YOPC   C4B13576   2.929   3.426   7.644 -0.1882  0.1433 -0.1801
 1037YOPC   NC313577   5.311   6.676   5.385  0.0233  0.2599  0.1154
 1037YOPC   PO413578   5.823   6.740   5.553 -0.1333 -0.0995 -0.0106
 1037YOPC   GL113579   5.512   7.051   5.740  0.0403  0.2472 -0.0304
 1037YOPC   GL213580   5.249   6.995   5.764 -0.1787 -0.2566 -0.1039
 1037YOPC   C1A13581   5.427   7.096   6.212 -0.0553 -0.0569  0.1122
 1037YOPC   D2A13582   5.167   7.127   6.545 -0.4347 -0.1470 -0.0973
 1037YOPC   C3A13583   5.201   7.294   6.959 -0.2262 -0.0651 -0.2525
 1037YOPC   C4A13584   5.028   7.278   7.405  0.3755  0.2615  0.0633
 1037YOPC   C1B13585   4.970   7.228   6.044  0.0228  0.0942  0.0812
 1037YOPC   C2B13586   4.795   7.642   6.262  0.0074  0.2030  0.1320
 1037YOPC   D3B13587   5.013   7.744   6.668  0.1647  0.3068 -0.0509
 1037YOPC   C4B13588   5.067   7.717   7.084  0.2283  0.0974  0.1697
 1038YOPC   NC313589   0.890  15.747   6.188  0.0837  0.1331 -0.1017
 1038YOPC   PO413590   1.121  16.112   6.172  0.2179  0.1169 -0.1133
 1038YOPC   GL113591   1.282  16.285   6.629 -0.4633  0.3646  0.0993
 1038YOPC   GL213592   1.492  16.068   6.831 -0.4113 -0.0353  0.0761
 1038YOPC   C1A13593   1.241  16.530   7.008 -0.2406 -0.1174 -0.3971
 1038YOPC   D2A13594   1.257  16.778   7.265  0.0607 -0.2353  0.0741
 1038YOPC   C3A13595   1.136  16.898   7.735 -0.0593  0.1205 -0.2003
 1038YOPC   C4A13596   1.080  16.675   8.081 -0.0535 -0.0974  0.0606
 1038YOPC   C1B13597   1.448  16.015   7.230 -0.0181 -0.2358 -0.0800
 1038YOPC   C2B13598   1.261  15.692   7.530 -0.1622 -0.0958 -0.3123
 1038YOPC   D3B13599   1.585  15.598   7.831 -0.0371  0.1230 -0.4346
 1038YOPC   C4B13600   1.785  15.520   8.147 -0.0573  0.0975  0.1824
 1039YOPC   NC313601   3.064  10.752   5.020  0.0411  0.1108  0.0263
 1039YOPC   PO413602   3.193  10.938   5.431 -0.1967  0.2969  0.0979
 1039YOPC   GL113603   3.199  10.755   5.862  0.0921  0.0907 -0.0579
 1039YOPC   GL213604   2.981  10.670   6.121  0.1228 -0.3129  0.1217
 1039YOPC   C1A13605   3.414  10.694   6.315 -0.1779 -0.1068  0.1596
 1039YOPC   D2A13606   3.445  10.403   6.702 -0.2179 -0.1997 -0.2220
 1039YOPC   C3A13607   3.695  10.305   6.995  0.1886  0.1661 -0.0685
 1039YOPC   C4A13608   3.823  10.241   7.377  0.3097  0.1239  0.2042
 1039YOPC   C1B13609   2.999  10.460   6.571 -0.2160 -0.1492 -0.0126
 1039YOPC   C2B13610   2.698  10.353   6.951 -0.0251 -0.1323  0.0503
 1039YOPC   D3B13611   2.754  10.159   7.304 -0.0684  0.0663 -0.2026
 1039YOPC   C4B13612   2.909   9.908   7.689  0.3564  0.4492  0.0769
 1040YOPC   NC313613  15.590  14.921   6.455 -0.5058  0.1150  0.1536
 1040YOPC   PO413614  15.985  14.970   6.633  0.4239  0.2679 -0.2738
 1040YOPC   GL113615  15.797  14.972   7.036 -0.1168 -0.2248  0.1207
 1040YOPC   GL213616  15.345  14.964   6.982  0.1168  0.0374 -0.0765
 1040YOPC   C1A13617  15.805  14.973   7.482  0.0943 -0.4228  0.0486
 1040YOPC   D2A13618  15.964  14.883   7.828 -0.0351 -0.1620  0.2343
 1040YOPC   C3A13619  15.867  15.081   8.189  0.1616 -0.2439  0.1865
 1040YOPC   C4A13620  15.966  15.155   8.609 -0.0785  0.2098 -0.0452
 1040YOPC   C1B13621  15.248  14.696   7.359 -0.0250 -0.0560 -0.2153
 1040YOPC   C2B13622  15.376  14.731   7.755 -0.1090 -0.4033  0.1892
 1040YOPC   D3B13623  15.458  14.592   8.202  0.1208 -0.0144  0.2145
 1040YOPC   C4B13624  15.584  14.817   8.715  0.1934 -0.1355  0.2374
 1041YOPC   NC313625  13.322   3.063   5.884  0.2377 -0.1733  0.2714
 1041YOPC   PO413626  13.075   2.921   6.217  0.2515 -0.2870 -0.1446
 1041YOPC   GL113627  13.138   2.866   6.586 -0.1256  0.1132  0.1694
 1041YOPC   GL213628  13.253   2.526   6.592  0.0904 -0.3179  0.0332
 1041YOPC   C1A13629  13.120   2.753   6.974  0.0194 -0.2471 -0.4673
 1041YOPC   D2A13630  13.250   2.838   7.435 -0.0159  0.2185 -0.3817
 1041YOPC   C3A13631  12.993   2.685   7.809  0.4862  0.0138 -0.1850
 1041YOPC   C4A13632  12.814   3.023   8.178 -0.1324 -0.1332 -0.1232
 1041YOPC   C1B13633  13.505   2.543   7.089  0.1319 -0.0327  0.0527
 1041YOPC   C2B13634  13.711   2.497   7.381 -0.2034 -0.1144 -0.1324
 1041YOPC   D3B13635  13.563   2.629   7.765  0.1938  0.3755  0.0775
 1041YOPC   C4B13636  13.555   2.775   8.146  0.2038 -0.0669 -0.1661
 1042YOPC   NC313637  14.068  14.517   6.277  0.2021  0.0374  0.4437
 1042YOPC   PO413638  13.977  14.993   6.177 -0.0176  0.2676 -0.3184
 1042YOPC   GL113639  13.978  15.265   6.477  0.0585 -0.0439 -0.1574
 1042YOPC   GL213640  13.972  15.513   6.392  0.0741 -0.0428  0.0396
 1042YOPC   C1A13641  13.871  15.156   6.941 -0.2145  0.1157  0.2277
 1042YOPC   D2A13642  13.838  14.898   7.242 -0.1261 -0.2168 -0.1512
 1042YOPC   C3A13643  13.942  15.085   7.623  0.0265 -0.0025  0.0882
 1042YOPC   C4A13644  14.128  15.232   7.982  0.0711  0.1898  0.0794
 1042YOPC   C1B13645  14.010  15.623   6.863 -0.1734  0.0496  0.0158
 1042YOPC   C2B13646  14.053  15.563   7.347  0.0203  0.2568  0.2225
 1042YOPC   D3B13647  13.688  15.714   7.657 -0.0211 -0.3561  0.0490
 1042YOPC   C4B13648  13.467  15.706   8.122 -0.1703 -0.2298 -0.1052
 1043YOPC   NC313649   2.438   6.254   5.714  0.2762  0.1171 -0.0283
 1043YOPC   PO413650   1.970   6.270   5.636  0.0762 -0.0663  0.1774
 1043YOPC   GL113651   2.090   6.190   6.067  0.1474  0.0573  0.0238
 1043YOPC   GL213652   2.162   6.454   6.344 -0.0313 -0.0775 -0.1401
 1043YOPC   C1A13653   2.443   5.983   6.322 -0.1299  0.2656  0.0216
 1043YOPC   D2A13654   2.747   5.660   6.282 -0.3308  0.2041  0.3368
 1043YOPC   C3A13655   3.197   5.546   6.452  0.3028  0.0036  0.0403
 1043YOPC   C4A13656   3.372   5.697   6.720 -0.2510  0.2201 -0.0213
 1043YOPC   C1B13657   2.410   6.263   6.725 -0.0629  0.0861  0.1856
 1043YOPC   C2B13658   2.616   6.005   6.834  0.0977  0.0475 -0.1716
 1043YOPC   D3B13659   2.407   5.627   6.718  0.1046  0.0829 -0.0058
 1043YOPC   C4B13660   2.349   5.437   6.358  0.1614  0.0510 -0.0896
 1044YOPC   NC313661  16.485  14.906   6.691  0.0357 -0.2313 -0.1826
 1044YOPC   PO413662  16.907  14.978   6.738 -0.0506 -0.2234 -0.2895
 1044YOPC   GL113663  17.009  15.029   7.125 -0.1914 -0.0715  0.1511
 1044YOPC   GL213664  17.227  15.143   7.178  0.2023 -0.2870 -0.2165
 1044YOPC   C1A13665  17.276  14.754   7.410  0.0950  0.1455 -0.2332
 1044YOPC   D2A13666  17.249  14.768   7.885  0.2047  0.3543 -0.2609
 1044YOPC   C3A13667  17.442  15.104   8.095 -0.0162 -0.2287  0.0730
 1044YOPC   C4A13668  17.779  15.444   8.133 -0.0067 -0.0962  0.0143
 1044YOPC   C1B13669  17.057  15.137   7.619 -0.0267  0.2993 -0.0197
 1044YOPC   C2B13670  16.847  15.080   8.035  0.2597  0.0104  0.0737
 1044YOPC   D3B13671  17.083  14.851   8.355 -0.1383 -0.2547  0.1203
 1044YOPC   C4B13672  17.258  14.739   8.768 -0.1225  0.0030  0.0464
 1045YOPC   NC313673   5.423   4.706   5.973  0.1570  0.1802  0.0433
 1045YOPC   PO413674   5.807   4.382   5.979  0.0457 -0.0709 -0.1235
 1045YOPC   GL113675   5.972   4.350   6.389  0.1870  0.0243 -0.0037
 1045YOPC   GL213676   5.920   4.617   6.473  0.0453 -0.2946  0.1813
 1045YOPC   C1A13677   6.182   4.137   6.719  0.1297 -0.1646  0.3527
 1045YOPC   D2A13678   6.490   4.182   7.043  0.1521 -0.0232  0.0495
 1045YOPC   C3A13679   6.741   3.921   7.325 -0.0153 -0.2266 -0.0412
 1045YOPC   C4A13680   7.057   3.806   7.677 -0.1836 -0.3178  0.0489
 1045YOPC   C1B13681   5.951   4.564   6.856  0.1206 -0.1886  0.0253
 1045YOPC   C2B13682   5.969   4.314   7.210 -0.0400 -0.1133 -0.0491
 1045YOPC   D3B13683   6.209   4.068   7.404  0.1673 -0.0016  0.1068
 1045YOPC   C4B13684   6.430   3.823   7.761 -0.2023 -0.1770 -0.0551
 1046YOPC   NC313685  13.103   1.195   6.130  0.1334  0.0725  0.0058
 1046YOPC   PO413686  12.876   1.646   6.169  0.3607 -0.0888 -0.0926
 1046YOPC   GL113687  13.026   1.608   6.578 -0.1962  0.0161 -0.1837
 1046YOPC   GL213688  13.381   1.347   6.645 -0.4461  0.0249  0.0957
 1046YOPC   C1A13689  12.953   1.704   7.020  0.2024 -0.1899 -0.0391
 1046YOPC   D2A13690  13.016   1.740   7.556 -0.1043 -0.0195  0.2643
 1046YOPC   C3A13691  12.809   1.774   7.909 -0.0496 -0.1253 -0.0546
 1046YOPC   C4A13692  12.514   1.496   8.164  0.2943 -0.0251 -0.0531
 1046YOPC   C1B13693  13.033   1.173   6.803  0.0702 -0.0543  0.4029
 1046YOPC   C2B13694  12.765   0.962   6.995 -0.2217  0.0164  0.0640
 1046YOPC   D3B13695  12.665   0.890   7.400  0.1614  0.1677  0.0668
 1046YOPC   C4B13696  12.378   0.674   7.635  0.0072  0.1659 -0.1330
 1047YOPC   NC313697  10.108   8.412   5.965 -0.3548 -0.1652 -0.0514
 1047YOPC   PO413698  10.062   8.860   5.935 -0.0959  0.2351 -0.0878
 1047YOPC   GL113699  10.133   9.007   6.278 -0.0579 -0.0983 -0.2065
 1047YOPC   GL213700  10.096   9.312   6.257  0.3177 -0.0832  0.2205
 1047YOPC   C1A13701   9.989   8.904   6.683  0.0226 -0.1691  0.0284
 1047YOPC   D2A13702   9.857   8.583   6.907  0.3124  0.0677 -0.2360
 1047YOPC   C3A13703   9.903   8.717   7.340  0.3096 -0.0740 -0.2489
 1047YOPC   C4A13704   9.726   8.892   7.723 -0.3439  0.3477 -0.0308
 1047YOPC   C1B13705  10.245   9.305   6.770 -0.0823 -0.1326  0.1920
 1047YOPC   C2B13706  10.141   9.106   7.131  0.2242 -0.2364 -0.0791
 1047YOPC   D3B13707  10.118   9.271   7.426  0.1711  0.3011 -0.2687
 1047YOPC   C4B13708   9.981   9.349   7.774  0.1677 -0.1485  0.4444
 1048YOPC   NC313709  12.201  10.389   5.973 -0.0938 -0.0587  0.2490
 1048YOPC   PO413710  12.120  10.012   6.111 -0.0988  0.2754 -0.0299
 1048YOPC   GL113711  12.055  10.098   6.442  0.0926  0.0040 -0.2770
 1048YOPC   GL213712  12.213  10.347   6.533  0.1058  0.2320 -0.0307
 1048YOPC   C1A13713  11.805  10.012   6.809 -0.0623 -0.1588 -0.1512
 1048YOPC   D2A13714  11.932   9.964   7.205 -0.1661  0.1186  0.0389
 1048YOPC   C3A13715  11.930   9.664   7.435 -0.1845 -0.4931 -0.0316
 1048YOPC   C4A13716  12.176   9.408   7.692 -0.1002  0.1059 -0.1799
 1048YOPC   C1B13717  12.155  10.336   6.954 -0.1771  0.1144 -0.4736
 1048YOPC   C2B13718  12.269  10.297   7.292  0.1880 -0.0713 -0.0706
 1048YOPC   D3B13719  12.048  10.191   7.673 -0.3948  0.1985  0.0867
 1048YOPC   C4B13720  12.051   9.863   7.927 -0.1645 -0.0441  0.2131
 1049YOPC   NC313721   4.764   1.082   5.641  0.0037 -0.1009  0.0479
 1049YOPC   PO413722   5.265   1.117   5.795 -0.2643  0.1538  0.1818
 1049YOPC   GL113723   5.070   1.103   6.187  0.1704  0.2136  0.0891
 1049YOPC   GL213724   4.834   1.361   6.090  0.1820 -0.0878  0.1170
 1049YOPC   C1A13725   5.328   1.025   6.595 -0.0941  0.3541 -0.0864
 1049YOPC   D2A13726   5.565   1.043   6.893  0.0024 -0.0095 -0.0173
 1049YOPC   C3A13727   5.743   0.778   7.260  0.3010  0.2901 -0.0372
 1049YOPC   C4A13728   5.610   0.341   7.403  0.0871  0.1725 -0.0569
 1049YOPC   C1B13729   4.711   1.364   6.459 -0.0761  0.2388  0.3595
 1049YOPC   C2B13730   4.915   1.243   6.765  0.1444 -0.1634  0.1596
 1049YOPC   D3B13731   4.847   1.244   7.202 -0.1291 -0.0533  0.1161
 1049YOPC   C4B13732   5.081   1.551   7.505 -0.0484 -0.1380  0.0289
 1050YOPC   NC313733  14.173  17.701   6.319 -0.1617  0.0772 -0.0042
 1050YOPC   PO413734  13.898  18.051   6.284  0.1645  0.0583  0.0380
 1050YOPC   GL113735  13.860  18.291   6.602 -0.1059  0.1267 -0.1708
 1050YOPC   GL213736  13.577  18.377   6.728  0.3363 -0.0557  0.0568
 1050YOPC   C1A13737  13.973  18.648   6.800  0.0713 -0.0560  0.2469
 1050YOPC   D2A13738  13.974  18.675   7.228  0.0944  0.2102 -0.0312
 1050YOPC   C3A13739  13.972  18.605   7.637 -0.1961 -0.0306 -0.1819
 1050YOPC   C4A13740  13.927  18.745   8.032 -0.1200  0.0724 -0.5197
 1050YOPC   C1B13741  13.364  18.443   7.102 -0.1134 -0.0895  0.0538
 1050YOPC   C2B13742  13.096  18.296   7.475 -0.1859  0.3237 -0.1751
 1050YOPC   D3B13743  13.303  18.238   7.797 -0.2021  0.1389 -0.1403
 1050YOPC   C4B13744  13.610  18.365   7.952  0.0698  0.1586 -0.0966
 1051YOPC   NC313745  17.073  11.971   5.823  0.0942  0.1985  0.0409
 1051YOPC   PO413746  17.198  11.862   6.174  0.0170  0.3437 -0.1316
 1051YOPC   GL113747  17.501  11.939   6.634 -0.1800 -0.0696  0.0697
 1051YOPC   GL213748  17.784  11.706   6.650  0.2481  0.0873 -0.2390
 1051YOPC   C1A13749  17.897  12.140   6.779  0.2145  0.0739  0.2587
 1051YOPC   D2A13750  18.219  12.194   7.135  0.2988 -0.0100  0.1120
 1051YOPC   C3A13751  18.081  12.456   7.455  0.1922  0.0166 -0.0961
 1051YOPC   C4A13752  18.192  12.784   7.695 -0.4074  0.0327  0.1794
 1051YOPC   C1B13753  17.542  11.662   7.041 -0.2470  0.3561 -0.2518
 1051YOPC   C2B13754  17.507  11.805   7.465 -0.0176  0.0511  0.0203
 1051YOPC   D3B13755  17.877  11.995   7.583  0.0240  0.5645 -0.2606
 1051YOPC   C4B13756  18.255  11.976   7.538 -0.1353 -0.0484 -0.1371
 1052YOPC   NC313757  15.054   6.154   6.281  0.3691 -0.0911 -0.1264
 1052YOPC   PO413758  15.011   5.722   6.331 -0.0142  0.0019  0.1139
 1052YOPC   GL113759  14.767   5.455   6.554 -0.0507  0.1529  0.0391
 1052YOPC   GL213760  14.404   5.542   6.731  0.2246  0.0078  0.2338
 1052YOPC   C1A13761  14.948   5.181   6.833  0.1430  0.1534 -0.1316
 1052YOPC   D2A13762  14.598   5.120   7.182  0.0242  0.1161 -0.1803
 1052YOPC   C3A13763  14.495   4.981   7.612 -0.1581 -0.0148 -0.0321
 1052YOPC   C4A13764  14.511   5.243   7.940 -0.2773 -0.1367  0.2614
 1052YOPC   C1B13765  14.363   5.520   7.156  0.2824  0.1600 -0.3192
 1052YOPC   C2B13766  14.347   5.566   7.566  0.2029 -0.3571 -0.0476
 1052YOPC   D3B13767  14.111   5.828   7.810  0.1451  0.1381  0.0207
 1052YOPC   C4B13768  13.779   5.932   8.029  0.2283  0.0411 -0.4301
 1053YOPC   NC313769   4.148  11.148   5.635  0.0535 -0.0772 -0.0464
 1053YOPC   PO413770   4.608  11.264   5.659  0.0133 -0.0297 -0.1266
 1053YOPC   GL113771   4.795  11.377   6.080 -0.2883  0.0512  0.2077
 1053YOPC   GL213772   5.055  11.543   6.075 -0.1094 -0.1202  0.0719
 1053YOPC   C1A13773   4.485  11.698   6.359 -0.3660 -0.1133 -0.0583
 1053YOPC   D2A13774   4.438  11.808   6.830  0.0879  0.0070 -0.0943
 1053YOPC   C3A13775   4.381  11.585   7.171 -0.2351 -0.1505 -0.1690
 1053YOPC   C4A13776   4.468  11.521   7.578 -0.1925  0.0257  0.1055
 1053YOPC   C1B13777   5.009  11.704   6.458  0.0408  0.0669  0.1589
 1053YOPC   C2B13778   4.893  11.673   6.878  0.0586  0.1734  0.1094
 1053YOPC   D3B13779   4.862  11.817   7.329 -0.1739 -0.0724 -0.2061
 1053YOPC   C4B13780   4.984  11.603   7.754  0.0890 -0.0557 -0.2344
 1054YOPC   NC313781   4.780  15.321   5.344  0.2657 -0.2039 -0.2350
 1054YOPC   PO413782   4.402  15.201   5.607 -0.1424 -0.1990 -0.1805
 1054YOPC   GL113783   4.551  15.407   5.944 -0.0426 -0.0127 -0.0209
 1054YOPC   GL213784   4.711  15.651   5.781  0.1250 -0.0265  0.0525
 1054YOPC   C1A13785   4.770  15.569   6.289 -0.1380 -0.2450 -0.0934
 1054YOPC   D2A13786   4.994  15.729   6.715 -0.0009 -0.1837  0.0203
 1054YOPC   C3A13787   4.886  15.521   7.072  0.0082  0.0303  0.0149
 1054YOPC   C4A13788   4.964  15.499   7.457 -0.2702 -0.2782 -0.1649
 1054YOPC   C1B13789   5.127  15.762   5.984 -0.0849 -0.2031  0.1223
 1054YOPC   C2B13790   5.543  15.699   5.880 -0.0174 -0.2386 -0.1687
 1054YOPC   D3B13791   5.728  15.708   6.122 -0.0175 -0.2999 -0.1426
 1054YOPC   C4B13792   5.687  15.782   6.538  0.1686  0.0240  0.0275
 1055YOPC   NC313793   4.502   5.446   5.377 -0.1212  0.1865 -0.3735
 1055YOPC   PO413794   4.177   5.730   5.324 -0.0411 -0.0617  0.0278
 1055YOPC   GL113795   4.280   5.856   5.758 -0.1101  0.3258 -0.1790
 1055YOPC   GL213796   4.354   6.131   5.776 -0.1997  0.0567 -0.3278
 1055YOPC   C1A13797   4.694   5.702   5.955  0.2311  0.1768 -0.0240
 1055YOPC   D2A13798   5.014   5.548   6.235 -0.1247 -0.0542  0.1683
 1055YOPC   C3A13799   5.302   5.333   6.573  0.0487  0.0009 -0.3651
 1055YOPC   C4A13800   5.151   5.276   6.880 -0.2752  0.0204 -0.1477
 1055YOPC   C1B13801   4.433   6.260   6.182  0.3509  0.1310  0.0041
 1055YOPC   C2B13802   4.494   6.393   6.540  0.0601 -0.1647  0.1259
 1055YOPC   D3B13803   4.407   6.083   6.807  0.0917  0.2878  0.0491
 1055YOPC   C4B13804   4.238   5.885   7.235  0.1139  0.0578  0.1469
 1056YOPC   NC313805   6.952   2.649   5.338  0.0044 -0.0495  0.2711
 1056YOPC   PO413806   6.990   2.754   5.756 -0.1257  0.3888  0.2768
 1056YOPC   GL113807   6.794   2.807   6.102  0.2578  0.1503  0.0900
 1056YOPC   GL213808   6.627   3.125   6.030  0.1336  0.3599 -0.0113
 1056YOPC   C1A13809   6.498   2.798   6.408 -0.1307  0.1029  0.1405
 1056YOPC   D2A13810   6.267   2.738   6.817  0.3975  0.1357  0.4746
 1056YOPC   C3A13811   6.395   2.974   7.161 -0.0183  0.0288  0.0510
 1056YOPC   C4A13812   6.484   2.949   7.566  0.0074 -0.1409 -0.0391
 1056YOPC   C1B13813   6.493   3.269   6.333  0.0022  0.2023 -0.0684
 1056YOPC   C2B13814   6.564   3.189   6.715  0.2462 -0.0997 -0.0429
 1056YOPC   D3B13815   6.867   2.904   6.894  0.1214  0.1800 -0.0537
 1056YOPC   C4B13816   7.226   2.640   6.997 -0.1661 -0.0567 -0.2384
 1057YOPC   NC313817   2.329  10.101   5.411 -0.0328 -0.1012  0.0433
 1057YOPC   PO413818   1.883  10.295   5.295 -0.2114 -0.2420  0.4699
 1057YOPC   GL113819   1.998  10.240   5.801  0.0247  0.2173 -0.0803
 1057YOPC   GL213820   2.278  10.124   5.943 -0.1694 -0.1789  0.2395
 1057YOPC   C1A13821   1.755  10.166   6.230 -0.1021  0.1807 -0.1919
 1057YOPC   D2A13822   1.577   9.918   6.595  0.1279  0.1366  0.0331
 1057YOPC   C3A13823   1.766   9.951   6.954  0.0587  0.1824 -0.2023
 1057YOPC   C4A13824   1.959   9.796   7.282  0.0724 -0.1579  0.1061
 1057YOPC   C1B13825   2.483  10.232   6.389 -0.1545 -0.3145 -0.1452
 1057YOPC   C2B13826   2.846   9.908   6.608  0.1785  0.0718 -0.1667
 1057YOPC   D3B13827   3.151  10.077   6.934 -0.0624  0.1482  0.2501
 1057YOPC   C4B13828   3.253  10.175   7.355  0.1714 -0.1679  0.1797
 1058YOPC   NC313829  16.798  17.188   6.137  0.2867 -0.0514 -0.0548
 1058YOPC   PO413830  17.054  17.419   6.527 -0.1177  0.0125 -0.1619
 1058YOPC   GL113831  16.955  17.246   6.962  0.2197 -0.2232  0.2120
 1058YOPC   GL213832  17.098  16.990   6.906 -0.0400 -0.0590 -0.3511
 1058YOPC   C1A13833  16.765  17.213   7.384 -0.0143 -0.1552  0.0886
 1058YOPC   D2A13834  16.518  17.231   7.774  0.3295  0.0622 -0.0207
 1058YOPC   C3A13835  16.617  17.521   8.092  0.3294 -0.3313  0.1190
 1058YOPC   C4A13836  16.936  17.458   8.381  0.1104  0.0468  0.1053
 1058YOPC   C1B13837  17.172  16.910   7.369 -0.0346  0.0966  0.1554
 1058YOPC   C2B13838  16.990  16.997   7.831 -0.0280 -0.0414 -0.0991
 1058YOPC   D3B13839  17.297  17.133   8.100 -0.1871  0.0695  0.2187
 1058YOPC   C4B13840  17.546  16.863   8.342 -0.1604 -0.0779  0.3420
 1059YOPC   NC313841   4.139  17.909   5.356 -0.1553 -0.0726 -0.2808
 1059YOPC   PO413842   3.697  18.003   5.339 -0.0119 -0.0701 -0.0208
 1059YOPC   GL113843   3.614  18.305   5.641  0.1923 -0.1924 -0.1555
 1059YOPC   GL213844   3.955  18.233   5.681 -0.2559 -0.2223 -0.0631
 1059YOPC   C1A13845   3.721  18.638   6.057 -0.2346 -0.0502  0.1119
 1059YOPC   D2A13846   4.121  18.757   6.125 -0.1712 -0.1380 -0.2830
 1059YOPC   C3A13847   4.175  19.174   6.275 -0.1659  0.0332 -0.2642
 1059YOPC   C4A13848   4.174  19.546   6.420 -0.1264  0.3427  0.0940
 1059YOPC   C1B13849   3.837  18.180   6.224 -0.0806 -0.2600  0.1055
 1059YOPC   C2B13850   4.022  18.463   6.484 -0.0303 -0.0703 -0.0085
 1059YOPC   D3B13851   4.186  18.372   6.956  0.0487 -0.0019  0.0454
 1059YOPC   C4B13852   4.277  18.273   7.344  0.0839  0.4094 -0.0897
 1060YOPC   NC313853   2.546   3.322   5.673 -0.0772 -0.1652  0.2992
 1060YOPC   PO413854   2.696   2.947   5.626 -0.0348 -0.0825 -0.1205
 1060YOPC   GL113855   2.802   2.904   5.999  0.2671  0.3037 -0.1933
 1060YOPC   GL213856   3.098   2.963   6.115 -0.0533  0.5003  0.3298
 1060YOPC   C1A13857   2.654   3.079   6.429  0.0867  0.1967 -0.1776
 1060YOPC   D2A13858   2.783   3.006   6.786 -0.2338 -0.2678  0.1715
 1060YOPC   C3A13859   2.565   2.899   7.111  0.1097  0.1157 -0.0788
 1060YOPC   C4A13860   2.526   2.688   7.492  0.0247  0.2139 -0.2376
 1060YOPC   C1B13861   3.127   2.728   6.512 -0.0544 -0.0327 -0.1381
 1060YOPC   C2B13862   3.072   2.544   6.876 -0.0128 -0.0414  0.1849
 1060YOPC   D3B13863   2.987   2.706   7.146 -0.2736  0.1030  0.1683
 1060YOPC   C4B13864   2.917   2.913   7.675  0.0058 -0.1423 -0.0016
 1061YOPC   NC313865   7.222   8.123   5.511  0.0850  0.2459  0.5423
 1061YOPC   PO413866   7.531   7.872   5.492 -0.2879 -0.1600 -0.3345
 1061YOPC   GL113867   7.483   8.088   5.956  0.1166 -0.0983  0.2334
 1061YOPC   GL213868   7.132   8.055   6.005  0.0360 -0.0291 -0.0588
 1061YOPC   C1A13869   7.540   8.380   6.300  0.2499 -0.1525  0.1378
 1061YOPC   D2A13870   7.868   8.425   6.574 -0.1100 -0.0380 -0.1717
 1061YOPC   C3A13871   7.870   8.370   7.040 -0.1315  0.4880 -0.0411
 1061YOPC   C4A13872   7.728   8.531   7.472 -0.2762 -0.1255 -0.0086
 1061YOPC   C1B13873   7.219   8.087   6.488 -0.1320 -0.2103 -0.0047
 1061YOPC   C2B13874   7.435   8.274   6.801 -0.0766  0.1229 -0.0930
 1061YOPC   D3B13875   7.295   8.241   7.152  0.5238 -0.1493 -0.0635
 1061YOPC   C4B13876   7.482   8.120   7.523  0.0991 -0.1473  0.2721
 1062YOPC   NC313877   9.676  13.517   5.653 -0.0353  0.0111 -0.1080
 1062YOPC   PO413878   9.285  13.265   5.618  0.1328  0.3554  0.0481
 1062YOPC   GL113879   9.615  13.081   5.950 -0.0210  0.1662  0.2691
 1062YOPC   GL213880   9.826  13.179   6.142 -0.2457  0.0160 -0.0465
 1062YOPC   C1A13881   9.762  12.675   6.145 -0.0853 -0.0742 -0.0053
 1062YOPC   D2A13882  10.095  12.618   6.380 -0.1655  0.1352  0.3005
 1062YOPC   C3A13883  10.133  12.705   6.802  0.0010 -0.0344  0.0733
 1062YOPC   C4A13884  10.214  12.453   7.118  0.1119  0.0142 -0.4611
 1062YOPC   C1B13885   9.871  13.169   6.604 -0.0175  0.1128  0.3204
 1062YOPC   C2B13886   9.851  13.243   6.995 -0.3457  0.0551 -0.0443
 1062YOPC   D3B13887   9.969  12.876   7.289 -0.3820 -0.0836 -0.5027
 1062YOPC   C4B13888  10.202  12.890   7.708 -0.3666 -0.1976 -0.1890
 1063YOPC   NC313889  10.491   4.683   5.802 -0.2183  0.0387  0.1071
 1063YOPC   PO413890  10.509   4.837   6.183  0.1135  0.1052  0.0467
 1063YOPC   GL113891  10.549   4.597   6.632  0.1272  0.2326 -0.0516
 1063YOPC   GL213892  10.741   4.253   6.671  0.1723  0.3054 -0.3724
 1063YOPC   C1A13893  10.604   4.584   7.104  0.4093 -0.0737 -0.0879
 1063YOPC   D2A13894  10.500   4.306   7.457 -0.2386  0.1260 -0.1690
 1063YOPC   C3A13895  10.450   4.532   7.897 -0.3505  0.1184  0.1471
 1063YOPC   C4A13896  10.511   4.710   8.329 -0.1632 -0.1192 -0.1017
 1063YOPC   C1B13897  10.632   4.043   7.056 -0.2026 -0.3222  0.0957
 1063YOPC   C2B13898  10.747   3.881   7.410  0.1164  0.0682  0.0316
 1063YOPC   D3B13899  10.705   4.088   7.848  0.0553 -0.4712 -0.2616
 1063YOPC   C4B13900  10.668   4.133   8.221 -0.1912  0.3206  0.2649
 1064YOPC   NC313901  16.988  15.796   6.528  0.2480  0.1269 -0.1107
 1064YOPC   PO413902  17.429  15.671   6.726  0.0905 -0.1297 -0.4153
 1064YOPC   GL113903  17.089  15.638   6.994 -0.0027 -0.0583 -0.1030
 1064YOPC   GL213904  17.048  15.977   7.006 -0.0740 -0.0534  0.2385
 1064YOPC   C1A13905  16.980  15.607   7.365 -0.3480  0.2668 -0.0046
 1064YOPC   D2A13906  16.882  15.880   7.667 -0.0714  0.3722 -0.0158
 1064YOPC   C3A13907  16.861  15.876   8.128 -0.0488  0.0633 -0.0225
 1064YOPC   C4A13908  16.825  15.470   8.375  0.1306 -0.1755  0.1441
 1064YOPC   C1B13909  16.678  16.154   7.277  0.1197  0.0975 -0.0598
 1064YOPC   C2B13910  16.418  16.110   7.558  0.0141 -0.0655 -0.0946
 1064YOPC   D3B13911  16.398  15.785   7.845  0.3138  0.1826  0.2608
 1064YOPC   C4B13912  16.677  15.460   7.777 -0.1312  0.3568 -0.4583
 1065YOPC   NC313913   4.407   2.894   5.646 -0.1551  0.1350 -0.2915
 1065YOPC   PO413914   4.801   3.059   5.605 -0.4145 -0.0669  0.1585
 1065YOPC   GL113915   4.700   2.899   6.108 -0.0142 -0.1351  0.0255
 1065YOPC   GL213916   4.933   2.933   6.285  0.0392 -0.1115  0.1174
 1065YOPC   C1A13917   4.597   2.910   6.645 -0.3380  0.1257  0.0665
 1065YOPC   D2A13918   4.398   2.772   6.994 -0.0828 -0.0819 -0.1986
 1065YOPC   C3A13919   4.561   2.758   7.441 -0.1595  0.0441  0.1132
 1065YOPC   C4A13920   4.761   2.873   7.883 -0.0916 -0.0351 -0.1562
 1065YOPC   C1B13921   5.248   3.255   6.503  0.2176 -0.2249  0.2005
 1065YOPC   C2B13922   5.594   3.256   6.673 -0.1182 -0.2010  0.2071
 1065YOPC   D3B13923   5.456   3.208   7.045  0.1266  0.2941  0.0535
 1065YOPC   C4B13924   5.231   3.500   7.278 -0.0242 -0.0650  0.1173
 1066YOPC   NC313925   1.857   0.690   5.571 -0.2901 -0.3841  0.0903
 1066YOPC   PO413926   2.192   0.279   5.654  0.1634  0.1460 -0.2022
 1066YOPC   GL113927   2.085   0.563   6.036  0.0488 -0.1247 -0.3942
 1066YOPC   GL213928   2.142   0.933   6.011 -0.0393 -0.1095 -0.2608
 1066YOPC   C1A13929   2.110   0.700   6.501 -0.0757  0.0140 -0.0715
 1066YOPC   D2A13930   2.183   0.756   7.057  0.5662  0.0944 -0.1184
 1066YOPC   C3A13931   2.204   1.128   7.227 -0.0347 -0.1898 -0.0466
 1066YOPC   C4A13932   2.362   1.332   7.559 -0.0205 -0.0840  0.0569
 1066YOPC   C1B13933   2.393   1.194   6.253  0.1261  0.0021  0.0833
 1066YOPC   C2B13934   2.605   1.205   6.659 -0.1005  0.0409 -0.0141
 1066YOPC   D3B13935   2.850   1.544   6.775  0.1320  0.2244 -0.2877
 1066YOPC   C4B13936   3.033   1.596   7.147  0.1809 -0.0107  0.0082
 1067YOPC   NC313937   0.487  11.718   6.196  0.0442 -0.0576 -0.0213
 1067YOPC   PO413938   0.088  11.810   6.087 -0.0162 -0.2992  0.1410
 1067YOPC   GL113939   0.113  11.752   6.583 -0.2618  0.1527 -0.0747
 1067YOPC   GL213940   0.501  11.707   6.713  0.0735  0.1285  0.3897
 1067YOPC   C1A13941  -0.062  11.687   6.998 -0.2178  0.3440  0.3760
 1067YOPC   D2A13942  -0.226  11.650   7.301  0.2390  0.0364 -0.0481
 1067YOPC   C3A13943  -0.159  11.548   7.683  0.2630 -0.0462 -0.0593
 1067YOPC   C4A13944  -0.168  11.509   8.082  0.3269 -0.4274 -0.4314
 1067YOPC   C1B13945   0.399  11.822   7.083  0.1538  0.0942  0.0740
 1067YOPC   C2B13946   0.544  11.818   7.543 -0.1829 -0.0375  0.1471
 1067YOPC   D3B13947   0.272  11.789   7.959 -0.1313  0.0278  0.0044
 1067YOPC   C4B13948  -0.088  12.107   8.018 -0.2437 -0.0225  0.0637
 1068YOPC   NC313949   2.271  12.832   5.883 -0.3737 -0.0989 -0.2475
 1068YOPC   PO413950   1.851  12.933   6.012 -0.0411 -0.0808 -0.0976
 1068YOPC   GL113951   2.040  12.923   6.376  0.0814  0.2213 -0.0867
 1068YOPC   GL213952   2.326  12.734   6.426 -0.3583 -0.0015 -0.1596
 1068YOPC   C1A13953   1.932  12.919   6.776  0.1829 -0.0196 -0.0580
 1068YOPC   D2A13954   1.757  13.157   7.082 -0.0162 -0.2943 -0.2926
 1068YOPC   C3A13955   1.690  12.984   7.371  0.4509 -0.1110  0.0254
 1068YOPC   C4A13956   1.974  12.828   7.706 -0.2697  0.1141  0.0607
 1068YOPC   C1B13957   2.359  12.428   6.781  0.2241 -0.3579  0.0826
 1068YOPC   C2B13958   2.204  12.308   7.060 -0.2498  0.2738 -0.0911
 1068YOPC   D3B13959   2.373  12.218   7.342 -0.1446  0.1045  0.2399
 1068YOPC   C4B13960   2.468  11.923   7.734  0.0318 -0.0768  0.2351
 1069YOPC   NC313961  11.750  13.861   5.751 -0.0512 -0.1803 -0.2220
 1069YOPC   PO413962  11.158  13.872   5.545 -0.1531 -0.2625  0.0966
 1069YOPC   GL113963  11.337  13.732   5.958 -0.1828  0.0178  0.1438
 1069YOPC   GL213964  11.204  13.364   6.028  0.1255 -0.4000 -0.0251
 1069YOPC   C1A13965  11.503  13.684   6.391 -0.1338  0.0698  0.1574
 1069YOPC   D2A13966  11.633  13.933   6.839 -0.1855  0.1464 -0.1982
 1069YOPC   C3A13967  11.968  14.116   6.809 -0.1772 -0.2639  0.1119
 1069YOPC   C4A13968  12.245  14.415   6.947 -0.1956  0.0153 -0.3565
 1069YOPC   C1B13969  11.287  13.176   6.452  0.0078  0.0631  0.0579
 1069YOPC   C2B13970  11.258  13.503   6.819 -0.1577 -0.2334 -0.0948
 1069YOPC   D3B13971  11.143  13.303   7.179 -0.0906 -0.1242 -0.0476
 1069YOPC   C4B13972  11.052  12.813   7.386  0.1453 -0.2494 -0.1063
 1070YOPC   NC313973  17.698   8.795   5.613  0.1040  0.3378 -0.2170
 1070YOPC   PO413974  17.628   8.998   5.998 -0.2942  0.1547 -0.0233
 1070YOPC   GL113975  17.613   9.052   6.465  0.3597  0.1120  0.0427
 1070YOPC   GL213976  17.353   9.270   6.578  0.0726  0.1632 -0.2025
 1070YOPC   C1A13977  17.728   9.172   6.873  0.0611 -0.0678 -0.2674
 1070YOPC   D2A13978  17.703   9.111   7.336  0.1474 -0.1712 -0.2045
 1070YOPC   C3A13979  17.920   9.090   7.718  0.0985  0.0912  0.4068
 1070YOPC   C4A13980  17.807   8.935   8.079  0.3389 -0.0396 -0.2352
 1070YOPC   C1B13981  17.337   9.338   6.982  0.1244 -0.1095  0.0197
 1070YOPC   C2B13982  17.419   9.492   7.316  0.2593  0.1826 -0.0880
 1070YOPC   D3B13983  17.287   9.310   7.714  0.1350 -0.2865 -0.1729
 1070YOPC   C4B13984  17.310   9.095   8.104 -0.3207  0.0037  0.0084
 1071YOPC   NC313985   6.977   1.421   6.057  0.0654  0.1540 -0.0266
 1071YOPC   PO413986   6.574   1.397   5.892  0.0364  0.2781  0.2336
 1071YOPC   GL113987   6.564   1.078   6.239  0.2897  0.0915  0.2633
 1071YOPC   GL213988   6.841   1.094   6.397  0.0427 -0.1546 -0.2227
 1071YOPC   C1A13989   6.182   0.949   6.414 -0.0482  0.1019 -0.1493
 1071YOPC   D2A13990   6.065   0.938   6.822  0.0199  0.0870  0.0411
 1071YOPC   C3A13991   6.286   0.914   7.265  0.2801  0.3799  0.2796
 1071YOPC   C4A13992   6.051   0.945   7.648  0.0907 -0.2274 -0.2893
 1071YOPC   C1B13993   6.832   1.187   6.826 -0.0312  0.2075 -0.3108
 1071YOPC   C2B13994   6.777   1.186   7.257 -0.4907 -0.1505  0.1083
 1071YOPC   D3B13995   6.964   0.998   7.611 -0.0220  0.0722  0.2267
 1071YOPC   C4B13996   7.351   0.875   7.926 -0.1421 -0.0732 -0.2601
 1072YOPC   NC313997  13.430   9.172   5.901 -0.1440 -0.1041 -0.0332
 1072YOPC   PO413998  13.810   9.036   6.027 -0.0312 -0.0016 -0.1032
 1072YOPC   GL113999  13.812   9.002   6.409 -0.0675  0.3210  0.0875
 1072YOPC   GL214000  14.070   9.189   6.489 -0.2260  0.3373  0.3520
 1072YOPC   C1A14001  13.457   8.903   6.739  0.0349  0.0891  0.0018
 1072YOPC   D2A14002  13.334   8.778   7.160  0.1172 -0.3192 -0.0600
 1072YOPC   C3A14003  13.364   8.648   7.560 -0.1475 -0.1404  0.1263
 1072YOPC   C4A14004  13.344   8.446   7.957 -0.0198 -0.1256 -0.2916
 1072YOPC   C1B14005  13.813   9.332   6.742  0.0389  0.0819 -0.0980
 1072YOPC   C2B14006  13.696   9.080   7.188 -0.0457 -0.4923  0.0563
 1072YOPC   D3B14007  13.769   9.273   7.508  0.4424 -0.0941 -0.0827
 1072YOPC   C4B14008  13.846   9.310   7.920  0.0905  0.0347 -0.1043
 1073YOPC   NC314009  11.816   7.390   6.058 -0.2041 -0.0668  0.0341
 1073YOPC   PO414010  11.824   7.845   6.092 -0.2083 -0.0197 -0.0868
 1073YOPC   GL114011  11.808   7.829   6.561 -0.3111 -0.1476 -0.3789
 1073YOPC   GL214012  11.929   8.116   6.571 -0.2353  0.2482  0.0904
 1073YOPC   C1A14013  11.921   7.713   6.962  0.1675 -0.0913  0.0349
 1073YOPC   D2A14014  12.067   7.349   7.199  0.1835 -0.0720 -0.0574
 1073YOPC   C3A14015  11.971   7.468   7.669  0.0705 -0.1214 -0.1786
 1073YOPC   C4A14016  11.949   7.558   8.167  0.0854 -0.0630  0.1608
 1073YOPC   C1B14017  12.314   8.078   6.897 -0.0321 -0.1772  0.2450
 1073YOPC   C2B14018  12.222   7.962   7.401  0.2441  0.0900  0.2462
 1073YOPC   D3B14019  12.346   8.290   7.702  0.1526  0.1302  0.0547
 1073YOPC   C4B14020  12.299   8.595   8.035  0.2123  0.0457 -0.1626
 1074YOPC   NC314021   0.705   1.432   5.973 -0.1597  0.0873 -0.0924
 1074YOPC   PO414022   0.317   1.665   5.967 -0.0226 -0.2978 -0.1416
 1074YOPC   GL114023   0.246   1.759   6.398  0.0157 -0.0439 -0.1339
 1074YOPC   GL214024   0.235   1.510   6.731  0.1079 -0.1066  0.2596
 1074YOPC   C1A14025   0.504   2.012   6.646  0.2617 -0.1518 -0.2409
 1074YOPC   D2A14026   0.982   1.991   6.687  0.1748 -0.3608 -0.0582
 1074YOPC   C3A14027   1.247   1.745   6.449  0.3499 -0.3183  0.3602
 1074YOPC   C4A14028   1.434   1.645   6.162  0.1233  0.0464  0.0730
 1074YOPC   C1B14029   0.298   1.521   7.167 -0.0089  0.0020 -0.0523
 1074YOPC   C2B14030   0.329   1.668   7.585 -0.2408  0.2810 -0.0695
 1074YOPC   D3B14031   0.305   2.079   7.687 -0.0692 -0.1829 -0.3654
 1074YOPC   C4B14032   0.377   2.502   7.772 -0.0218  0.0980  0.1980
 1075YOPC   NC314033   1.286  12.967   6.074  0.4592  0.2986 -0.3683
 1075YOPC   PO414034   1.079  12.565   5.988  0.0345  0.2209  0.2753
 1075YOPC   GL114035   1.298  12.422   6.315 -0.0073 -0.1455 -0.0079
 1075YOPC   GL214036   1.565  12.635   6.297  0.0821  0.0894 -0.1806
 1075YOPC   C1A14037   1.376  12.221   6.734  0.0169  0.3758 -0.1430
 1075YOPC   D2A14038   1.360  11.976   7.200 -0.1660  0.0639  0.3483
 1075YOPC   C3A14039   1.428  11.661   7.054 -0.1178 -0.1675  0.0320
 1075YOPC   C4A14040   1.457  11.651   6.602  0.2562 -0.3597 -0.3248
 1075YOPC   C1B14041   1.886  12.449   6.561  0.0178  0.0310  0.1220
 1075YOPC   C2B14042   1.845  12.052   6.783 -0.0991  0.2102 -0.4225
 1075YOPC   D3B14043   1.850  11.998   7.271  0.2740  0.0853  0.0991
 1075YOPC   C4B14044   1.984  11.798   7.664  0.4446 -0.2028  0.0546
 1076YOPC   NC314045   3.865  17.448   5.425 -0.1216 -0.4718  0.0252
 1076YOPC   PO414046   3.641  17.010   5.360 -0.2739  0.3109 -0.1608
 1076YOPC   GL114047   3.674  16.830   5.724  0.0847  0.2320 -0.0471
 1076YOPC   GL214048   3.571  17.073   5.887 -0.3396  0.0571 -0.0064
 1076YOPC   C1A14049   3.972  16.778   6.114  0.1580  0.1214 -0.1267
 1076YOPC   D2A14050   4.188  16.730   6.519 -0.1076  0.1268  0.0252
 1076YOPC   C3A14051   4.100  17.115   6.758 -0.1195  0.1604  0.0642
 1076YOPC   C4A14052   3.900  17.423   6.965 -0.1224 -0.0911  0.0307
 1076YOPC   C1B14053   3.575  16.971   6.396 -0.3295  0.0514  0.2135
 1076YOPC   C2B14054   3.465  16.917   6.825 -0.0791 -0.0768  0.0542
 1076YOPC   D3B14055   3.719  17.023   7.188  0.0026 -0.1242  0.1121
 1076YOPC   C4B14056   3.882  17.111   7.552  0.3726 -0.4249  0.1084
 1077YOPC   NC314057   7.947  16.685   5.498  0.1030  0.0731 -0.0341
 1077YOPC   PO414058   8.377  16.805   5.695  0.0336  0.1965  0.0595
 1077YOPC   GL114059   8.161  16.625   5.960 -0.2112  0.0103  0.2735
 1077YOPC   GL214060   8.288  16.332   5.904 -0.0934  0.0419 -0.1748
 1077YOPC   C1A14061   8.133  16.501   6.387  0.1569 -0.1529  0.3007
 1077YOPC   D2A14062   8.049  16.668   6.835 -0.0725 -0.1531 -0.1037
 1077YOPC   C3A14063   7.963  16.651   7.309 -0.0011  0.2308  0.1255
 1077YOPC   C4A14064   7.604  16.572   7.590  0.0118  0.1873  0.2098
 1077YOPC   C1B14065   8.366  16.070   6.301 -0.1186  0.1473  0.3029
 1077YOPC   C2B14066   8.413  15.777   6.678 -0.2677 -0.0017  0.0191
 1077YOPC   D3B14067   8.554  15.599   6.984 -0.0707  0.2288 -0.1853
 1077YOPC   C4B14068   8.535  15.321   7.384  0.1624 -0.0088 -0.0431
 1078YOPC   NC314069  16.228   6.409   5.650  0.2506  0.1953  0.4966
 1078YOPC   PO414070  16.357   5.985   5.918 -0.0571 -0.1224  0.5016
 1078YOPC   GL114071  16.468   5.905   6.427  0.2021  0.1898 -0.1371
 1078YOPC   GL214072  16.253   6.150   6.561  0.1001 -0.0782 -0.0111
 1078YOPC   C1A14073  16.632   5.851   6.771  0.1226 -0.1246  0.0640
 1078YOPC   D2A14074  16.670   5.795   7.208  0.1147  0.2968  0.3614
 1078YOPC   C3A14075  16.802   5.766   7.642  0.0771  0.2021 -0.0864
 1078YOPC   C4A14076  17.106   5.684   7.823  0.0411  0.0208  0.1301
 1078YOPC   C1B14077  16.268   6.111   7.023  0.0568  0.2860  0.0510
 1078YOPC   C2B14078  16.307   6.065   7.432 -0.0476 -0.0281  0.2667
 1078YOPC   D3B14079  16.005   5.831   7.713 -0.2116 -0.0084  0.0848
 1078YOPC   C4B14080  15.986   5.442   7.905 -0.1839  0.0945  0.0712
 1079YOPC   NC314081   9.160   0.040   6.129  0.1863 -0.1662 -0.0074
 1079YOPC   PO414082   8.802  -0.280   6.047  0.1132 -0.0783  0.1636
 1079YOPC   GL114083   8.627  -0.328   6.453 -0.1134  0.0265 -0.2705
 1079YOPC   GL214084   8.375  -0.091   6.548  0.0196  0.1568 -0.0508
 1079YOPC   C1A14085   8.591  -0.454   6.855  0.1464 -0.1282 -0.0165
 1079YOPC   D2A14086   8.422  -0.650   7.182  0.0930 -0.0960 -0.1507
 1079YOPC   C3A14087   8.270  -0.392   7.504  0.1275  0.0433  0.3098
 1079YOPC   C4A14088   7.978  -0.173   7.652 -0.2461  0.1492  0.0354
 1079YOPC   C1B14089   8.289  -0.087   7.019  0.0429 -0.2396 -0.0287
 1079YOPC   C2B14090   8.108   0.181   7.293  0.0108 -0.1768 -0.1454
 1079YOPC   D3B14091   8.362   0.114   7.553  0.2978 -0.0108 -0.2478
 1079YOPC   C4B14092   8.288   0.121   7.996  0.2120  0.2096  0.1978
 1080YOPC   NC314093  10.957   9.643   5.977  0.1804 -0.3985  0.1761
 1080YOPC   PO414094  10.535   9.487   5.877 -0.1211 -0.2077 -0.0875
 1080YOPC   GL114095  10.524   9.475   6.325 -0.5025  0.0661  0.0870
 1080YOPC   GL214096  10.861   9.327   6.309 -0.0788 -0.0544 -0.1254
 1080YOPC   C1A14097  10.661   9.604   6.788  0.1938 -0.0123  0.1452
 1080YOPC   D2A14098  10.424   9.562   7.198 -0.0061 -0.1203  0.3470
 1080YOPC   C3A14099  10.475   9.644   7.656 -0.1219  0.0427 -0.3241
 1080YOPC   C4A14100  10.664   9.530   8.066  0.0118  0.0978 -0.0799
 1080YOPC   C1B14101  11.099   9.385   6.692 -0.0471  0.2827 -0.4304
 1080YOPC   C2B14102  11.276   9.789   6.867 -0.2527  0.0949  0.2818
 1080YOPC   D3B14103  11.447  10.046   7.176  0.0954 -0.2307 -0.4124
 1080YOPC   C4B14104  11.608  10.033   7.581  0.0663  0.1976 -0.2371
 1081YOPC   NC314105  18.101  12.295   5.888 -0.1260 -0.2137  0.0742
 1081YOPC   PO414106  18.348  12.713   6.067 -0.1095 -0.0858 -0.2988
 1081YOPC   GL114107  18.345  12.699   6.643 -0.1444  0.1397  0.2501
 1081YOPC   GL214108  18.693  12.894   6.803  0.0681 -0.0942  0.1331
 1081YOPC   C1A14109  18.614  12.450   6.945  0.0161 -0.2617 -0.2485
 1081YOPC   D2A14110  18.734  12.325   7.414  0.3494  0.0337  0.3060
 1081YOPC   C3A14111  18.479  12.332   7.832  0.2441  0.1115  0.1479
 1081YOPC   C4A14112  18.290  12.620   8.184 -0.0472  0.0332  0.1880
 1081YOPC   C1B14113  18.970  12.766   7.142 -0.2639  0.1017 -0.1117
 1081YOPC   C2B14114  19.092  12.654   7.429 -0.1152 -0.1267 -0.1066
 1081YOPC   D3B14115  19.534  12.561   7.554 -0.0887 -0.0172 -0.1024
 1081YOPC   C4B14116  19.743  12.655   7.889  0.1307 -0.1072 -0.1781
 1082YOPC   NC314117  17.572   0.655   6.230 -0.0514 -0.0918 -0.2273
 1082YOPC   PO414118  17.226   0.307   6.254  0.0500 -0.2104  0.0979
 1082YOPC   GL114119  17.341   0.424   6.636 -0.1406 -0.1628 -0.3440
 1082YOPC   GL214120  17.209   0.077   6.712  0.0042  0.0889 -0.0671
 1082YOPC   C1A14121  17.567   0.360   7.039  0.0644  0.1176  0.2266
 1082YOPC   D2A14122  17.460   0.426   7.453 -0.3204 -0.1371  0.1531
 1082YOPC   C3A14123  17.700   0.366   7.823 -0.0147 -0.0617  0.0208
 1082YOPC   C4A14124  18.096   0.415   8.165  0.0956  0.2065  0.1439
 1082YOPC   C1B14125  17.423  -0.128   6.975  0.0993  0.1099 -0.1803
 1082YOPC   C2B14126  17.560  -0.228   7.382  0.0356  0.3083 -0.4880
 1082YOPC   D3B14127  17.443  -0.010   7.659 -0.0513  0.0229 -0.3127
 1082YOPC   C4B14128  17.562  -0.033   8.048  0.0055 -0.1366  0.1204
 1083YOPC   NC314129  17.008  17.943   6.384  0.1086 -0.0303 -0.2349
 1083YOPC   PO414130  16.724  18.164   6.083  0.0573  0.1471 -0.1215
 1083YOPC   GL114131  16.639  18.203   6.528 -0.2804 -0.0310  0.2620
 1083YOPC   GL214132  16.330  18.219   6.546  0.1645 -0.1150 -0.1485
 1083YOPC   C1A14133  16.751  18.295   6.898 -0.0987 -0.0899 -0.0438
 1083YOPC   D2A14134  17.107  18.339   7.192  0.1889  0.0405  0.0366
 1083YOPC   C3A14135  17.068  18.833   7.043  0.0899 -0.0290 -0.2127
 1083YOPC   C4A14136  16.900  18.784   6.742 -0.1116  0.1371  0.0101
 1083YOPC   C1B14137  16.341  18.625   6.739  0.0452 -0.1612 -0.0131
 1083YOPC   C2B14138  16.385  18.582   7.182  0.0690  0.0212  0.1717
 1083YOPC   D3B14139  16.695  18.738   7.326 -0.0026 -0.0473  0.1031
 1083YOPC   C4B14140  16.949  18.512   7.690  0.1810 -0.0523  0.1149
 1084YOPC   NC314141   4.957  11.609   5.576 -0.0898  0.0459  0.0140
 1084YOPC   PO414142   5.145  11.246   5.683  0.1029  0.1836  0.1014
 1084YOPC   GL114143   5.001  10.905   5.966 -0.1560 -0.1352  0.0812
 1084YOPC   GL214144   5.292  10.721   5.984  0.0532  0.3588  0.0002
 1084YOPC   C1A14145   4.862  10.742   6.399 -0.0092 -0.0654  0.1551
 1084YOPC   D2A14146   5.060  10.753   6.854 -0.3181 -0.0676 -0.1092
 1084YOPC   C3A14147   5.005  10.742   7.311 -0.0563  0.0176 -0.0877
 1084YOPC   C4A14148   5.126  10.567   7.717  0.1042  0.0800 -0.0398
 1084YOPC   C1B14149   5.371  10.665   6.297 -0.0518 -0.1312 -0.1563
 1084YOPC   C2B14150   5.549  10.955   6.624 -0.1030 -0.1175  0.1305
 1084YOPC   D3B14151   5.526  10.766   7.042  0.1135  0.1442  0.0783
 1084YOPC   C4B14152   5.538  10.673   7.427 -0.1218  0.3355 -0.2110
 1085YOPC   NC314153   6.138   0.292   5.688 -0.1186  0.0558  0.0549
 1085YOPC   PO414154   5.813   0.488   5.866 -0.1055 -0.0302  0.0324
 1085YOPC   GL114155   5.521   0.677   6.096  0.1347  0.0804 -0.0619
 1085YOPC   GL214156   5.718   0.878   6.283 -0.0415 -0.0549  0.5453
 1085YOPC   C1A14157   5.166   0.657   6.369 -0.0436 -0.0392  0.2314
 1085YOPC   D2A14158   4.958   0.713   6.813  0.1048 -0.1250 -0.0834
 1085YOPC   C3A14159   4.686   0.330   7.052  0.2280 -0.0922 -0.2103
 1085YOPC   C4A14160   4.592   0.399   7.416  0.2190 -0.0455  0.0472
 1085YOPC   C1B14161   5.795   1.293   6.530 -0.1216  0.1790  0.1214
 1085YOPC   C2B14162   5.894   1.437   6.908  0.0872 -0.1403  0.3263
 1085YOPC   D3B14163   5.906   1.258   7.280  0.0209  0.1869 -0.0778
 1085YOPC   C4B14164   5.594   1.199   7.485 -0.0679 -0.3005  0.2167
 1086YOPC   NC314165  14.221   6.383   5.840 -0.2562 -0.3185  0.4155
 1086YOPC   PO414166  14.061   6.610   6.132  0.0750 -0.0744 -0.3176
 1086YOPC   GL114167  14.044   6.685   6.507 -0.1435 -0.0185  0.0833
 1086YOPC   GL214168  14.122   6.518   6.753  0.1161 -0.0255  0.0920
 1086YOPC   C1A14169  13.953   7.086   6.872  0.2329  0.2228 -0.0789
 1086YOPC   D2A14170  13.941   7.373   7.197  0.0953  0.2454  0.0448
 1086YOPC   C3A14171  14.023   7.432   7.628  0.1942  0.0721 -0.1119
 1086YOPC   C4A14172  14.157   7.570   7.989 -0.1525 -0.2223 -0.0665
 1086YOPC   C1B14173  14.351   6.646   7.123 -0.1165  0.0569 -0.1320
 1086YOPC   C2B14174  14.307   7.032   7.393 -0.0497 -0.2261  0.3087
 1086YOPC   D3B14175  14.444   7.090   7.720  0.1701 -0.2112 -0.0564
 1086YOPC   C4B14176  14.558   7.205   8.113  0.1658  0.2141  0.0311
 1087YOPC   NC314177   5.390   3.137   5.055  0.1136  0.0357 -0.1376
 1087YOPC   PO414178   5.629   2.883   5.399  0.1056  0.1043 -0.1910
 1087YOPC   GL114179   5.681   2.708   5.829 -0.0051  0.1557 -0.1600
 1087YOPC   GL214180   6.019   2.630   5.802  0.2619  0.0533  0.1775
 1087YOPC   C1A14181   5.669   2.402   6.271 -0.0285  0.1097  0.3787
 1087YOPC   D2A14182   5.836   2.378   6.652 -0.0045  0.1172  0.0870
 1087YOPC   C3A14183   5.693   2.673   7.004  0.3005  0.2394 -0.1414
 1087YOPC   C4A14184   5.373   2.698   7.177  0.0788  0.1394  0.0097
 1087YOPC   C1B14185   6.173   2.405   6.209 -0.2021 -0.2068 -0.0619
 1087YOPC   C2B14186   6.337   2.274   6.533  0.2865 -0.2033 -0.0784
 1087YOPC   D3B14187   6.249   2.286   6.993  0.2793  0.2041  0.2022
 1087YOPC   C4B14188   6.151   2.571   7.318 -0.3507  0.1556  0.0449
 1088YOPC   NC314189  11.436  13.461   5.500  0.1433  0.1550 -0.2086
 1088YOPC   PO414190  11.693  13.131   5.778 -0.2212 -0.0393  0.1734
 1088YOPC   GL114191  11.704  13.265   6.185  0.0487  0.0045 -0.3891
 1088YOPC   GL214192  11.984  13.027   6.192  0.0560 -0.1609 -0.1450
 1088YOPC   C1A14193  11.729  13.255   6.665 -0.1205  0.1105  0.2971
 1088YOPC   D2A14194  11.619  13.405   7.126  0.3014  0.0282  0.2919
 1088YOPC   C3A14195  11.813  13.679   7.322  0.0644 -0.1349 -0.3332
 1088YOPC   C4A14196  12.134  13.881   7.641  0.2384  0.3070  0.3118
 1088YOPC   C1B14197  12.075  12.910   6.633  0.1230  0.0874 -0.1756
 1088YOPC   C2B14198  12.001  13.022   7.068  0.0742  0.1594  0.1055
 1088YOPC   D3B14199  12.384  12.993   7.250  0.2903  0.1329  0.0957
 1088YOPC   C4B14200  12.622  13.092   7.555  0.0211  0.4501  0.2453
 1089YOPC   NC314201  16.786   3.191   6.300 -0.0269  0.1951 -0.1927
 1089YOPC   PO414202  16.852   2.793   5.975  0.0356 -0.0388  0.1068
 1089YOPC   GL114203  16.655   2.640   6.407  0.1542  0.1725  0.0803
 1089YOPC   GL214204  16.400   2.910   6.497 -0.1064 -0.0693 -0.1781
 1089YOPC   C1A14205  16.664   2.427   6.815 -0.1070 -0.0181 -0.0311
 1089YOPC   D2A14206  16.682   2.394   7.295  0.0898  0.0085  0.0661
 1089YOPC   C3A14207  16.518   2.633   7.583  0.2897  0.1913 -0.1420
 1089YOPC   C4A14208  16.294   2.675   7.954  0.0029  0.0524  0.1512
 1089YOPC   C1B14209  16.496   2.905   6.871  0.1676  0.2473  0.1285
 1089YOPC   C2B14210  16.248   2.944   7.200 -0.0019  0.1803  0.0631
 1089YOPC   D3B14211  16.445   3.127   7.616  0.0927 -0.1307  0.0488
 1089YOPC   C4B14212  16.770   2.890   7.892  0.0797  0.0075 -0.0280
 1090YOPC   NC314213   8.253  15.629   5.392  0.1074 -0.0723  0.3029
 1090YOPC   PO414214   8.294  15.959   5.594 -0.0951  0.0538  0.0566
 1090YOPC   GL114215   8.384  15.702   5.842 -0.0406  0.1175 -0.2581
 1090YOPC   GL214216   8.197  15.545   6.118  0.0924 -0.1428 -0.0242
 1090YOPC   C1A14217   8.762  15.666   6.153 -0.1626 -0.3345 -0.2279
 1090YOPC   D2A14218   8.921  15.546   6.594  0.2626 -0.0319  0.0687
 1090YOPC   C3A14219   9.041  15.836   6.816 -0.2261 -0.0552 -0.0686
 1090YOPC   C4A14220   9.269  15.992   7.051  0.0056 -0.0735 -0.1783
 1090YOPC   C1B14221   8.486  15.316   6.542  0.0568 -0.0722 -0.1757
 1090YOPC   C2B14222   8.639  15.167   6.832 -0.3243  0.1088 -0.1202
 1090YOPC   D3B14223   8.951  15.310   7.114 -0.0494 -0.2207  0.0121
 1090YOPC   C4B14224   8.896  15.750   7.304 -0.0582 -0.0903 -0.0642
 1091YOPC   NC314225   3.374  15.476   6.111 -0.2547  0.1242  0.2003
 1091YOPC   PO414226   3.017  15.704   5.928 -0.4131 -0.1664  0.0077
 1091YOPC   GL114227   3.211  15.949   6.267  0.1662 -0.2783 -0.2540
 1091YOPC   GL214228   3.019  16.099   6.509  0.0795 -0.2152  0.1504
 1091YOPC   C1A14229   3.528  16.052   6.623  0.1020 -0.0481 -0.1468
 1091YOPC   D2A14230   3.680  16.092   7.063  0.2395  0.1360 -0.2095
 1091YOPC   C3A14231   3.894  15.781   7.383 -0.1942 -0.1819  0.2580
 1091YOPC   C4A14232   4.088  15.653   7.660 -0.0558  0.0237 -0.1530
 1091YOPC   C1B14233   3.091  16.145   6.992 -0.2250  0.2518 -0.2312
 1091YOPC   C2B14234   2.918  16.037   7.273 -0.3246  0.1920  0.1975
 1091YOPC   D3B14235   2.978  16.091   7.752 -0.1440 -0.0373 -0.0560
 1091YOPC   C4B14236   3.105  16.380   8.011 -0.1529  0.1254 -0.1702
 1092YOPC   NC314237   7.240  12.510   5.726  0.1534 -0.3125 -0.0255
 1092YOPC   PO414238   6.972  12.143   5.609  0.2302  0.1234  0.2212
 1092YOPC   GL114239   6.761  12.235   5.961 -0.1022  0.1248 -0.0203
 1092YOPC   GL214240   6.704  12.628   5.936  0.1475 -0.1519  0.0958
 1092YOPC   C1A14241   6.731  12.426   6.364 -0.0484  0.1575 -0.1612
 1092YOPC   D2A14242   6.994  12.666   6.627  0.1160 -0.1351  0.0713
 1092YOPC   C3A14243   7.008  12.559   7.104 -0.2451 -0.1156  0.3767
 1092YOPC   C4A14244   6.739  12.521   7.340 -0.0348 -0.1883  0.1030
 1092YOPC   C1B14245   6.773  13.012   6.195  0.1667 -0.2423 -0.1791
 1092YOPC   C2B14246   6.709  13.300   6.503  0.0386 -0.1141  0.1198
 1092YOPC   D3B14247   6.851  13.507   6.910 -0.0930  0.1562 -0.2318
 1092YOPC   C4B14248   6.947  13.693   7.324  0.2774  0.4440  0.1428
 1093YOPC   NC314249  11.841   4.694   5.987  0.0943 -0.0825  0.0686
 1093YOPC   PO414250  11.728   4.279   6.253  0.0230  0.0630 -0.2347
 1093YOPC   GL114251  11.813   4.147   6.640 -0.1245  0.0326  0.1172
 1093YOPC   GL214252  11.512   4.136   6.671 -0.1102  0.0405  0.0513
 1093YOPC   C1A14253  11.844   4.036   7.079  0.1352 -0.3075  0.4982
 1093YOPC   D2A14254  11.598   4.011   7.453  0.0398 -0.0218 -0.0436
 1093YOPC   C3A14255  11.697   4.198   7.896 -0.1321 -0.1850 -0.2787
 1093YOPC   C4A14256  11.437   4.222   8.226  0.3010 -0.1021  0.1532
 1093YOPC   C1B14257  11.625   4.502   7.025  0.0534 -0.0367 -0.3187
 1093YOPC   C2B14258  11.526   4.568   7.539  0.0376 -0.0047 -0.2151
 1093YOPC   D3B14259  11.404   4.725   7.949  0.2802  0.0132 -0.0115
 1093YOPC   C4B14260  11.374   4.825   8.392 -0.0169 -0.1562  0.2536
 1094YOPC   NC314261   7.843   0.740   5.827  0.2910 -0.1124 -0.1365
 1094YOPC   PO414262   7.709   1.106   6.061 -0.1543  0.2392 -0.0438
 1094YOPC   GL114263   7.579   1.037   6.522  0.1445 -0.2108  0.0097
 1094YOPC   GL214264   7.325   1.049   6.552 -0.2000  0.2004  0.5283
 1094YOPC   C1A14265   7.593   0.744   6.780 -0.3564 -0.0517  0.1660
 1094YOPC   D2A14266   7.869   0.861   7.003 -0.4453 -0.2440  0.0435
 1094YOPC   C3A14267   7.978   0.824   7.452  0.0620 -0.2117  0.0717
 1094YOPC   C4A14268   8.030   0.526   7.738 -0.2383  0.2042  0.2141
 1094YOPC   C1B14269   7.372   1.063   7.069  0.0125  0.0484 -0.1894
 1094YOPC   C2B14270   7.491   0.910   7.420  0.2364  0.0939 -0.0714
 1094YOPC   D3B14271   7.500   0.562   7.567 -0.0388  0.1227 -0.2258
 1094YOPC   C4B14272   7.173   0.128   7.682  0.0420  0.0152  0.0071
 1095YOPC   NC314273  13.775  18.106   5.798  0.2043 -0.1072  0.0153
 1095YOPC   PO414274  13.363  18.036   5.832 -0.1326 -0.2984  0.3191
 1095YOPC   GL114275  13.204  17.934   6.166  0.0929  0.3577 -0.0068
 1095YOPC   GL214276  13.415  18.023   6.393  0.2936 -0.2821  0.0603
 1095YOPC   C1A14277  12.811  17.945   6.316  0.1614  0.1557 -0.2133
 1095YOPC   D2A14278  12.314  17.775   6.427 -0.0305  0.0580  0.2350
 1095YOPC   C3A14279  12.122  17.402   6.734  0.2779 -0.0376  0.0834
 1095YOPC   C4A14280  11.876  17.182   6.630  0.2468 -0.1896  0.0403
 1095YOPC   C1B14281  13.148  18.045   6.681 -0.0244  0.0744  0.1852
 1095YOPC   C2B14282  12.962  18.085   7.059 -0.0236 -0.3417 -0.0676
 1095YOPC   D3B14283  12.569  18.084   6.907  0.0732 -0.0297 -0.0282
 1095YOPC   C4B14284  12.085  17.998   6.827 -0.1092  0.1693  0.1710
 1096YOPC   NC314285  15.444   5.701   6.076 -0.0300  0.0728 -0.1312
 1096YOPC   PO414286  15.527   5.836   6.466 -0.1179  0.2164 -0.1518
 1096YOPC   GL114287  15.338   5.630   6.878  0.1061  0.0115 -0.0826
 1096YOPC   GL214288  15.421   5.268   6.774 -0.1671 -0.1531 -0.1108
 1096YOPC   C1A14289  15.531   5.643   7.238 -0.2866 -0.1963  0.0513
 1096YOPC   D2A14290  15.522   5.734   7.643 -0.0197 -0.0573 -0.0335
 1096YOPC   C3A14291  15.489   5.813   7.995 -0.2207  0.1699  0.0537
 1096YOPC   C4A14292  15.806   5.799   8.253  0.0564 -0.3034 -0.2569
 1096YOPC   C1B14293  15.239   5.224   7.180 -0.1864  0.2014 -0.2303
 1096YOPC   C2B14294  15.018   5.010   7.509  0.0655 -0.0395  0.0338
 1096YOPC   D3B14295  14.945   4.981   7.948  0.1605  0.3851  0.1478
 1096YOPC   C4B14296  15.164   4.754   8.272 -0.0676 -0.1924 -0.0229
 1097YOPC   NC314297  13.038   0.330   5.978  0.2767  0.1585  0.2472
 1097YOPC   PO414298  13.176   0.710   6.030 -0.1166  0.0395 -0.0006
 1097YOPC   GL114299  13.120   0.833   6.427 -0.2225  0.3886 -0.0248
 1097YOPC   GL214300  12.813   0.810   6.512 -0.1853 -0.0880  0.2220
 1097YOPC   C1A14301  13.088   0.594   6.927  0.1457  0.3745 -0.1640
 1097YOPC   D2A14302  13.090   0.663   7.320 -0.0583 -0.1508  0.2257
 1097YOPC   C3A14303  12.921   0.493   7.643 -0.2836  0.0714 -0.0453
 1097YOPC   C4A14304  12.713   0.468   8.037  0.0883  0.3826  0.1952
 1097YOPC   C1B14305  12.683   0.406   6.717 -0.0246 -0.0704 -0.0551
 1097YOPC   C2B14306  12.694   0.301   7.178 -0.1441 -0.0749  0.3023
 1097YOPC   D3B14307  12.580   0.110   7.621 -0.1091 -0.5771 -0.1766
 1097YOPC   C4B14308  12.771  -0.057   7.925 -0.3726  0.1856 -0.3728
 1098YOPC   NC314309  17.765   4.848   5.750 -0.1617 -0.0238 -0.1640
 1098YOPC   PO414310  17.468   5.113   6.030  0.1859 -0.0830 -0.3560
 1098YOPC   GL114311  17.497   5.305   6.391 -0.2042  0.2056  0.3032
 1098YOPC   GL214312  17.446   5.093   6.621 -0.0105  0.0084  0.1156
 1098YOPC   C1A14313  17.581   5.529   6.774  0.1032 -0.0354 -0.1970
 1098YOPC   D2A14314  17.467   5.472   7.235 -0.0371 -0.2650 -0.1629
 1098YOPC   C3A14315  17.621   5.656   7.661  0.2942 -0.0266  0.0807
 1098YOPC   C4A14316  17.586   5.702   7.980  0.1101  0.0720  0.2064
 1098YOPC   C1B14317  17.777   4.825   6.908 -0.1573 -0.0912 -0.4591
 1098YOPC   C2B14318  18.141   4.795   7.268  0.1778  0.2413  0.2381
 1098YOPC   D3B14319  18.024   4.731   7.729  0.0222  0.0068  0.0540
 1098YOPC   C4B14320  17.899   4.499   8.065 -0.0580  0.2982  0.0989
 1099YOPC   NC314321   1.868  18.002   5.658 -0.1652  0.2775 -0.2010
 1099YOPC   PO414322   1.939  17.632   5.923  0.1076 -0.0480 -0.0834
 1099YOPC   GL114323   1.814  17.715   6.384 -0.0866  0.4274 -0.2319
 1099YOPC   GL214324   1.552  17.554   6.385 -0.1163 -0.0233 -0.2725
 1099YOPC   C1A14325   1.853  17.981   6.654 -0.1355  0.1012  0.0710
 1099YOPC   D2A14326   1.698  17.986   6.996  0.0863 -0.1353 -0.0116
 1099YOPC   C3A14327   1.956  18.001   7.361 -0.0505 -0.1440 -0.1748
 1099YOPC   C4A14328   2.243  17.825   7.574 -0.2792  0.1963 -0.3320
 1099YOPC   C1B14329   1.589  17.495   6.869  0.1109  0.0666  0.1008
 1099YOPC   C2B14330   1.821  17.557   7.214  0.0591 -0.0822 -0.3655
 1099YOPC   D3B14331   1.609  17.718   7.635 -0.2869  0.0753  0.0952
 1099YOPC   C4B14332   1.854  18.136   7.826 -0.0725  0.0831 -0.0851
 1100YOPC   NC314333   1.307  12.120   5.899 -0.2263  0.0265 -0.0458
 1100YOPC   PO414334   1.250  11.685   5.972 -0.1868 -0.1380 -0.2010
 1100YOPC   GL114335   1.006  11.915   6.330 -0.0161  0.1511  0.0149
 1100YOPC   GL214336   0.804  12.191   6.253  0.0162 -0.2587  0.0046
 1100YOPC   C1A14337   1.032  11.855   6.835  0.1386 -0.2059  0.0603
 1100YOPC   D2A14338   0.881  11.628   7.138 -0.1441  0.1655 -0.3350
 1100YOPC   C3A14339   0.970  11.541   7.579  0.0458 -0.0462  0.1012
 1100YOPC   C4A14340   0.738  11.492   7.986  0.0821 -0.0641 -0.1900
 1100YOPC   C1B14341   0.866  12.272   6.708 -0.2353  0.0955  0.2482
 1100YOPC   C2B14342   0.992  12.289   7.064  0.1211 -0.1220  0.1121
 1100YOPC   D3B14343   1.007  12.131   7.513  0.2541 -0.2046  0.1909
 1100YOPC   C4B14344   0.739  12.030   7.917 -0.0168  0.1035  0.0755
 1101YOPC   NC314345   9.328  14.986   5.244  0.1977 -0.1043  0.1387
 1101YOPC   PO414346   9.428  14.525   5.454 -0.1244  0.0547  0.0957
 1101YOPC   GL114347   9.314  14.411   5.891 -0.1476  0.0228 -0.1131
 1101YOPC   GL214348   8.968  14.377   5.920 -0.2245  0.2148  0.0006
 1101YOPC   C1A14349   9.410  14.311   6.362 -0.3726 -0.0943 -0.0389
 1101YOPC   D2A14350   9.287  14.232   6.766  0.0582 -0.3813  0.0250
 1101YOPC   C3A14351   9.022  14.242   7.125 -0.0155 -0.2836  0.0834
 1101YOPC   C4A14352   9.174  14.413   7.476 -0.2035 -0.1162  0.1173
 1101YOPC   C1B14353   8.933  14.352   6.311  0.1520  0.0983  0.0443
 1101YOPC   C2B14354   8.806  14.247   6.702  0.3020 -0.3249 -0.1060
 1101YOPC   D3B14355   8.530  14.484   7.002 -0.1371 -0.0239  0.0254
 1101YOPC   C4B14356   8.536  14.774   7.317 -0.0415  0.0654 -0.1355
 1102YOPC   NC314357   9.546   0.004   5.472 -0.3379  0.0711 -0.1217
 1102YOPC   PO414358   9.599   0.145   5.888  0.3073 -0.0846  0.0412
 1102YOPC   GL114359   9.612   0.120   6.314  0.0073  0.2456 -0.1385
 1102YOPC   GL214360   9.871  -0.041   6.352 -0.2119 -0.2719  0.3394
 1102YOPC   C1A14361   9.365   0.066   6.756 -0.4000  0.1598  0.1123
 1102YOPC   D2A14362   9.289   0.192   7.220  0.1870 -0.1241  0.0381
 1102YOPC   C3A14363   8.921   0.134   7.551 -0.2915 -0.0509  0.3288
 1102YOPC   C4A14364   8.810   0.099   7.920  0.2874 -0.4535 -0.0525
 1102YOPC   C1B14365   9.810  -0.150   6.760 -0.1405 -0.2269  0.5997
 1102YOPC   C2B14366   9.798   0.167   7.059  0.1216 -0.0077 -0.0019
 1102YOPC   D3B14367   9.667   0.224   7.535  0.0418  0.0083  0.1221
 1102YOPC   C4B14368   9.840   0.062   7.866 -0.1128  0.1206 -0.2031
 1103YOPC   NC314369  15.603   8.076   5.898  0.0811 -0.3271 -0.0516
 1103YOPC   PO414370  15.516   8.436   6.008  0.1362 -0.1490  0.1896
 1103YOPC   GL114371  15.515   8.388   6.452 -0.3287 -0.2264  0.2896
 1103YOPC   GL214372  15.672   8.648   6.457 -0.0310 -0.1097  0.3236
 1103YOPC   C1A14373  15.339   8.232   6.935 -0.1034  0.0656  0.4029
 1103YOPC   D2A14374  15.328   8.275   7.350 -0.1605  0.0371  0.0497
 1103YOPC   C3A14375  15.437   8.461   7.689  0.0284  0.0036 -0.0294
 1103YOPC   C4A14376  15.586   8.735   7.923 -0.2083  0.2567 -0.0424
 1103YOPC   C1B14377  15.808   8.565   6.931  0.1657 -0.1646  0.2843
 1103YOPC   C2B14378  15.716   8.624   7.294  0.2368  0.0733  0.1052
 1103YOPC   D3B14379  15.988   8.857   7.556  0.0068 -0.0905  0.1180
 1103YOPC   C4B14380  16.065   9.068   8.003  0.1641  0.2308 -0.1450
 1104YOPC   NC314381  11.995  15.287   5.400 -0.0298 -0.2095  0.3646
 1104YOPC   PO414382  12.181  14.844   5.529  0.2648 -0.0158 -0.1974
 1104YOPC   GL114383  12.412  14.728   5.933  0.2699  0.1509 -0.2215
 1104YOPC   GL214384  12.538  14.934   6.200  0.1584 -0.0675  0.0495
 1104YOPC   C1A14385  12.592  14.448   6.304  0.1151  0.2443  0.1402
 1104YOPC   D2A14386  12.549  14.184   6.641  0.2343 -0.2611  0.0601
 1104YOPC   C3A14387  12.397  13.862   6.708  0.1578  0.1154  0.0133
 1104YOPC   C4A14388  12.026  13.649   6.919 -0.1691 -0.1201  0.4834
 1104YOPC   C1B14389  12.436  14.812   6.588  0.0070 -0.0907 -0.1244
 1104YOPC   C2B14390  12.375  14.884   7.047  0.1376  0.1557 -0.3091
 1104YOPC   D3B14391  12.203  14.836   7.358 -0.0396  0.2061  0.0688
 1104YOPC   C4B14392  12.022  14.916   7.713 -0.1128 -0.1177  0.0791
 1105YOPC   NC314393   1.767   1.860   5.424 -0.2966 -0.0454  0.0218
 1105YOPC   PO414394   1.488   2.028   5.658  0.1866  0.1800 -0.2067
 1105YOPC   GL114395   1.775   2.060   6.096 -0.0722 -0.5733  0.4219
 1105YOPC   GL214396   1.739   2.424   6.160 -0.2133 -0.1739 -0.0034
 1105YOPC   C1A14397   1.520   2.144   6.500 -0.1123 -0.0015  0.2252
 1105YOPC   D2A14398   1.405   2.183   6.906  0.0089  0.2418 -0.0510
 1105YOPC   C3A14399   1.028   2.028   7.154  0.0565  0.0229  0.0579
 1105YOPC   C4A14400   0.528   1.986   7.154 -0.0649  0.1268  0.0842
 1105YOPC   C1B14401   1.683   2.643   6.621 -0.0185  0.0027 -0.1992
 1105YOPC   C2B14402   1.714   2.577   7.158 -0.0655 -0.0018 -0.3218
 1105YOPC   D3B14403   1.497   2.361   7.458  0.0461  0.1521  0.0801
 1105YOPC   C4B14404   1.293   2.125   7.768  0.1079 -0.1068 -0.1358
 1106YOPC   NC314405   4.646   7.678   5.728  0.3031  0.0291 -0.0455
 1106YOPC   PO414406   4.398   7.195   5.710  0.1069  0.0964 -0.0511
 1106YOPC   GL114407   4.622   6.879   5.958 -0.3240 -0.2866  0.0335
 1106YOPC   GL214408   4.787   6.519   5.859  0.0747  0.2218 -0.0888
 1106YOPC   C1A14409   4.717   6.733   6.373 -0.3350  0.2520 -0.0915
 1106YOPC   D2A14410   4.886   6.780   6.776  0.0148  0.0542 -0.0046
 1106YOPC   C3A14411   4.615   6.677   7.032  0.3068  0.1788 -0.4017
 1106YOPC   C4A14412   4.391   6.448   7.316  0.0252 -0.1272 -0.4684
 1106YOPC   C1B14413   5.151   6.689   6.090  0.4582 -0.2790 -0.1729
 1106YOPC   C2B14414   5.332   6.661   6.494 -0.1456 -0.1765  0.0492
 1106YOPC   D3B14415   5.378   6.455   6.789  0.1774  0.0656  0.0749
 1106YOPC   C4B14416   5.322   6.239   7.046 -0.1019 -0.0277  0.1741
 1107YOPC   NC314417   6.299   7.595   5.751 -0.1823  0.0988 -0.2115
 1107YOPC   PO414418   6.063   7.210   5.694  0.1235  0.0917 -0.0095
 1107YOPC   GL114419   6.062   6.880   6.023  0.2793 -0.4787  0.3795
 1107YOPC   GL214420   6.274   6.792   6.348 -0.0796  0.1513 -0.1242
 1107YOPC   C1A14421   5.719   6.658   6.234 -0.0003 -0.0281  0.0420
 1107YOPC   D2A14422   5.569   6.282   6.279 -0.1533  0.0986  0.0960
 1107YOPC   C3A14423   5.509   6.011   6.646 -0.1148  0.1166  0.0338
 1107YOPC   C4A14424   5.098   5.792   6.738  0.0491 -0.0635  0.0440
 1107YOPC   C1B14425   6.183   6.837   6.777 -0.1393 -0.0126 -0.0867
 1107YOPC   C2B14426   6.198   7.040   7.133 -0.1442  0.3151  0.2241
 1107YOPC   D3B14427   5.837   6.977   7.414 -0.2126 -0.2313  0.2781
 1107YOPC   C4B14428   5.352   6.902   7.580 -0.1177 -0.0263  0.0955
 1108YOPC   NC314429  13.767  11.619   6.038 -0.1063 -0.0558 -0.0427
 1108YOPC   PO414430  14.070  11.283   6.128  0.2205 -0.0415  0.1688
 1108YOPC   GL114431  14.043  11.311   6.462  0.2979  0.1137 -0.3090
 1108YOPC   GL214432  14.244  11.552   6.570 -0.0786 -0.2923 -0.0726
 1108YOPC   C1A14433  13.995  11.219   6.888 -0.2321 -0.0490  0.0978
 1108YOPC   D2A14434  14.059  11.265   7.307 -0.0163 -0.3948  0.0868
 1108YOPC   C3A14435  14.003  10.863   7.546 -0.0509  0.0246 -0.0480
 1108YOPC   C4A14436  13.933  10.740   8.001 -0.1857  0.0974  0.2060
 1108YOPC   C1B14437  14.363  11.557   6.956 -0.1018 -0.1249 -0.1687
 1108YOPC   C2B14438  14.435  11.599   7.346 -0.0722  0.2053 -0.1553
 1108YOPC   D3B14439  14.147  11.454   7.729 -0.1426 -0.1359 -0.0655
 1108YOPC   C4B14440  14.196  11.140   8.058  0.2068  0.3015 -0.0504
 1109YOPC   NC314441  14.684  14.475   6.375  0.3975  0.0137 -0.2846
 1109YOPC   PO414442  14.434  14.855   6.341  0.1954  0.1336 -0.3211
 1109YOPC   GL114443  14.239  14.871   6.718  0.1651  0.0526  0.0267
 1109YOPC   GL214444  13.925  14.706   6.765 -0.0713  0.0802  0.0267
 1109YOPC   C1A14445  14.338  14.777   7.040 -0.2647  0.1348 -0.0684
 1109YOPC   D2A14446  14.487  14.718   7.466 -0.0647  0.0393 -0.2806
 1109YOPC   C3A14447  14.351  14.638   8.041 -0.3383 -0.1968  0.3873
 1109YOPC   C4A14448  14.185  14.504   8.367 -0.0124  0.1193  0.0317
 1109YOPC   C1B14449  13.590  14.436   6.918  0.0567 -0.1126 -0.1134
 1109YOPC   C2B14450  13.134  14.325   7.075  0.0274 -0.0827  0.1650
 1109YOPC   D3B14451  12.908  14.055   6.971  0.3242 -0.3203 -0.2641
 1109YOPC   C4B14452  12.454  13.950   7.168  0.3650 -0.1164 -0.0719
 1110YOPC   NC314453   1.594   5.382   5.580  0.0750 -0.0536  0.0657
 1110YOPC   PO414454   1.442   5.082   5.791 -0.0302 -0.3657 -0.2405
 1110YOPC   GL114455   1.530   5.038   6.212  0.0195  0.1343 -0.2692
 1110YOPC   GL214456   1.756   4.858   6.485 -0.5738 -0.0083  0.0518
 1110YOPC   C1A14457   1.397   5.133   6.618 -0.0497  0.0961 -0.0156
 1110YOPC   D2A14458   1.204   5.080   7.056  0.0429 -0.1454  0.0345
 1110YOPC   C3A14459   1.454   4.980   7.351  0.1968 -0.1597  0.0355
 1110YOPC   C4A14460   1.488   4.861   7.852  0.0583 -0.2586  0.1858
 1110YOPC   C1B14461   1.807   4.867   6.969  0.2515  0.0173  0.2447
 1110YOPC   C2B14462   1.905   4.879   7.439  0.0498  0.2584  0.0874
 1110YOPC   D3B14463   1.848   5.248   7.673  0.2327  0.0543 -0.0783
 1110YOPC   C4B14464   1.648   5.386   7.975  0.0237  0.2721  0.0287
 1111YOPC   NC314465  15.245   0.688   6.179  0.0970  0.1784 -0.1333
 1111YOPC   PO414466  14.834   0.675   6.042 -0.2003 -0.0905 -0.1189
 1111YOPC   GL114467  14.955   0.750   6.569  0.0246  0.3509  0.0328
 1111YOPC   GL214468  14.690   0.969   6.611 -0.0261  0.1768  0.1005
 1111YOPC   C1A14469  14.887   0.939   7.050 -0.4689 -0.1974  0.0014
 1111YOPC   D2A14470  14.934   1.150   7.437  0.2319  0.0350  0.1488
 1111YOPC   C3A14471  14.701   0.995   7.868  0.3396 -0.1322  0.1039
 1111YOPC   C4A14472  14.357   0.987   8.169  0.0063 -0.1597  0.0067
 1111YOPC   C1B14473  14.412   0.747   6.843 -0.2393  0.0290  0.0096
 1111YOPC   C2B14474  14.483   0.722   7.213  0.1062  0.0512 -0.0069
 1111YOPC   D3B14475  14.319   0.797   7.556 -0.0869 -0.1592  0.0934
 1111YOPC   C4B14476  13.822   0.850   7.634  0.4362  0.0045 -0.1047
 1112YOPC   NC314477   6.914   0.139   5.434  0.1836 -0.0538 -0.0222
 1112YOPC   PO414478   6.574   0.052   5.615  0.2466  0.1443  0.0532
 1112YOPC   GL114479   6.649   0.173   6.058 -0.0699 -0.1193 -0.2490
 1112YOPC   GL214480   6.617   0.555   6.129 -0.0774 -0.1880 -0.0657
 1112YOPC   C1A14481   6.479   0.035   6.420  0.2479  0.1806 -0.1315
 1112YOPC   D2A14482   6.343  -0.324   6.583  0.3606  0.1374 -0.0310
 1112YOPC   C3A14483   6.034  -0.300   6.964  0.1533  0.3075  0.0789
 1112YOPC   C4A14484   5.687  -0.532   7.195  0.0912  0.0997 -0.0661
 1112YOPC   C1B14485   6.623   0.615   6.506  0.2217  0.1155  0.1453
 1112YOPC   C2B14486   6.539   0.745   6.886  0.0623  0.1072 -0.2475
 1112YOPC   D3B14487   6.562   0.450   7.213  0.0112  0.2176  0.0864
 1112YOPC   C4B14488   6.495   0.153   7.426  0.0148 -0.3640  0.0346
 1113YOPC   NC314489  10.499  16.560   5.591  0.1703 -0.0831  0.0916
 1113YOPC   PO414490  10.426  16.897   5.888  0.0842 -0.3833  0.0950
 1113YOPC   GL114491  10.565  16.919   6.327 -0.0739  0.0520  0.0512
 1113YOPC   GL214492  10.529  17.199   6.345 -0.0866  0.1814  0.0215
 1113YOPC   C1A14493  10.625  16.926   6.784 -0.1111 -0.0593 -0.1144
 1113YOPC   D2A14494  10.420  16.783   7.038 -0.1851 -0.1087  0.1281
 1113YOPC   C3A14495  10.588  16.738   7.380 -0.3585 -0.2089 -0.0378
 1113YOPC   C4A14496  10.961  16.845   7.562  0.1596 -0.0633  0.0703
 1113YOPC   C1B14497  10.162  17.127   6.637  0.0083  0.2185  0.1034
 1113YOPC   C2B14498   9.896  17.027   7.021 -0.2544  0.1037  0.0073
 1113YOPC   D3B14499  10.148  17.011   7.426  0.1325  0.1792 -0.1859
 1113YOPC   C4B14500  10.410  17.019   7.791 -0.2274  0.1172  0.1502
 1114YOPC   NC314501   5.765   1.158   5.830 -0.0299  0.1676 -0.0695
 1114YOPC   PO414502   5.575   1.487   5.589  0.2403  0.0366 -0.0017
 1114YOPC   GL114503   5.629   1.673   6.022  0.0744 -0.1280 -0.3446
 1114YOPC   GL214504   5.431   1.545   6.241  0.4038 -0.0663 -0.0582
 1114YOPC   C1A14505   5.740   1.895   6.441 -0.2126 -0.1785 -0.2309
 1114YOPC   D2A14506   5.564   1.885   6.859 -0.0829 -0.0001 -0.1596
 1114YOPC   C3A14507   5.760   2.165   7.108 -0.1381 -0.4165  0.1132
 1114YOPC   C4A14508   5.749   2.431   7.489 -0.1173 -0.2867  0.4094
 1114YOPC   C1B14509   5.303   1.515   6.599 -0.1834 -0.1214  0.1672
 1114YOPC   C2B14510   5.323   1.488   7.058  0.6002  0.0213 -0.1648
 1114YOPC   D3B14511   5.566   1.715   7.379  0.1714  0.1798  0.0066
 1114YOPC   C4B14512   5.579   2.015   7.748 -0.0817  0.3487 -0.1736
 1115YOPC   NC314513  10.888   0.375   5.479 -0.1096 -0.0266 -0.0229
 1115YOPC   PO414514  10.828   0.443   5.927 -0.3830  0.1735  0.1137
 1115YOPC   GL114515  10.765   0.516   6.344 -0.1234  0.1405  0.2868
 1115YOPC   GL214516  10.531   0.342   6.570 -0.0526 -0.3201  0.0384
 1115YOPC   C1A14517  10.922   0.746   6.664 -0.0959 -0.3009  0.1655
 1115YOPC   D2A14518  10.952   0.583   7.036  0.0589 -0.1706 -0.0106
 1115YOPC   C3A14519  11.159   0.733   7.348  0.0282  0.1104 -0.0254
 1115YOPC   C4A14520  11.526   0.648   7.583  0.1815 -0.1386  0.1668
 1115YOPC   C1B14521  10.542   0.320   7.034  0.1404  0.0874 -0.0903
 1115YOPC   C2B14522  10.558   0.051   7.360  0.1974 -0.1378  0.0502
 1115YOPC   D3B14523  10.442  -0.251   7.544 -0.0053 -0.2092  0.5725
 1115YOPC   C4B14524  10.253  -0.322   7.980 -0.3640 -0.1142  0.2208
 1116YOPC   NC314525  12.765   6.943   6.077  0.0432 -0.0704  0.3513
 1116YOPC   PO414526  12.740   7.393   6.206  0.1000 -0.2222  0.0706
 1116YOPC   GL114527  12.915   7.384   6.576  0.0868 -0.1442  0.4378
 1116YOPC   GL214528  13.248   7.532   6.638 -0.0570 -0.1583  0.0254
 1116YOPC   C1A14529  12.859   7.230   6.954  0.1156  0.2646 -0.2731
 1116YOPC   D2A14530  12.520   7.164   7.287  0.0566  0.1115 -0.0367
 1116YOPC   C3A14531  12.405   7.090   7.632 -0.2862 -0.1109  0.3595
 1116YOPC   C4A14532  12.384   7.066   8.174  0.2058 -0.0329  0.3227
 1116YOPC   C1B14533  13.394   7.252   7.027 -0.0281  0.1082 -0.1768
 1116YOPC   C2B14534  13.453   7.365   7.487 -0.1657  0.0797  0.1327
 1116YOPC   D3B14535  13.676   7.765   7.446 -0.2032 -0.1191  0.2134
 1116YOPC   C4B14536  14.116   7.927   7.465 -0.1241  0.1376 -0.1816
 1117YOPC   NC314537  11.369  14.409   4.960  0.0209  0.0877 -0.0360
 1117YOPC   PO414538  11.465  14.339   5.541 -0.0210  0.1080  0.2141
 1117YOPC   GL114539  11.406  14.266   5.987 -0.1613 -0.2525  0.2381
 1117YOPC   GL214540  11.477  14.567   6.129  0.0753 -0.1994  0.1429
 1117YOPC   C1A14541  11.660  14.143   6.304  0.2982  0.1237  0.0463
 1117YOPC   D2A14542  11.532  14.350   6.706 -0.3889  0.4468  0.1913
 1117YOPC   C3A14543  11.190  14.450   6.883  0.0122  0.0147  0.0857
 1117YOPC   C4A14544  11.172  14.823   7.121  0.1802  0.0966  0.1194
 1117YOPC   C1B14545  11.460  14.748   6.433  0.1332 -0.1199 -0.1382
 1117YOPC   C2B14546  11.318  15.108   6.559 -0.2842  0.1565  0.0004
 1117YOPC   D3B14547  11.442  15.194   6.947  0.0777  0.0651 -0.0423
 1117YOPC   C4B14548  11.608  15.025   7.362  0.3381  0.1857 -0.0254
 1118YOPC   NC314549   9.276  16.668   5.137 -0.0567  0.2675  0.0673
 1118YOPC   PO414550   9.491  16.782   5.512 -0.0049 -0.2666  0.3455
 1118YOPC   GL114551   9.599  16.595   5.979  0.2915 -0.1866  0.3216
 1118YOPC   GL214552   9.459  16.740   6.212  0.0710  0.2030  0.0122
 1118YOPC   C1A14553   9.742  16.275   6.126  0.0943  0.1624 -0.1901
 1118YOPC   D2A14554   9.844  15.980   6.446  0.0044 -0.0915 -0.0014
 1118YOPC   C3A14555   9.769  16.063   6.804 -0.3156 -0.1345  0.2075
 1118YOPC   C4A14556   9.727  16.127   7.292 -0.2540  0.1411 -0.3516
 1118YOPC   C1B14557   9.158  16.492   6.232 -0.0343 -0.3048  0.1969
 1118YOPC   C2B14558   8.690  16.552   6.354  0.1510 -0.0927  0.0693
 1118YOPC   D3B14559   8.545  16.364   6.704  0.1121  0.0392  0.0339
 1118YOPC   C4B14560   8.675  16.072   7.030 -0.0028  0.0485 -0.0635
 1119YOPC   NC314561   3.643   5.211   5.138 -0.2695  0.0118  0.3175
 1119YOPC   PO414562   4.083   5.216   5.252  0.0612 -0.1322  0.2272
 1119YOPC   GL114563   3.958   5.395   5.688 -0.0141 -0.1390 -0.1639
 1119YOPC   GL214564   4.368   5.355   5.807  0.2851 -0.0960 -0.1191
 1119YOPC   C1A14565   3.861   5.650   6.021  0.2782  0.0594 -0.0625
 1119YOPC   D2A14566   3.922   6.129   6.037 -0.0069  0.2423  0.1984
 1119YOPC   C3A14567   4.030   6.323   6.453  0.1275  0.0929  0.1358
 1119YOPC   C4A14568   4.100   6.413   6.870 -0.0005 -0.0448  0.2191
 1119YOPC   C1B14569   4.108   5.243   6.172  0.0022  0.0147 -0.2287
 1119YOPC   C2B14570   4.047   5.201   6.584 -0.2989  0.0044 -0.0754
 1119YOPC   D3B14571   4.251   5.456   6.847 -0.0770 -0.1127 -0.1736
 1119YOPC   C4B14572   4.631   5.697   6.995 -0.1542  0.0220 -0.0384
 1120YOPC   NC314573  12.999  14.839   5.873  0.0357 -0.0509  0.0362
 1120YOPC   PO414574  12.948  15.340   5.834  0.1702 -0.1550  0.0608
 1120YOPC   GL114575  13.081  15.316   6.313 -0.4666 -0.0199  0.1778
 1120YOPC   GL214576  12.939  15.032   6.501 -0.1338 -0.1388  0.0125
 1120YOPC   C1A14577  13.064  15.474   6.678 -0.2327  0.1117  0.0392
 1120YOPC   D2A14578  13.091  15.477   7.194  0.2195  0.1444  0.0921
 1120YOPC   C3A14579  13.183  15.765   7.567 -0.0430  0.0296  0.3226
 1120YOPC   C4A14580  13.339  16.044   7.799  0.0174  0.0946 -0.0101
 1120YOPC   C1B14581  12.835  15.081   6.915  0.0207 -0.0456 -0.0701
 1120YOPC   C2B14582  12.820  14.981   7.285 -0.1175  0.2307 -0.2608
 1120YOPC   D3B14583  12.571  14.853   7.667  0.1882 -0.2501 -0.2813
 1120YOPC   C4B14584  12.546  15.188   7.972 -0.1960 -0.2973  0.0084
 1121YOPC   NC314585  17.776   5.675   5.752  0.0693  0.1845  0.0910
 1121YOPC   PO414586  18.146   5.779   6.001  0.3405  0.0272  0.1336
 1121YOPC   GL114587  18.350   5.552   6.384 -0.2043  0.1295  0.0894
 1121YOPC   GL214588  18.408   5.759   6.770 -0.0961  0.3040  0.1403
 1121YOPC   C1A14589  18.587   5.283   6.586 -0.3828  0.0311 -0.2581
 1121YOPC   D2A14590  18.842   4.900   6.408 -0.0722 -0.2094  0.3227
 1121YOPC   C3A14591  19.272   4.779   6.499  0.1010  0.3593 -0.1021
 1121YOPC   C4A14592  19.593   4.626   6.689  0.2235  0.1920  0.1937
 1121YOPC   C1B14593  18.514   5.453   7.082 -0.2741  0.0830  0.3230
 1121YOPC   C2B14594  18.552   5.146   7.237  0.1320  0.1807 -0.1040
 1121YOPC   D3B14595  18.541   5.046   7.633  0.0063 -0.0681  0.2332
 1121YOPC   C4B14596  18.310   4.982   8.070  0.0943 -0.1029  0.2782
 1122YOPC   NC314597   4.649   9.739   5.434  0.0004  0.0217  0.0649
 1122YOPC   PO414598   4.246   9.872   5.616  0.0760 -0.0023 -0.0338
 1122YOPC   GL114599   4.634   9.995   5.900 -0.0359 -0.0067 -0.0457
 1122YOPC   GL214600   4.662  10.226   5.705  0.1604  0.0827 -0.1135
 1122YOPC   C1A14601   4.684   9.982   6.345 -0.1627 -0.1272  0.1613
 1122YOPC   D2A14602   4.705   9.724   6.643 -0.1457 -0.1733 -0.2199
 1122YOPC   C3A14603   4.462   9.976   6.956 -0.2372 -0.0690  0.0764
 1122YOPC   C4A14604   4.356  10.176   7.295 -0.1249 -0.1167 -0.0450
 1122YOPC   C1B14605   4.720  10.499   5.978  0.0184 -0.1268 -0.4308
 1122YOPC   C2B14606   4.463  10.856   5.926  0.1665  0.3149  0.0220
 1122YOPC   D3B14607   4.004  10.787   6.148  0.0703 -0.0818  0.0996
 1122YOPC   C4B14608   3.877  10.581   6.464 -0.1409  0.2666  0.0244
 1123YOPC   NC314609  16.680   6.360   6.104  0.3099  0.0636 -0.0707
 1123YOPC   PO414610  17.106   6.435   6.152 -0.0375  0.0488 -0.1625
 1123YOPC   GL114611  17.479   6.261   6.299  0.0652 -0.0926 -0.0601
 1123YOPC   GL214612  17.515   6.479   6.528  0.1182  0.0197  0.1121
 1123YOPC   C1A14613  17.675   6.015   6.694  0.1050 -0.0376  0.1164
 1123YOPC   D2A14614  17.776   5.915   7.107 -0.0500 -0.2199  0.0727
 1123YOPC   C3A14615  17.836   6.111   7.539  0.0989 -0.0934 -0.3447
 1123YOPC   C4A14616  17.568   6.222   7.858  0.1297  0.1681 -0.0525
 1123YOPC   C1B14617  17.622   6.458   6.971 -0.1828  0.2549 -0.1185
 1123YOPC   C2B14618  17.879   6.483   7.147 -0.0615 -0.1717 -0.3973
 1123YOPC   D3B14619  17.865   6.754   7.545  0.0977 -0.2501  0.1931
 1123YOPC   C4B14620  17.563   6.731   7.961  0.0294 -0.4791 -0.2033
 1124YOPC   NC314621  12.364   4.465   5.518  0.1695  0.2083  0.0455
 1124YOPC   PO414622  12.311   4.648   5.867 -0.0740  0.2858 -0.1673
 1124YOPC   GL114623  12.355   4.793   6.336  0.0004  0.0553  0.0380
 1124YOPC   GL214624  12.366   5.078   6.346  0.0417 -0.2042 -0.1594
 1124YOPC   C1A14625  12.587   4.789   6.741 -0.1131  0.2344 -0.1785
 1124YOPC   D2A14626  12.445   4.850   7.126 -0.0303 -0.0084  0.1365
 1124YOPC   C3A14627  12.489   4.747   7.520 -0.2535 -0.1436  0.0305
 1124YOPC   C4A14628  12.392   4.444   7.764  0.1920 -0.2439  0.0419
 1124YOPC   C1B14629  12.328   5.199   6.723 -0.3893 -0.3401  0.4182
 1124YOPC   C2B14630  12.001   5.031   6.991 -0.1073 -0.1494 -0.0723
 1124YOPC   D3B14631  11.963   5.088   7.436 -0.2366 -0.0979  0.1011
 1124YOPC   C4B14632  12.044   5.356   7.780 -0.0274 -0.0377 -0.2134
 1125YOPC   NC314633   4.581  13.793   5.565 -0.1692  0.2483  0.1916
 1125YOPC   PO414634   4.581  14.141   5.856  0.0830  0.0829  0.0252
 1125YOPC   GL114635   4.652  14.143   6.237  0.0871  0.2577  0.1571
 1125YOPC   GL214636   4.584  13.891   6.304  0.2768 -0.1706 -0.0148
 1125YOPC   C1A14637   4.869  14.260   6.536 -0.1191  0.0690  0.1001
 1125YOPC   D2A14638   5.113  14.177   6.920  0.2599  0.2656 -0.2014
 1125YOPC   C3A14639   5.056  14.341   7.333 -0.1807 -0.2170  0.1316
 1125YOPC   C4A14640   5.282  14.378   7.704 -0.3048 -0.0691 -0.0315
 1125YOPC   C1B14641   4.529  13.899   6.754 -0.0488 -0.0140  0.0372
 1125YOPC   C2B14642   4.713  13.897   7.190 -0.2491  0.0579 -0.1159
 1125YOPC   D3B14643   4.587  13.854   7.622 -0.1443  0.0076  0.0654
 1125YOPC   C4B14644   4.353  13.680   7.982 -0.1010  0.1120  0.0597
 1126YOPC   NC314645  16.501  10.414   5.593 -0.1604 -0.0361  0.0182
 1126YOPC   PO414646  16.717  10.094   5.846 -0.0233  0.2215  0.3555
 1126YOPC   GL114647  16.624  10.066   6.319 -0.0624  0.0623 -0.0685
 1126YOPC   GL214648  16.462   9.918   6.326  0.3631 -0.0528  0.3772
 1126YOPC   C1A14649  16.607  10.262   6.772  0.0137  0.1046 -0.0101
 1126YOPC   D2A14650  16.652  10.418   7.209  0.0233  0.2525 -0.1651
 1126YOPC   C3A14651  16.906  10.765   7.323  0.2969 -0.0467 -0.0184
 1126YOPC   C4A14652  17.129  10.781   7.785 -0.0541 -0.0604  0.2813
 1126YOPC   C1B14653  16.147   9.874   6.708  0.0885 -0.2541 -0.0969
 1126YOPC   C2B14654  16.199  10.071   7.160  0.0030  0.0644 -0.0695
 1126YOPC   D3B14655  16.046  10.040   7.566  0.1694  0.1524 -0.0216
 1126YOPC   C4B14656  15.895  10.089   8.030  0.4220  0.0093 -0.0030
 1127YOPC   NC314657   9.001  12.798   5.440  0.1885  0.0935 -0.1429
 1127YOPC   PO414658   9.234  12.461   5.322 -0.0773  0.2128  0.2193
 1127YOPC   GL114659   9.252  12.649   5.806  0.0047  0.1879  0.0567
 1127YOPC   GL214660   9.274  12.369   6.030  0.1865  0.0854  0.0850
 1127YOPC   C1A14661   9.266  12.870   6.166  0.0579  0.0583 -0.1439
 1127YOPC   D2A14662   9.458  12.804   6.506 -0.1271 -0.2382 -0.2447
 1127YOPC   C3A14663   9.315  12.741   6.933  0.2907 -0.2271  0.1724
 1127YOPC   C4A14664   9.484  12.974   7.226 -0.1468  0.1110 -0.1418
 1127YOPC   C1B14665   9.174  12.367   6.490  0.1602 -0.0381  0.1153
 1127YOPC   C2B14666   9.216  12.006   6.805  0.1531 -0.2794 -0.0463
 1127YOPC   D3B14667   9.328  12.130   7.138 -0.0091  0.5895  0.0014
 1127YOPC   C4B14668   9.412  12.100   7.517  0.0041  0.1712  0.1275
 1128YOPC   NC314669  16.946   5.004   5.789 -0.0174 -0.0623 -0.0451
 1128YOPC   PO414670  16.926   5.264   6.113 -0.3124 -0.3900 -0.1949
 1128YOPC   GL114671  16.907   5.397   6.474 -0.2894 -0.0006  0.1099
 1128YOPC   GL214672  16.609   5.385   6.600  0.0650 -0.0916 -0.0951
 1128YOPC   C1A14673  17.059   5.427   6.869 -0.4451  0.2808 -0.0521
 1128YOPC   D2A14674  16.991   5.404   7.320 -0.0076 -0.4197  0.1194
 1128YOPC   C3A14675  17.264   5.289   7.678 -0.1719  0.0683 -0.1774
 1128YOPC   C4A14676  17.400   5.297   8.175  0.0807 -0.0352 -0.0043
 1128YOPC   C1B14677  16.559   5.328   7.016 -0.2606  0.0530  0.0315
 1128YOPC   C2B14678  16.506   5.015   7.390 -0.1212  0.0091  0.1514
 1128YOPC   D3B14679  16.862   4.854   7.584 -0.1201 -0.1071  0.2725
 1128YOPC   C4B14680  16.978   4.957   7.984 -0.2208  0.2420 -0.1903
 1129YOPC   NC314681  11.910  12.201   5.637  0.2040 -0.2348  0.1027
 1129YOPC   PO414682  11.953  11.755   5.639 -0.0723  0.0308  0.0790
 1129YOPC   GL114683  11.539  11.785   5.908 -0.1352 -0.0950 -0.1007
 1129YOPC   GL214684  11.327  11.804   6.044  0.0607 -0.0329 -0.0238
 1129YOPC   C1A14685  11.639  11.711   6.393  0.0475 -0.0071 -0.2634
 1129YOPC   D2A14686  11.742  11.522   6.782 -0.0763  0.2884 -0.0174
 1129YOPC   C3A14687  11.661  11.636   7.194 -0.0251  0.2382 -0.0762
 1129YOPC   C4A14688  11.918  11.754   7.581  0.2058  0.1840 -0.1632
 1129YOPC   C1B14689  11.143  11.823   6.456  0.0506 -0.0310 -0.2427
 1129YOPC   C2B14690  11.200  11.828   6.965 -0.1825  0.0959 -0.5177
 1129YOPC   D3B14691  10.857  11.693   7.410  0.0657  0.3078  0.0159
 1129YOPC   C4B14692  10.838  11.264   7.607  0.1139 -0.1496 -0.3023
 1130YOPC   NC314693  18.033   1.458   6.218 -0.2297  0.0755 -0.0232
 1130YOPC   PO414694  17.664   1.207   6.246  0.1623 -0.0998  0.1436
 1130YOPC   GL114695  17.408   1.254   6.486  0.1014  0.2247  0.3885
 1130YOPC   GL214696  17.420   1.416   6.768 -0.1188  0.0686 -0.2603
 1130YOPC   C1A14697  17.078   1.067   6.866 -0.0536  0.2905 -0.2918
 1130YOPC   D2A14698  17.054   1.040   7.301  0.1950 -0.1345  0.1382
 1130YOPC   C3A14699  17.097   0.770   7.557 -0.0041  0.0441  0.0851
 1130YOPC   C4A14700  16.963   0.779   7.960  0.0537 -0.0287  0.1331
 1130YOPC   C1B14701  17.332   1.414   7.147  0.1516  0.1447  0.1115
 1130YOPC   C2B14702  17.276   1.520   7.606  0.0090  0.1459 -0.3459
 1130YOPC   D3B14703  17.121   1.228   7.847  0.3221  0.0353 -0.4644
 1130YOPC   C4B14704  16.936   1.409   8.214  0.2241 -0.0122  0.1404
 1131YOPC   NC314705   3.217  17.998   5.593  0.0490  0.1569 -0.2885
 1131YOPC   PO414706   3.125  18.390   5.638  0.1209  0.1267 -0.1124
 1131YOPC   GL114707   3.069  18.260   6.045  0.4249  0.1278 -0.0028
 1131YOPC   GL214708   2.742  18.142   6.194 -0.0814  0.0076 -0.2362
 1131YOPC   C1A14709   3.410  18.355   6.339 -0.1266 -0.0565 -0.0197
 1131YOPC   D2A14710   3.534  18.197   6.708  0.0209  0.3023  0.0272
 1131YOPC   C3A14711   3.647  18.507   6.956 -0.1517 -0.2229  0.1998
 1131YOPC   C4A14712   3.994  18.785   7.259 -0.1614  0.2946 -0.0133
 1131YOPC   C1B14713   2.724  18.158   6.570 -0.2004  0.1327  0.1972
 1131YOPC   C2B14714   2.928  18.194   7.011  0.2149  0.0775 -0.1143
 1131YOPC   D3B14715   3.305  18.276   7.229 -0.0962  0.2726  0.2291
 1131YOPC   C4B14716   3.761  18.351   7.441 -0.4127 -0.1571  0.1961
 1132YOPC   NC314717  15.054   1.578   6.059  0.0531  0.0609 -0.0753
 1132YOPC   PO414718  14.948   1.158   6.264 -0.1594  0.0817 -0.1132
 1132YOPC   GL114719  15.172   1.318   6.645 -0.2455  0.0310 -0.0447
 1132YOPC   GL214720  15.255   1.643   6.522 -0.4567 -0.0152  0.0791
 1132YOPC   C1A14721  15.314   1.299   6.980  0.0214  0.2363 -0.1065
 1132YOPC   D2A14722  15.516   1.410   7.329  0.1040  0.0343  0.0209
 1132YOPC   C3A14723  15.315   1.391   7.741  0.1986 -0.0014  0.4541
 1132YOPC   C4A14724  15.421   1.626   7.946  0.2487 -0.0619 -0.1309
 1132YOPC   C1B14725  15.314   1.895   6.959  0.0632 -0.1471  0.0404
 1132YOPC   C2B14726  15.370   1.983   7.391 -0.0365 -0.0691  0.3562
 1132YOPC   D3B14727  15.622   2.179   7.659  0.1213  0.0277  0.1538
 1132YOPC   C4B14728  15.650   2.097   8.035 -0.1005 -0.2181 -0.0624
 1133YOPC   NC314729   0.061  15.232   6.506  0.0704  0.2343  0.1253
 1133YOPC   PO414730  -0.362  15.155   6.579 -0.0979  0.0936 -0.1919
 1133YOPC   GL114731  -0.408  15.339   7.016 -0.1113 -0.1283  0.0524
 1133YOPC   GL214732  -0.631  15.546   7.238 -0.3569  0.0571 -0.3502
 1133YOPC   C1A14733  -0.118  15.333   7.465  0.0895 -0.3624  0.0086
 1133YOPC   D2A14734   0.116  15.175   7.802  0.0983  0.0511  0.1084
 1133YOPC   C3A14735   0.016  15.106   8.159 -0.3077  0.0721  0.3931
 1133YOPC   C4A14736  -0.297  15.200   8.530  0.2601  0.1570  0.1955
 1133YOPC   C1B14737  -0.750  15.457   7.562 -0.3081  0.0026  0.0800
 1133YOPC   C2B14738  -1.004  15.508   7.943  0.0043  0.2606  0.0274
 1133YOPC   D3B14739  -0.883  15.573   8.290  0.1025  0.2351  0.0458
 1133YOPC   C4B14740  -1.057  15.896   8.532  0.4103  0.1775  0.2574
 1134YOPC   NC314741   7.467  13.681   5.013 -0.0994  0.3435  0.0148
 1134YOPC   PO414742   7.770  13.545   5.365 -0.0947 -0.1107  0.0367
 1134YOPC   GL114743   7.521  13.288   5.759 -0.1687 -0.0453 -0.0850
 1134YOPC   GL214744   7.288  13.531   5.630 -0.1619  0.0181 -0.0954
 1134YOPC   C1A14745   7.257  13.287   6.082 -0.0883  0.2050 -0.0095
 1134YOPC   D2A14746   7.143  13.131   6.525 -0.4007  0.1489 -0.1062
 1134YOPC   C3A14747   7.263  13.271   6.916  0.2408  0.0037  0.2721
 1134YOPC   C4A14748   7.353  13.410   7.321 -0.2412  0.2310  0.1442
 1134YOPC   C1B14749   7.426  13.813   6.020  0.0902 -0.0233  0.0521
 1134YOPC   C2B14750   7.445  14.196   6.270 -0.2286  0.0575  0.1425
 1134YOPC   D3B14751   7.419  14.202   6.759  0.3461 -0.3620 -0.1179
 1134YOPC   C4B14752   7.469  14.466   7.080  0.0626  0.0040 -0.2860
 1135YOPC   NC314753   0.809  16.455   5.980 -0.1586 -0.1589 -0.3533
 1135YOPC   PO414754   0.876  16.413   6.460  0.1027  0.0647  0.1103
 1135YOPC   GL114755   0.732  16.528   6.781 -0.1648  0.0739 -0.0740
 1135YOPC   GL214756   0.473  16.305   6.934  0.0406 -0.0982  0.3389
 1135YOPC   C1A14757   0.802  16.604   7.233  0.1002  0.3415  0.2771
 1135YOPC   D2A14758   0.941  16.484   7.578  0.3898 -0.4510 -0.0287
 1135YOPC   C3A14759   1.311  16.241   7.634 -0.0544 -0.1165  0.1029
 1135YOPC   C4A14760   1.561  16.617   7.836 -0.0701 -0.2256  0.1528
 1135YOPC   C1B14761   0.286  16.382   7.358  0.0934 -0.0318  0.0379
 1135YOPC   C2B14762   0.436  16.537   7.715  0.1311  0.1809 -0.0954
 1135YOPC   D3B14763   0.108  16.712   8.090 -0.0732 -0.1020  0.1065
 1135YOPC   C4B14764  -0.066  16.751   8.474  0.1560  0.2013 -0.0966
 1136YOPC   NC314765   7.287   6.499   5.722 -0.2888  0.1596  0.1375
 1136YOPC   PO414766   6.948   6.492   5.911  0.1905  0.2022  0.1439
 1136YOPC   GL114767   6.913   6.651   6.319 -0.0433  0.2292 -0.2160
 1136YOPC   GL214768   6.855   7.004   6.310 -0.0236  0.0328 -0.0870
 1136YOPC   C1A14769   6.747   6.812   6.793  0.2501  0.5075  0.3917
 1136YOPC   D2A14770   6.709   6.920   7.183 -0.1090 -0.2169  0.2384
 1136YOPC   C3A14771   6.871   6.785   7.530  0.0465  0.0793 -0.1068
 1136YOPC   C4A14772   7.092   6.659   7.981 -0.1892 -0.1035 -0.2806
 1136YOPC   C1B14773   7.089   7.038   6.585 -0.1992  0.0068  0.2585
 1136YOPC   C2B14774   7.201   7.050   7.006 -0.1834 -0.2016 -0.1603
 1136YOPC   D3B14775   7.651   7.205   7.117 -0.0481 -0.4084 -0.0938
 1136YOPC   C4B14776   7.680   7.159   7.537  0.0730  0.1649 -0.0584
 1137YOPC   NC314777  16.003  13.195   6.160 -0.3032  0.0403  0.1849
 1137YOPC   PO414778  16.327  13.026   6.485 -0.3510 -0.2886  0.0927
 1137YOPC   GL114779  16.304  13.273   6.903 -0.2331 -0.2748 -0.3142
 1137YOPC   GL214780  16.571  13.282   7.092 -0.2935  0.0795  0.4772
 1137YOPC   C1A14781  16.223  13.000   7.293  0.2359 -0.0790 -0.1206
 1137YOPC   D2A14782  16.122  13.022   7.689  0.1689 -0.0697  0.0714
 1137YOPC   C3A14783  16.297  12.821   8.020 -0.0897 -0.0488  0.2451
 1137YOPC   C4A14784  16.578  12.831   8.385 -0.0093  0.0641 -0.2987
 1137YOPC   C1B14785  16.709  13.291   7.482 -0.1539  0.2566  0.0677
 1137YOPC   C2B14786  16.670  13.159   7.912 -0.0677 -0.0335  0.2423
 1137YOPC   D3B14787  16.577  13.421   8.161  0.1054 -0.1619 -0.3411
 1137YOPC   C4B14788  16.456  13.790   8.417 -0.1833  0.1842  0.0012
 1138YOPC   NC314789  12.139   5.518   6.102 -0.0776  0.0697 -0.2533
 1138YOPC   PO414790  11.715   5.278   6.091 -0.1960  0.0276  0.0233
 1138YOPC   GL114791  11.563   4.982   6.467 -0.2512  0.0502 -0.1427
 1138YOPC   GL214792  11.817   4.755   6.510 -0.1193  0.1049  0.1614
 1138YOPC   C1A14793  11.486   5.015   6.871  0.1502 -0.2524 -0.4505
 1138YOPC   D2A14794  11.458   4.997   7.254 -0.2042  0.0973  0.1076
 1138YOPC   C3A14795  11.429   5.080   7.638 -0.0620 -0.1522  0.3290
 1138YOPC   C4A14796  11.280   5.302   8.031 -0.1161 -0.0133 -0.3989
 1138YOPC   C1B14797  12.131   4.583   6.798  0.0994 -0.0675 -0.3332
 1138YOPC   C2B14798  12.208   4.364   7.136  0.1293  0.0310  0.0809
 1138YOPC   D3B14799  12.044   4.500   7.420 -0.5282  0.2525  0.2588
 1138YOPC   C4B14800  11.957   4.708   7.779 -0.0710  0.0631  0.4378
 1139YOPC   NC314801  14.954   7.576   6.138 -0.0406  0.0899  0.0436
 1139YOPC   PO414802  15.242   7.911   6.167 -0.0525  0.0274 -0.1799
 1139YOPC   GL114803  15.336   7.823   6.682  0.2745  0.2468 -0.3233
 1139YOPC   GL214804  15.212   7.529   6.540  0.2546  0.1059 -0.0097
 1139YOPC   C1A14805  15.238   7.776   7.098  0.0818 -0.0266 -0.1741
 1139YOPC   D2A14806  15.193   7.808   7.608  0.2995  0.1058 -0.0619
 1139YOPC   C3A14807  15.049   8.085   7.830  0.0085 -0.1281  0.0834
 1139YOPC   C4A14808  14.777   8.171   8.097 -0.0325  0.0127  0.0010
 1139YOPC   C1B14809  14.977   7.408   6.841  0.0367 -0.3349  0.0197
 1139YOPC   C2B14810  14.807   7.047   7.004 -0.3998  0.0768 -0.0076
 1139YOPC   D3B14811  14.823   6.888   7.308  0.2701  0.0361 -0.1711
 1139YOPC   C4B14812  14.803   6.504   7.499 -0.0888  0.1129  0.3201
 1140YOPC   NC314813  15.027   8.272   5.974 -0.2040  0.1675 -0.0851
 1140YOPC   PO414814  14.647   7.953   6.033 -0.0466 -0.3849 -0.2975
 1140YOPC   GL114815  14.551   7.890   6.370 -0.3381 -0.0077  0.0837
 1140YOPC   GL214816  14.554   7.589   6.588 -0.2098  0.1317 -0.1792
 1140YOPC   C1A14817  14.684   8.004   6.812 -0.0526  0.2007  0.0416
 1140YOPC   D2A14818  14.829   8.087   7.241 -0.1102 -0.1452 -0.2039
 1140YOPC   C3A14819  14.579   8.117   7.646 -0.1536  0.0707 -0.3497
 1140YOPC   C4A14820  14.311   8.030   7.922 -0.1940 -0.1147 -0.2001
 1140YOPC   C1B14821  14.205   7.769   6.796 -0.0361 -0.0801  0.0598
 1140YOPC   C2B14822  13.743   7.589   6.824 -0.0081  0.0891 -0.0704
 1140YOPC   D3B14823  13.437   7.761   7.035  0.3340 -0.3998  0.0855
 1140YOPC   C4B14824  13.008   7.621   7.195  0.2049 -0.2635 -0.0164
 1141YOPC   NC314825   0.444   5.965   6.196  0.0441  0.2107  0.0489
 1141YOPC   PO414826   0.719   6.333   6.265 -0.1072  0.1742 -0.1938
 1141YOPC   GL114827   0.789   6.693   6.629 -0.1973 -0.0900 -0.1691
 1141YOPC   GL214828   0.409   6.910   6.671  0.0591 -0.0573  0.0419
 1141YOPC   C1A14829   1.046   6.831   7.073  0.0994  0.1518 -0.0452
 1141YOPC   D2A14830   1.272   6.856   7.371  0.3177  0.0862 -0.1316
 1141YOPC   C3A14831   1.228   7.128   7.728 -0.0067 -0.1156  0.0251
 1141YOPC   C4A14832   1.177   7.279   8.230  0.1728  0.0673  0.0947
 1141YOPC   C1B14833   0.464   6.955   7.091  0.0094  0.0248  0.0413
 1141YOPC   C2B14834   0.626   6.843   7.496 -0.3641 -0.0291  0.0826
 1141YOPC   D3B14835   0.709   7.064   7.933  0.1551  0.0378  0.0505
 1141YOPC   C4B14836   0.676   7.199   8.350  0.4658  0.0584 -0.1836
 1142YOPC   NC314837   5.977   9.416   5.475 -0.1593 -0.0871 -0.1103
 1142YOPC   PO414838   5.910   9.016   5.588 -0.1641 -0.2286 -0.4431
 1142YOPC   GL114839   6.001   9.126   5.980 -0.0759  0.1236 -0.0349
 1142YOPC   GL214840   5.889   9.393   6.055 -0.1548 -0.3420 -0.0129
 1142YOPC   C1A14841   6.011   9.098   6.407 -0.1530  0.2343 -0.3996
 1142YOPC   D2A14842   5.881   8.910   6.832  0.1133 -0.0756  0.2570
 1142YOPC   C3A14843   5.968   8.919   7.174  0.0815 -0.0047 -0.2471
 1142YOPC   C4A14844   5.988   8.569   7.450  0.3314 -0.1476  0.1029
 1142YOPC   C1B14845   5.758   9.520   6.470 -0.1704  0.1746 -0.3575
 1142YOPC   C2B14846   5.720   9.856   6.698 -0.3299  0.1458  0.0448
 1142YOPC   D3B14847   5.574   9.818   7.196  0.1666  0.1038 -0.2400
 1142YOPC   C4B14848   5.206   9.565   7.459  0.1929 -0.1778  0.1676
 1143YOPC   NC314849  11.543   2.991   6.102  0.0253 -0.1104 -0.0420
 1143YOPC   PO414850  11.660   2.527   5.963 -0.1965 -0.0215  0.1511
 1143YOPC   GL114851  11.726   2.422   6.330 -0.0457 -0.0908 -0.1628
 1143YOPC   GL214852  12.033   2.239   6.589 -0.1707 -0.0526 -0.3236
 1143YOPC   C1A14853  11.509   2.240   6.705 -0.1549 -0.0495  0.0610
 1143YOPC   D2A14854  11.553   1.878   7.048 -0.1448 -0.0727  0.0668
 1143YOPC   C3A14855  11.767   1.909   7.499 -0.1286 -0.0564 -0.0595
 1143YOPC   C4A14856  11.594   1.754   7.865 -0.3386 -0.0508  0.1267
 1143YOPC   C1B14857  11.976   2.137   7.022 -0.0773 -0.0185  0.1481
 1143YOPC   C2B14858  12.193   1.849   7.323 -0.1409 -0.1147 -0.3946
 1143YOPC   D3B14859  12.284   1.787   7.726 -0.2193 -0.1388 -0.0494
 1143YOPC   C4B14860  12.347   2.008   8.115  0.1014  0.1247  0.1000
 1144ERGO   ROH14861  14.731   0.205   6.703 -0.1225  0.1662 -0.1102
 1144ERGO    R114862  14.593   0.302   6.930 -0.2429  0.0466 -0.1309
 1144ERGO    R214863  14.385   0.163   7.048 -0.0362 -0.2171 -0.0635
 1144ERGO    R314864  14.537   0.191   7.272 -0.0496  0.0791 -0.0880
 1144ERGO    R414865  14.285   0.075   7.367  0.1589 -0.3413 -0.0350
 1144ERGO    R514866  14.381   0.256   7.442 -0.1397 -0.1610 -0.0770
 1144ERGO    C114867  14.369   0.051   7.763  0.2599 -0.1355 -0.0414
 1144ERGO    C214868  14.368   0.007   8.079  0.1262  0.2912 -0.1930
 1145ERGO   ROH14869   0.186   7.411   6.638  0.0632 -0.2196 -0.0579
 1145ERGO    R114870   0.332   7.355   6.874  0.1940  0.0758 -0.0611
 1145ERGO    R214871   0.438   7.553   7.035 -0.2104  0.3090 -0.0511
 1145ERGO    R314872   0.297   7.426   7.230  0.0448 -0.0001 -0.0626
 1145ERGO    R414873   0.501   7.579   7.374 -0.1719  0.2560 -0.0553
 1145ERGO    R514874   0.461   7.365   7.393  0.1759  0.1904 -0.1326
 1145ERGO    C114875   0.405   7.474   7.754  0.0903 -0.0651 -0.0686
 1145ERGO    C214876   0.560   7.616   8.028  0.0342 -0.2068 -0.2992
 1146ERGO   ROH14877  12.358   2.479   6.996  0.0131 -0.0500  0.1235
 1146ERGO    R114878  12.329   2.420   7.271  0.0001  0.0182  0.1370
 1146ERGO    R214879  12.184   2.579   7.443 -0.1492 -0.0292  0.0556
 1146ERGO    R314880  12.054   2.346   7.498  0.0052 -0.1049  0.1045
 1146ERGO    R414881  12.068   2.487   7.756 -0.2415  0.0397  0.0422
 1146ERGO    R514882  12.135   2.284   7.715 -0.0579  0.0700  0.1808
 1146ERGO    C114883  11.879   2.215   7.989 -0.1502  0.0088  0.0802
 1146ERGO    C214884  11.680   2.137   8.292 -0.0606  0.1974  0.0832
 1147ERGO   ROH14885   0.745   7.218   6.545 -0.0965 -0.3638  0.0823
 1147ERGO    R114886   0.821   7.162   6.812 -0.0688 -0.2366  0.1012
 1147ERGO    R214887   0.999   7.321   6.952  0.0560 -0.2514 -0.0435
 1147ERGO    R314888   0.797   7.329   7.134  0.1050 -0.0145  0.0035
 1147ERGO    R414889   1.037   7.397   7.287  0.2589 -0.4340 -0.0227
 1147ERGO    R514890   0.893   7.241   7.335  0.0259 -0.2414 -0.0515
 1147ERGO    C114891   0.869   7.450   7.653  0.4230 -0.3179  0.0334
 1147ERGO    C214892   1.032   7.630   7.868 -0.1462  0.0259 -0.2798
 1148ERGO   ROH14893  15.368   9.747   6.499  0.1327 -0.0304  0.0755
 1148ERGO    R114894  15.595   9.721   6.667  0.1160  0.0131  0.1044
 1148ERGO    R214895  15.626   9.870   6.897  0.0393 -0.0080  0.1277
 1148ERGO    R314896  15.658   9.626   7.013  0.0943 -0.0141  0.1011
 1148ERGO    R414897  15.830   9.804   7.169  0.2519 -0.0418 -0.0370
 1148ERGO    R514898  15.889   9.617   7.073  0.1441 -0.0514 -0.0878
 1148ERGO    C114899  15.978   9.536   7.435  0.4272 -0.0672 -0.1580
 1148ERGO    C214900  16.153   9.547   7.824 -0.1582 -0.0190  0.0131
 1149ERGO   ROH14901   7.992  13.719   5.751  0.0598  0.1750  0.1164
 1149ERGO    R114902   8.062  13.755   6.023  0.0602  0.0651  0.1321
 1149ERGO    R214903   7.947  13.950   6.182  0.2192  0.1484  0.1531
 1149ERGO    R314904   7.890  13.739   6.344  0.0035  0.1692  0.1059
 1149ERGO    R414905   7.866  13.975   6.517  0.1387  0.1576  0.1324
 1149ERGO    R514906   7.988  13.798   6.554 -0.0141  0.0569  0.1430
 1149ERGO    C114907   7.766  13.791   6.864 -0.1106  0.1825  0.0761
 1149ERGO    C214908   7.714  13.920   7.203  0.1385 -0.0308 -0.1482
 1150ERGO   ROH14909  15.065  18.091   6.860 -0.0302 -0.3306 -0.0158
 1150ERGO    R114910  14.943  18.202   7.089 -0.1250 -0.1263 -0.1638
 1150ERGO    R214911  14.822  18.047   7.284 -0.2376  0.0511 -0.0990
 1150ERGO    R314912  14.990  18.182   7.450 -0.3041  0.1622 -0.1196
 1150ERGO    R414913  14.775  18.085   7.624 -0.0868 -0.2370 -0.0417
 1150ERGO    R514914  14.844  18.291   7.605 -0.3610 -0.1245  0.0432
 1150ERGO    C114915  14.904  18.234   7.978 -0.0615 -0.3004 -0.0276
 1150ERGO    C214916  15.158  18.294   8.166 -0.4939 -0.3554 -0.1129
 1151ERGO   ROH14917  12.535  15.374   6.627 -0.0982  0.0415  0.1383
 1151ERGO    R114918  12.440  15.489   6.868 -0.0887 -0.0689  0.1946
 1151ERGO    R214919  12.456  15.359   7.111  0.1281 -0.0863  0.1691
 1151ERGO    R314920  12.582  15.587   7.188 -0.0305  0.0111  0.1457
 1151ERGO    R414921  12.524  15.446   7.439  0.4554 -0.2280  0.1436
 1151ERGO    R514922  12.470  15.652   7.390  0.1513 -0.2499  0.3409
 1151ERGO    C114923  12.681  15.712   7.702  0.4972 -0.2191  0.1068
 1151ERGO    C214924  12.932  15.816   7.991 -0.0480  0.0633 -0.0499
 1152ERGO   ROH14925   3.434  11.608   6.168 -0.1325 -0.0005  0.1559
 1152ERGO    R114926   3.519  11.480   6.405 -0.0466  0.2385  0.2583
 1152ERGO    R214927   3.480  11.590   6.656 -0.3945  0.2725  0.1983
 1152ERGO    R314928   3.362  11.350   6.707 -0.0076  0.0765  0.2090
 1152ERGO    R414929   3.348  11.495   6.961 -0.3159  0.0990  0.1786
 1152ERGO    R514930   3.431  11.296   6.929  0.0282  0.2288  0.2334
 1152ERGO    C114931   3.161  11.216   7.187  0.0931 -0.1859  0.1773
 1152ERGO    C214932   3.144  11.147   7.554 -0.1537  0.1413 -0.0290
 1153ERGO   ROH14933  11.373   6.302   6.565  0.0079  0.0100  0.1980
 1153ERGO    R114934  11.216   6.513   6.672  0.0004  0.0382  0.1332
 1153ERGO    R214935  11.126   6.514   6.933 -0.0636  0.0797  0.1146
 1153ERGO    R314936  11.248   6.757   6.940 -0.0404  0.0683  0.1097
 1153ERGO    R414937  11.047   6.769   7.153 -0.1922  0.1760 -0.0417
 1153ERGO    R514938  11.072   6.911   6.990 -0.0571  0.1093 -0.0783
 1153ERGO    C114939  11.116   7.145   7.287 -0.2453  0.2214 -0.1373
 1153ERGO    C214940  11.009   7.421   7.526  0.0973 -0.2176 -0.1855
 1154ERGO   ROH14941   1.879   8.267   6.545 -0.1233  0.0592  0.0129
 1154ERGO    R114942   1.800   8.352   6.804 -0.0632  0.1667 -0.0035
 1154ERGO    R214943   1.870   8.214   7.033 -0.2326  0.1131  0.0153
 1154ERGO    R314944   1.966   8.456   7.110  0.0148  0.0206  0.0054
 1154ERGO    R414945   1.983   8.289   7.351 -0.1514  0.0074  0.0119
 1154ERGO    R514946   1.886   8.483   7.334  0.0436  0.1089  0.0066
 1154ERGO    C114947   2.140   8.560   7.608  0.1280 -0.1408  0.0006
 1154ERGO    C214948   2.305   8.542   7.972  0.1168 -0.1862 -0.2669
 1155ERGO   ROH14949   7.172   1.900   6.710  0.1204  0.1975  0.0586
 1155ERGO    R114950   7.261   2.011   6.955  0.1460  0.1240  0.0818
 1155ERGO    R214951   7.089   2.070   7.163  0.1507  0.1889  0.0634
 1155ERGO    R314952   7.259   1.913   7.305  0.0518  0.0867  0.0718
 1155ERGO    R414953   7.100   2.053   7.508  0.0947  0.1527  0.0642
 1155ERGO    R514954   7.318   2.046   7.496  0.0954  0.0414  0.0922
 1155ERGO    C114955   7.266   1.896   7.842 -0.0307  0.0356  0.0727
 1155ERGO    C214956   7.353   2.002   8.105 -0.0158  0.2803 -0.1715
 1156ERGO   ROH14957   5.420  18.031   6.063  0.1946  0.0447  0.0184
 1156ERGO    R114958   5.526  18.132   6.306  0.0175  0.1467  0.0557
 1156ERGO    R214959   5.601  18.397   6.336 -0.1256  0.1923  0.0426
 1156ERGO    R314960   5.432  18.386   6.549 -0.2365  0.1535 -0.0464
 1156ERGO    R414961   5.613  18.610   6.608 -0.0003 -0.1163  0.2853
 1156ERGO    R514962   5.571  18.439   6.737 -0.2589 -0.2130  0.0807
 1156ERGO    C114963   5.462  18.724   6.966 -0.0314 -0.3322  0.3431
 1156ERGO    C214964   5.278  18.964   7.176 -0.1532 -0.1252 -0.2057
 1157ERGO   ROH14965  13.483   5.702   6.564 -0.2837  0.0927 -0.0903
 1157ERGO    R114966  13.320   5.813   6.766 -0.2056  0.0241  0.0113
 1157ERGO    R214967  13.213   5.662   6.971 -0.1193 -0.0442  0.0061
 1157ERGO    R314968  13.334   5.848   7.128 -0.0612 -0.0912  0.0175
 1157ERGO    R414969  13.179   5.683   7.315 -0.1845 -0.0002 -0.0027
 1157ERGO    R514970  13.171   5.900   7.296 -0.0729  0.0031 -0.0224
 1157ERGO    C114971  13.274   5.869   7.662 -0.1680 -0.0188  0.0028
 1157ERGO    C214972  13.322   6.071   7.898 -0.2915  0.1785  0.0619
 1158ERGO   ROH14973   9.020   7.043   6.426 -0.0101  0.0514 -0.1369
 1158ERGO    R114974   8.949   6.864   6.633  0.1815  0.0553 -0.0655
 1158ERGO    R214975   8.945   6.937   6.899  0.1936  0.1305 -0.0856
 1158ERGO    R314976   8.690   6.844   6.888  0.2615 -0.0702  0.0064
 1158ERGO    R414977   8.734   6.909   7.171  0.1399  0.4642 -0.0877
 1158ERGO    R514978   8.665   6.718   7.091  0.2962  0.2668  0.2274
 1158ERGO    C114979   8.372   6.804   7.320  0.1723  0.4702 -0.0025
 1158ERGO    C214980   8.274   6.805   7.665 -0.2105  0.0072 -0.1254
 1159ERGO   ROH14981   6.133  15.021   6.165  0.0321  0.0714  0.0965
 1159ERGO    R114982   6.163  14.830   6.372 -0.0941 -0.0669 -0.0108
 1159ERGO    R214983   6.295  14.886   6.608  0.1514 -0.3578 -0.0723
 1159ERGO    R314984   6.063  14.801   6.720  0.1017 -0.0798  0.0450
 1159ERGO    R414985   6.234  14.871   6.948  0.2244 -0.0984 -0.0451
 1159ERGO    R514986   6.132  14.681   6.916  0.0428 -0.0255  0.0978
 1159ERGO    C114987   5.981  14.782   7.251  0.2204  0.3136  0.0809
 1159ERGO    C214988   6.141  14.803   7.554 -0.0974 -0.0481 -0.2259
 1160ERGO   ROH14989  14.129   8.331   6.350  0.2272 -0.1959 -0.0834
 1160ERGO    R114990  14.197   8.260   6.616  0.1443 -0.0431 -0.0190
 1160ERGO    R214991  14.394   8.390   6.759  0.1035  0.0413 -0.0285
 1160ERGO    R314992  14.195   8.423   6.941  0.0423  0.1486 -0.1152
 1160ERGO    R414993  14.439   8.401   7.101 -0.0718 -0.2255  0.0049
 1160ERGO    R514994  14.258   8.282   7.124 -0.2164 -0.0364 -0.1673
 1160ERGO    C114995  14.279   8.437   7.472 -0.2313 -0.2801 -0.0570
 1160ERGO    C214996  14.302   8.540   7.868  0.2484 -0.1118 -0.0915
 1161ERGO   ROH14997   6.394   7.244   6.090  0.1044 -0.1316  0.0905
 1161ERGO    R114998   6.409   7.373   6.341 -0.0176 -0.0581  0.0624
 1161ERGO    R214999   6.411   7.233   6.580  0.0899 -0.0034  0.1006
 1161ERGO    R315000   6.639   7.376   6.624 -0.0313  0.2010  0.0717
 1161ERGO    R415001   6.570   7.264   6.886  0.3607 -0.2495 -0.0119
 1161ERGO    R515002   6.607   7.473   6.840  0.0685 -0.1393  0.2431
 1161ERGO    C115003   6.875   7.415   7.105  0.4047 -0.2010 -0.1045
 1161ERGO    C215004   7.060   7.296   7.388 -0.1567  0.1302 -0.0108
 1162ERGO   ROH15005  11.698  12.594   6.240  0.1050  0.1439 -0.0263
 1162ERGO    R115006  11.556  12.717   6.451  0.0866  0.1819 -0.0609
 1162ERGO    R215007  11.497  12.587   6.687 -0.1183  0.1539 -0.1252
 1162ERGO    R315008  11.620  12.802   6.799 -0.0236  0.0392 -0.0046
 1162ERGO    R415009  11.448  12.696   7.012  0.0053 -0.0628 -0.0315
 1162ERGO    R515010  11.452  12.901   6.938  0.0441 -0.0098  0.1142
 1162ERGO    C115011  11.535  12.961   7.305  0.1661 -0.2967  0.1363
 1162ERGO    C215012  11.393  13.126   7.564 -0.0694 -0.1822 -0.0216
 1163ERGO   ROH15013  17.049  17.767   6.861 -0.3048 -0.0966 -0.1082
 1163ERGO    R115014  16.941  17.860   7.106 -0.0895 -0.0014 -0.0468
 1163ERGO    R215015  16.853  17.688   7.304 -0.1953  0.0743 -0.0289
 1163ERGO    R315016  17.024  17.831   7.459  0.0396 -0.1377 -0.0867
 1163ERGO    R415017  16.821  17.729   7.645 -0.0678  0.1674 -0.0276
 1163ERGO    R515018  16.883  17.937   7.621  0.2169  0.0837 -0.0707
 1163ERGO    C115019  16.964  17.887   7.990  0.2269  0.0226 -0.0811
 1163ERGO    C215020  17.033  18.044   8.155 -0.1677  0.1552 -0.0837
 1164ERGO   ROH15021  17.017   5.892   6.307 -0.0957  0.1778 -0.2013
 1164ERGO    R115022  17.174   5.902   6.542 -0.1570 -0.0056 -0.1520
 1164ERGO    R215023  17.164   6.113   6.719 -0.0475 -0.0465 -0.1006
 1164ERGO    R315024  17.113   5.917   6.900 -0.2492 -0.0557 -0.1645
 1164ERGO    R415025  17.242   6.129   7.055 -0.1119 -0.1964 -0.0771
 1164ERGO    R515026  17.302   5.920   7.046 -0.2774 -0.2461 -0.1184
 1164ERGO    C115027  17.240   5.954   7.421 -0.3386 -0.2924 -0.1235
 1164ERGO    C215028  17.140   6.147   7.689  0.1160 -0.2137 -0.0630
 1165ERGO   ROH15029   2.330   3.041   6.030 -0.3100  0.3165 -0.1162
 1165ERGO    R115030   2.166   3.000   6.258 -0.0870  0.2181  0.0294
 1165ERGO    R215031   2.215   2.800   6.442  0.1308  0.1787 -0.0739
 1165ERGO    R315032   2.209   3.006   6.619  0.2518  0.1247 -0.0042
 1165ERGO    R415033   2.140   2.769   6.778 -0.0175  0.1199 -0.1106
 1165ERGO    R515034   2.026   2.954   6.764  0.1489  0.2319 -0.0886
 1165ERGO    C115035   2.091   2.945   7.140  0.0097  0.0349 -0.0665
 1165ERGO    C215036   2.030   2.959   7.445  0.0687 -0.1774  0.2376
 1166ERGO   ROH15037   5.396  12.047   6.032  0.2214 -0.0862 -0.0501
 1166ERGO    R115038   5.461  12.120   6.298  0.0080  0.0474 -0.0323
 1166ERGO    R215039   5.269  12.151   6.494 -0.1270 -0.1544 -0.1262
 1166ERGO    R315040   5.423  11.972   6.629  0.0381  0.0615 -0.0231
 1166ERGO    R415041   5.241  12.081   6.831 -0.0837 -0.0172 -0.0937
 1166ERGO    R515042   5.459  12.074   6.843 -0.0777  0.2013 -0.0704
 1166ERGO    C115043   5.369  11.873   7.154  0.0965  0.2654  0.0220
 1166ERGO    C215044   5.396  11.902   7.488  0.0102  0.1238 -0.2645
 1167ERGO   ROH15045  11.213  16.120   6.038 -0.1319  0.0569 -0.0185
 1167ERGO    R115046  11.238  16.073   6.316 -0.0745  0.2692  0.0133
 1167ERGO    R215047  11.127  16.239   6.506 -0.4163  0.1761 -0.1033
 1167ERGO    R315048  11.013  16.008   6.595  0.0070  0.0055  0.0217
 1167ERGO    R415049  11.003  16.190   6.825 -0.6047  0.2362 -0.1643
 1167ERGO    R515050  11.088  15.989   6.822 -0.1510  0.4058  0.1183
 1167ERGO    C115051  10.825  15.944   7.094 -0.3170  0.1112 -0.0825
 1167ERGO    C215052  10.668  15.779   7.313  0.0656  0.1357  0.1040
 1168ERGO   ROH15053   1.897   5.318   6.418 -0.1960 -0.1086 -0.0446
 1168ERGO    R115054   1.896   5.324   6.701 -0.0580 -0.0532 -0.0441
 1168ERGO    R215055   1.803   5.541   6.845 -0.0485 -0.0516 -0.0419
 1168ERGO    R315056   1.645   5.354   6.964  0.0623 -0.0726  0.0749
 1168ERGO    R415057   1.597   5.600   7.116 -0.0243 -0.0199 -0.0304
 1168ERGO    R515058   1.656   5.407   7.197  0.0835  0.0436  0.0497
 1168ERGO    C115059   1.328   5.459   7.385  0.0938 -0.0211  0.0858
 1168ERGO    C215060   1.192   5.347   7.665  0.1418 -0.0952  0.1322
 1169ERGO   ROH15061  16.653  16.730   6.998 -0.0401  0.0904 -0.1655
 1169ERGO    R115062  16.576  16.634   7.254  0.0175 -0.0051 -0.1820
 1169ERGO    R215063  16.665  16.749   7.488  0.0705 -0.0894 -0.1536
 1169ERGO    R315064  16.400  16.767   7.543  0.0824 -0.1096 -0.0959
 1169ERGO    R415065  16.528  16.738   7.805  0.1350 -0.0607 -0.1254
 1169ERGO    R515066  16.366  16.615   7.725  0.1336 -0.0844 -0.0708
 1169ERGO    C115067  16.198  16.747   8.041  0.1837 -0.0626 -0.0548
 1169ERGO    C215068  16.087  16.792   8.375  0.0270 -0.0101  0.1709
 1170ERGO   ROH15069   2.463  11.824   6.317 -0.0330  0.1369  0.0611
 1170ERGO    R115070   2.521  11.841   6.593 -0.0542  0.0879  0.0693
 1170ERGO    R215071   2.326  11.884   6.784 -0.0850 -0.0494  0.0738
 1170ERGO    R315072   2.429  11.658   6.894  0.0098 -0.0350  0.0137
 1170ERGO    R415073   2.290  11.791   7.115  0.1987 -0.0136  0.1163
 1170ERGO    R515074   2.498  11.724   7.114  0.1965 -0.0117 -0.0521
 1170ERGO    C115075   2.367  11.525   7.411  0.4529  0.0208  0.0845
 1170ERGO    C215076   2.342  11.386   7.678  0.2215  0.2176  0.0939
 1171ERGO   ROH15077   5.939  10.882   6.179 -0.1569 -0.1654 -0.0579
 1171ERGO    R115078   5.999  10.691   6.379  0.1449  0.0899  0.1048
 1171ERGO    R215079   6.057  10.762   6.640 -0.2604  0.3933  0.1238
 1171ERGO    R315080   5.856  10.588   6.698  0.1070 -0.0815  0.0329
 1171ERGO    R415081   6.023  10.591   6.939 -0.1162  0.4842  0.1928
 1171ERGO    R515082   5.962  10.415   6.825  0.4250  0.2509  0.2356
 1171ERGO    C115083   5.815  10.328   7.167  0.3126  0.0914  0.1475
 1171ERGO    C215084   5.846  10.133   7.512  0.1963  0.1220 -0.0461
 1172ERGO   ROH15085  14.256  13.786   6.727  0.0307  0.1670 -0.0849
 1172ERGO    R115086  14.272  13.843   7.003 -0.1022  0.1688 -0.0760
 1172ERGO    R215087  14.051  13.914   7.154 -0.2326 -0.1371 -0.1121
 1172ERGO    R315088  14.133  13.707   7.311  0.0155 -0.0446 -0.1166
 1172ERGO    R415089  14.009  13.896   7.497 -0.1548 -0.1708 -0.1049
 1172ERGO    R515090  14.209  13.811   7.512 -0.0614  0.0435 -0.1346
 1172ERGO    C115091  14.062  13.691   7.843  0.1233 -0.1037 -0.1049
 1172ERGO    C215092  13.888  13.643   8.077 -0.0659 -0.0386 -0.0625
 1173ERGO   ROH15093   7.333  11.823   5.778  0.1125  0.0448 -0.0121
 1173ERGO    R115094   7.420  11.962   6.009  0.0989  0.0165  0.0122
 1173ERGO    R215095   7.265  12.154   6.135  0.1473  0.1123 -0.0545
 1173ERGO    R315096   7.308  11.998   6.353 -0.0166  0.0955 -0.0357
 1173ERGO    R415097   7.243  12.262   6.463  0.1160  0.1256 -0.0625
 1173ERGO    R515098   7.418  12.142   6.509  0.0213  0.0229 -0.0051
 1173ERGO    C115099   7.270  12.178   6.858 -0.0561  0.1175 -0.0495
 1173ERGO    C215100   7.087  12.123   7.143 -0.0675  0.0321 -0.2844
 1174ERGO   ROH15101   3.182  11.199   6.370 -0.1080  0.2316  0.1477
 1174ERGO    R115102   3.118  10.970   6.523  0.0507  0.0957  0.0159
 1174ERGO    R215103   3.265  10.893   6.744  0.0383  0.1350  0.0386
 1174ERGO    R315104   3.023  10.901   6.868 -0.0213 -0.1557 -0.0524
 1174ERGO    R415105   3.201  10.772   7.062  0.0797  0.1166  0.0397
 1174ERGO    R515106   3.011  10.694   6.989  0.2049 -0.1490 -0.0148
 1174ERGO    C115107   2.936  10.709   7.363  0.0479 -0.1670 -0.0450
 1174ERGO    C215108   2.794  10.622   7.750  0.0045  0.1748 -0.1260
 1175ERGO   ROH15109  12.621   1.327   6.567  0.0702 -0.0269 -0.0337
 1175ERGO    R115110  12.566   1.466   6.807  0.0766  0.0586 -0.0822
 1175ERGO    R215111  12.411   1.358   7.010 -0.0926  0.2151 -0.1303
 1175ERGO    R315112  12.629   1.416   7.162 -0.1132  0.0734 -0.0438
 1175ERGO    R415113  12.430   1.318   7.352 -0.2087  0.0519 -0.1414
 1175ERGO    R515114  12.539   1.507   7.364 -0.1447  0.0149 -0.0272
 1175ERGO    C115115  12.645   1.350   7.695 -0.2955 -0.1761 -0.0667
 1175ERGO    C215116  12.528   1.080   7.869  0.1278  0.0904 -0.2357
 1176ERGO   ROH15117  13.605   6.769   6.686  0.0204  0.0051 -0.0058
 1176ERGO    R115118  13.589   6.739   6.967  0.0987 -0.1241 -0.0142
 1176ERGO    R215119  13.805   6.666   7.122  0.2005  0.0270 -0.0836
 1176ERGO    R315120  13.742   6.893   7.259 -0.0003 -0.0860  0.0191
 1176ERGO    R415121  13.879   6.722   7.455  0.4279  0.0638 -0.1384
 1176ERGO    R515122  13.683   6.815   7.477  0.3097 -0.2192  0.0615
 1176ERGO    C115123  13.863   6.967   7.777  0.3720 -0.0209 -0.0739
 1176ERGO    C215124  13.999   7.047   7.996 -0.1163 -0.1564  0.1323
 1177ERGO   ROH15125   9.507   8.853   6.673 -0.0924  0.1652 -0.1319
 1177ERGO    R115126   9.447   8.931   6.938 -0.0569  0.0732 -0.0969
 1177ERGO    R215127   9.634   9.050   7.104 -0.1188  0.2890 -0.1851
 1177ERGO    R315128   9.443   9.243   7.127 -0.3444  0.0579 -0.0715
 1177ERGO    R415129   9.594   9.256   7.379 -0.1037  0.3345 -0.2163
 1177ERGO    R515130   9.378   9.234   7.358 -0.1058  0.0514  0.0017
 1177ERGO    C115131   9.392   9.556   7.561 -0.3067  0.1442 -0.1278
 1177ERGO    C215132   9.563   9.751   7.750  0.0116 -0.1066  0.1375
 1178ERGO   ROH15133  17.760   9.746   6.735  0.1453 -0.4525 -0.1405
 1178ERGO    R115134  17.735   9.653   7.001  0.0315  0.0676  0.0415
 1178ERGO    R215135  17.946   9.542   7.141 -0.1797 -0.2342  0.1032
 1178ERGO    R315136  17.882   9.732   7.325  0.3984  0.2593 -0.1594
 1178ERGO    R415137  18.093   9.572   7.452 -0.4483 -0.6703  0.2823
 1178ERGO    R515138  17.895   9.617   7.535 -0.4274  0.3172 -0.0244
 1178ERGO    C115139  18.117   9.767   7.807 -0.0623 -0.4609  0.1401
 1178ERGO    C215140  18.097   9.685   8.241 -0.0171  0.0479  0.0236
 1179ERGO   ROH15141  13.091  13.153   6.339  0.0232 -0.4149 -0.0971
 1179ERGO    R115142  13.051  13.193   6.616  0.3398 -0.1294 -0.0835
 1179ERGO    R215143  12.849  13.066   6.757 -0.0633  0.6512  0.1142
 1179ERGO    R315144  13.054  12.986   6.916 -0.2186 -0.0300 -0.0006
 1179ERGO    R415145  12.817  12.961   7.085 -0.2074  0.9404  0.1951
 1179ERGO    R515146  12.999  13.070   7.133  0.2509  0.3048 -0.0013
 1179ERGO    C115147  12.991  12.824   7.424 -0.4369  0.4694  0.1342
 1179ERGO    C215148  12.913  12.563   7.531  0.1763  0.0355  0.1785
 1180ERGO   ROH15149   9.161   0.467   6.350 -0.2362  0.1273  0.0105
 1180ERGO    R115150   9.097   0.618   6.581 -0.3565  0.0246  0.0458
 1180ERGO    R215151   8.933   0.520   6.782 -0.0177 -0.2940  0.1797
 1180ERGO    R315152   9.145   0.583   6.940 -0.0037  0.1395  0.0165
 1180ERGO    R415153   8.926   0.530   7.127  0.2481 -0.4051  0.1916
 1180ERGO    R515154   9.049   0.709   7.120 -0.1446 -0.1100  0.1290
 1180ERGO    C115155   9.120   0.596   7.477  0.4161 -0.0628  0.0453
 1180ERGO    C215156   9.270   0.531   7.837  0.3914 -0.3692  0.1650
 1181ERGO   ROH15157   5.815  13.122   5.963 -0.0186  0.1230  0.0820
 1181ERGO    R115158   5.759  13.136   6.240 -0.1629  0.0282  0.0591
 1181ERGO    R215159   5.619  12.940   6.374 -0.0016 -0.1507 -0.0283
 1181ERGO    R315160   5.837  12.939   6.536 -0.0717  0.0814  0.0707
 1181ERGO    R415161   5.608  12.925   6.719 -0.1414 -0.3775 -0.0403
 1181ERGO    R515162   5.771  13.070   6.725 -0.3599 -0.1312  0.1235
 1181ERGO    C115163   5.807  12.916   7.072 -0.2885 -0.2915  0.0456
 1181ERGO    C215164   5.931  12.947   7.361 -0.0723 -0.1667  0.0603
 1182ERGO   ROH15165   9.840   5.803   6.657 -0.0330 -0.0122  0.0262
 1182ERGO    R115166   9.686   5.835   6.892  0.0986  0.0693  0.1014
 1182ERGO    R215167   9.636   5.628   7.068 -0.0049  0.0734  0.0720
 1182ERGO    R315168   9.739   5.800   7.250  0.2248 -0.0586  0.0718
 1182ERGO    R415169   9.632   5.579   7.410 -0.0237  0.0498  0.0691
 1182ERGO    R515170   9.587   5.791   7.434  0.2297  0.1086  0.0896
 1182ERGO    C115171   9.727   5.712   7.780  0.1809 -0.0880  0.0671
 1182ERGO    C215172   9.740   5.587   8.081 -0.2246  0.0603 -0.1314
 1183ERGO   ROH15173   7.254   1.437   6.801 -0.1072 -0.0842 -0.1382
 1183ERGO    R115174   7.309   1.551   7.054 -0.0587 -0.0520 -0.1640
 1183ERGO    R215175   7.159   1.495   7.279 -0.0931  0.0739 -0.1567
 1183ERGO    R315176   7.401   1.430   7.385 -0.1270 -0.0192 -0.1326
 1183ERGO    R415177   7.226   1.467   7.617 -0.1381  0.0310 -0.1502
 1183ERGO    R515178   7.418   1.565   7.582 -0.0990 -0.0359 -0.1233
 1183ERGO    C115179   7.492   1.391   7.913 -0.1964 -0.0815 -0.1238
 1183ERGO    C215180   7.727   1.408   8.214  0.1993  0.1194 -0.1579
 1184ERGO   ROH15181  13.518   4.367   6.837  0.1671 -0.1996  0.1292
 1184ERGO    R115182  13.338   4.308   7.047  0.1221 -0.1091  0.1167
 1184ERGO    R215183  13.412   4.164   7.270  0.0615 -0.0561  0.1721
 1184ERGO    R315184  13.314   4.380   7.403  0.0737 -0.0007  0.0919
 1184ERGO    R415185  13.421   4.204   7.614 -0.1147 -0.0189  0.1731
 1184ERGO    R515186  13.219   4.288   7.604 -0.0758  0.0614  0.0505
 1184ERGO    C115187  13.334   4.430   7.938 -0.2057  0.0546  0.0984
 1184ERGO    C215188  13.539   4.512   8.273  0.2903 -0.1335 -0.0287
 1185ERGO   ROH15189   4.466   3.782   6.178 -0.0059 -0.0167 -0.0474
 1185ERGO    R115190   4.441   3.763   6.460  0.0336 -0.0232 -0.0445
 1185ERGO    R215191   4.222   3.647   6.582  0.0425 -0.0077 -0.0169
 1185ERGO    R315192   4.412   3.497   6.705  0.0467 -0.0281 -0.0477
 1185ERGO    R415193   4.192   3.512   6.899  0.0753 -0.0060 -0.0128
 1185ERGO    R515194   4.401   3.563   6.935  0.0879 -0.0270 -0.0446
 1185ERGO    C115195   4.353   3.292   7.199  0.0985 -0.0241 -0.0393
 1185ERGO    C215196   4.208   3.272   7.501  0.2104  0.0991 -0.0098
 1186ERGO   ROH15197   0.673   9.478   6.566 -0.2028 -0.0485 -0.0627
 1186ERGO    R115198   0.708   9.526   6.843 -0.0145  0.0753 -0.1067
 1186ERGO    R215199   0.695   9.325   7.032 -0.1359  0.1973  0.0154
 1186ERGO    R315200   0.940   9.418   7.102  0.0021 -0.0208 -0.1605
 1186ERGO    R415201   0.829   9.307   7.350  0.0430  0.1510 -0.0617
 1186ERGO    R515202   0.909   9.508   7.322  0.2232  0.0695 -0.1626
 1186ERGO    C115203   1.138   9.384   7.601  0.2767 -0.0808 -0.2716
 1186ERGO    C215204   1.308   9.255   8.004  0.2005 -0.0330  0.2987
 1187ERGO   ROH15205   1.991   6.941   6.367 -0.1192  0.0096 -0.2697
 1187ERGO    R115206   1.973   6.889   6.644  0.0320  0.2381 -0.2137
 1187ERGO    R215207   1.885   6.647   6.745 -0.1700  0.4073  0.0340
 1187ERGO    R315208   2.121   6.655   6.879 -0.0542  0.2426 -0.1548
 1187ERGO    R415209   1.973   6.434   7.002 -0.1834  0.4562  0.0790
 1187ERGO    R515210   2.063   6.603   7.106  0.0699  0.4236 -0.0802
 1187ERGO    C115211   2.246   6.317   7.278 -0.0825  0.3301 -0.0720
 1187ERGO    C215212   2.395   6.097   7.575 -0.0267 -0.1426  0.2375
 1188ERGO   ROH15213   9.923   7.764   6.527 -0.1289  0.2426 -0.0343
 1188ERGO    R115214   9.961   7.978   6.708 -0.1117  0.2246 -0.0182
 1188ERGO    R215215   9.782   8.036   6.909 -0.0361  0.1372  0.0690
 1188ERGO    R315216  10.002   8.017   7.067  0.0406  0.1827 -0.0289
 1188ERGO    R415217   9.813   8.181   7.221  0.0746  0.1631  0.0474
 1188ERGO    R515218  10.019   8.232   7.171  0.0480  0.1961 -0.0503
 1188ERGO    C115219  10.037   8.247   7.552  0.2109  0.2208 -0.0571
 1188ERGO    C215220   9.955   8.438   7.799 -0.2907 -0.0364  0.1584
 1189ERGO   ROH15221   7.958   8.002   6.336 -0.0901  0.1940  0.0368
 1189ERGO    R115222   7.751   7.949   6.523 -0.0155  0.0227  0.0745
 1189ERGO    R215223   7.687   7.694   6.605  0.1074 -0.0459 -0.0291
 1189ERGO    R315224   7.725   7.799   6.853  0.1425 -0.1504  0.0096
 1189ERGO    R415225   7.499   7.615   6.884 -0.1613  0.1880 -0.1395
 1189ERGO    R515226   7.504   7.825   6.941  0.1334  0.1729 -0.0998
 1189ERGO    C115227   7.425   7.667   7.279 -0.2849  0.2261 -0.1674
 1189ERGO    C215228   7.383   7.595   7.606 -0.0715  0.2543  0.2262
 1190ERGO   ROH15229   1.380  14.731   6.781 -0.1269 -0.0223 -0.0175
 1190ERGO    R115230   1.512  14.668   7.024 -0.0645 -0.1790 -0.0910
 1190ERGO    R215231   1.463  14.805   7.259  0.2105 -0.1343 -0.0588
 1190ERGO    R315232   1.415  14.555   7.356 -0.0121 -0.0887 -0.0443
 1190ERGO    R415233   1.503  14.711   7.589  0.1861 -0.1661 -0.0641
 1190ERGO    R515234   1.587  14.522   7.520 -0.0096 -0.2515 -0.0774
 1190ERGO    C115235   1.481  14.423   7.873 -0.0371 -0.1417 -0.0536
 1190ERGO    C215236   1.497  14.493   8.216  0.1072 -0.3629 -0.2516
 1191ERGO   ROH15237   0.434  14.357   6.869 -0.0187 -0.0061  0.0468
 1191ERGO    R115238   0.383  14.300   7.141 -0.0168  0.0534  0.0601
 1191ERGO    R215239   0.567  14.171   7.303 -0.0697 -0.0370  0.0513
 1191ERGO    R315240   0.532  14.389   7.462  0.0779  0.0031  0.0302
 1191ERGO    R415241   0.592  14.170   7.648 -0.0426 -0.0121  0.0491
 1191ERGO    R515242   0.420  14.304   7.655  0.0410  0.0951  0.0485
 1191ERGO    C115243   0.573  14.375   7.997  0.1117  0.0400  0.0281
 1191ERGO    C215244   0.518  14.669   8.224 -0.0303  0.2521 -0.0956
 1192ERGO   ROH15245   1.028  12.876   6.655 -0.2725 -0.0901  0.2736
 1192ERGO    R115246   1.180  12.672   6.779 -0.2089 -0.0064  0.3300
 1192ERGO    R215247   1.455  12.685   6.802 -0.2060  0.0149  0.1863
 1192ERGO    R315248   1.403  12.646   7.066 -0.0665  0.1766  0.2409
 1192ERGO    R415249   1.688  12.580   7.033 -0.0922  0.0727  0.1006
 1192ERGO    R515250   1.534  12.453   7.123 -0.0856  0.1626  0.2639
 1192ERGO    C115251   1.777  12.482   7.417  0.1051  0.2581  0.1020
 1192ERGO    C215252   1.959  12.330   7.638 -0.0663  0.1532  0.1913
 1193ERGO   ROH15253   3.542  12.851   6.295  0.0360  0.1450 -0.0313
 1193ERGO    R115254   3.480  12.844   6.571 -0.0214  0.1374 -0.0452
 1193ERGO    R215255   3.646  12.952   6.763 -0.0082  0.0259 -0.0024
 1193ERGO    R315256   3.421  13.087   6.835  0.0464  0.1280 -0.0184
 1193ERGO    R415257   3.602  13.111   7.067 -0.0674 -0.2415  0.1332
 1193ERGO    R515258   3.396  13.038   7.069 -0.1356 -0.0909 -0.0748
 1193ERGO    C115259   3.365  13.331   7.311 -0.0506 -0.3013  0.1971
 1193ERGO    C215260   3.393  13.659   7.477  0.1680  0.0781 -0.2816
 1194ERGO   ROH15261   2.778   8.581   6.699 -0.0853  0.2821 -0.0701
 1194ERGO    R115262   2.891   8.773   6.873  0.0370  0.2198 -0.0802
 1194ERGO    R215263   2.742   8.908   7.063  0.1296  0.2989 -0.0631
 1194ERGO    R315264   2.932   8.812   7.233  0.0962  0.1948 -0.0841
 1194ERGO    R415265   2.844   9.063   7.355  0.3164  0.2907 -0.1225
 1194ERGO    R515266   3.049   9.006   7.308  0.2628  0.1235 -0.1567
 1194ERGO    C115267   3.081   9.063   7.684  0.3938  0.1883 -0.1769
 1194ERGO    C215268   3.174   9.281   7.841 -0.0720 -0.0800  0.3836
 1195ERGO   ROH15269   1.249   4.381   6.251  0.2678 -0.0173  0.0360
 1195ERGO    R115270   1.120   4.266   6.475  0.1095  0.0235 -0.0322
 1195ERGO    R215271   1.198   4.024   6.583 -0.0843 -0.0488 -0.0439
 1195ERGO    R315272   1.214   4.169   6.813 -0.0769 -0.0972 -0.0143
 1195ERGO    R415273   1.091   3.916   6.894 -0.1647 -0.0721 -0.0801
 1195ERGO    R515274   1.012   4.116   6.931 -0.1096 -0.0575 -0.0551
 1195ERGO    C115275   1.042   3.989   7.289 -0.2046 -0.1311 -0.0733
 1195ERGO    C215276   1.071   4.002   7.653  0.0217 -0.1917  0.1590
 1196ERGO   ROH15277   8.308   5.895   6.693  0.0909 -0.0182  0.1332
 1196ERGO    R115278   8.172   5.787   6.917  0.0168  0.2099  0.1998
 1196ERGO    R215279   8.277   5.583   7.069 -0.2148  0.0908  0.1942
 1196ERGO    R315280   8.235   5.757   7.274  0.0979  0.1856  0.1853
 1196ERGO    R415281   8.277   5.497   7.404 -0.2948  0.1140  0.2011
 1196ERGO    R515282   8.107   5.631   7.433 -0.0834  0.3970  0.2179
 1196ERGO    C115283   8.237   5.610   7.791 -0.0478  0.2165  0.1968
 1196ERGO    C215284   8.365   5.540   8.090 -0.0336 -0.1663 -0.0524
 1197ERGO   ROH15285  15.004   3.315   6.750 -0.0179  0.1745 -0.1763
 1197ERGO    R115286  15.173   3.378   6.968  0.0185  0.2932 -0.2378
 1197ERGO    R215287  15.170   3.624   7.092 -0.2835  0.2163 -0.0855
 1197ERGO    R315288  15.129   3.476   7.316  0.0725  0.0122 -0.1485
 1197ERGO    R415289  15.259   3.721   7.412 -0.4978  0.2982 -0.0490
 1197ERGO    R515290  15.324   3.516   7.450 -0.0060  0.4201 -0.1408
 1197ERGO    C115291  15.272   3.637   7.808 -0.2883  0.1542 -0.0869
 1197ERGO    C215292  15.162   3.765   8.123 -0.1790  0.0642 -0.3160
 1198ERGO   ROH15293  16.556   0.938   6.493 -0.0545  0.1420 -0.0253
 1198ERGO    R115294  16.515   1.046   6.751 -0.0693  0.0462  0.0125
 1198ERGO    R215295  16.365   0.917   6.944  0.0100 -0.0790 -0.0070
 1198ERGO    R315296  16.590   0.947   7.093  0.0172 -0.0262 -0.0275
 1198ERGO    R415297  16.373   0.934   7.289  0.0523 -0.1679 -0.0032
 1198ERGO    R515298  16.524   1.089   7.274 -0.0153 -0.1024  0.0196
 1198ERGO    C115299  16.590   0.971   7.630  0.0837 -0.1701 -0.0201
 1198ERGO    C215300  16.609   1.173   7.971 -0.2213  0.4041 -0.2248
 1199ERGO   ROH15301   3.078   7.769   6.607 -0.2723  0.0366  0.1454
 1199ERGO    R115302   3.084   7.695   6.880 -0.1091 -0.0823  0.1107
 1199ERGO    R215303   2.854   7.651   7.027 -0.0272  0.0421  0.2774
 1199ERGO    R315304   2.973   7.412   7.080 -0.1749 -0.0781  0.0812
 1199ERGO    R415305   2.827   7.478   7.326  0.0957 -0.0443  0.2398
 1199ERGO    R515306   3.039   7.428   7.310  0.0445 -0.2151  0.0323
 1199ERGO    C115307   2.923   7.154   7.549  0.0285 -0.2076  0.0337
 1199ERGO    C215308   2.753   7.016   7.806  0.2742  0.3293  0.3356
 1200ERGO   ROH15309   6.642   9.027   6.153  0.1508 -0.0386 -0.0392
 1200ERGO    R115310   6.502   8.969   6.392  0.1518 -0.0962 -0.0519
 1200ERGO    R215311   6.631   8.914   6.631  0.1532 -0.0020 -0.0269
 1200ERGO    R315312   6.474   9.115   6.724  0.0270 -0.0799 -0.0702
 1200ERGO    R415313   6.590   8.994   6.964 -0.0366 -0.0593 -0.0354
 1200ERGO    R515314   6.379   9.028   6.925 -0.0300 -0.1424 -0.1268
 1200ERGO    C115315   6.419   9.230   7.246 -0.2656 -0.1659 -0.0811
 1200ERGO    C215316   6.370   9.216   7.526 -0.0113  0.0924  0.0166
 1201ERGO   ROH15317   4.694  12.711   6.161  0.1311  0.1603 -0.0249
 1201ERGO    R115318   4.660  12.808   6.425  0.0634  0.1980 -0.0462
 1201ERGO    R215319   4.576  12.647   6.633 -0.2185  0.2769 -0.0876
 1201ERGO    R315320   4.802  12.739   6.752 -0.1979  0.0638  0.0400
 1201ERGO    R415321   4.604  12.727   6.968 -0.3934  0.4748 -0.1194
 1201ERGO    R515322   4.724  12.900   6.911 -0.1203  0.2770 -0.1392
 1201ERGO    C115323   4.833  12.861   7.275 -0.4758  0.3901 -0.0182
 1201ERGO    C215324   5.003  12.809   7.567 -0.0111  0.0857  0.1196
 1202ERGO   ROH15325  17.148   2.478   6.290 -0.1529  0.1411  0.0403
 1202ERGO    R115326  17.267   2.408   6.537 -0.0339  0.0377 -0.0461
 1202ERGO    R215327  17.241   2.563   6.764  0.0937 -0.0460  0.0242
 1202ERGO    R315328  17.153   2.330   6.874  0.1305 -0.0802 -0.0162
 1202ERGO    R415329  17.238   2.493   7.103  0.0394 -0.0808  0.0179
 1202ERGO    R515330  17.304   2.290   7.056  0.1022 -0.0596  0.0121
 1202ERGO    C115331  17.155   2.234   7.403  0.0423 -0.1332 -0.0238
 1202ERGO    C215332  16.988   2.386   7.683 -0.0298 -0.2696  0.0018
 1203ERGO   ROH15333   1.596  16.726   6.619  0.0206 -0.1458 -0.1120
 1203ERGO    R115334   1.761  16.632   6.829  0.0053 -0.0462 -0.0552
 1203ERGO    R215335   1.703  16.675   7.095 -0.0931 -0.0487 -0.0792
 1203ERGO    R315336   1.726  16.405   7.111  0.0345 -0.0368 -0.0428
 1203ERGO    R415337   1.749  16.497   7.388 -0.0315  0.0158 -0.0489
 1203ERGO    R515338   1.890  16.369   7.282  0.0407  0.0666 -0.0227
 1203ERGO    C115339   1.799  16.140   7.573  0.1242  0.0644  0.0028
 1203ERGO    C215340   1.760  16.111   7.958  0.1103  0.0749  0.2393
 1204ERGO   ROH15341  11.224   4.588   6.612 -0.2116  0.0900  0.0542
 1204ERGO    R115342  11.083   4.567   6.857 -0.1227  0.1365  0.1096
 1204ERGO    R215343  11.053   4.328   6.992 -0.1533  0.1464  0.1178
 1204ERGO    R315344  11.159   4.468   7.199 -0.0238  0.1060  0.0794
 1204ERGO    R415345  11.043   4.230   7.323  0.0432  0.0833  0.1061
 1204ERGO    R515346  11.004   4.437   7.378  0.0816  0.0762  0.1681
 1204ERGO    C115347  11.138   4.304   7.710  0.2793  0.0085  0.0633
 1204ERGO    C215348  11.210   4.000   7.805 -0.0386  0.0297  0.0370
 1205ERGO   ROH15349   3.185   4.832   6.162 -0.1542 -0.0557  0.0348
 1205ERGO    R115350   3.166   5.009   6.382 -0.1766 -0.1125  0.0771
 1205ERGO    R215351   3.077   4.929   6.630 -0.0036 -0.2235  0.0968
 1205ERGO    R315352   3.313   5.035   6.714 -0.0411 -0.0708  0.0172
 1205ERGO    R415353   3.139   5.041   6.952  0.0871 -0.3933  0.1408
 1205ERGO    R515354   3.248   5.210   6.866 -0.1131 -0.2281  0.1814
 1205ERGO    C115355   3.397   5.206   7.217  0.1047 -0.3488  0.0917
 1205ERGO    C215356   3.401   5.269   7.508 -0.0022  0.1643  0.1065
 1206ERGO   ROH15357  17.641  14.848   6.962  0.0876 -0.0038  0.1177
 1206ERGO    R115358  17.783  14.882   7.204  0.1257 -0.0839  0.1073
 1206ERGO    R215359  17.684  15.030   7.415  0.2654  0.0518  0.0810
 1206ERGO    R315360  17.729  14.802   7.555  0.0595  0.0355  0.1243
 1206ERGO    R415361  17.749  15.015   7.754  0.2000  0.0480  0.0935
 1206ERGO    R515362  17.898  14.862   7.714  0.0824 -0.0777  0.1415
 1206ERGO    C115363  17.830  14.792   8.083 -0.0315  0.0304  0.1415
 1206ERGO    C215364  17.611  14.771   8.388  0.0007  0.1655  0.4024
 1207ERGO   ROH15365  17.981   1.815   6.596 -0.0447 -0.0005  0.0221
 1207ERGO    R115366  18.080   1.842   6.859  0.0029  0.0800 -0.0037
 1207ERGO    R215367  18.164   2.084   6.963 -0.1965  0.1565 -0.0154
 1207ERGO    R315368  17.986   2.025   7.159 -0.0888 -0.0220  0.0305
 1207ERGO    R415369  18.190   2.187   7.292 -0.2931  0.3129 -0.0556
 1207ERGO    R515370  18.121   1.991   7.354 -0.0113  0.2353  0.0252
 1207ERGO    C115371  18.038   2.191   7.668 -0.2482  0.2364 -0.0360
 1207ERGO    C215372  17.962   2.200   8.051  0.0616 -0.1128  0.0611
 1208ERGO   ROH15373   0.725   1.476   6.470  0.1956  0.1278  0.0109
 1208ERGO    R115374   0.876   1.527   6.704  0.1638  0.0895  0.0419
 1208ERGO    R215375   0.761   1.624   6.936  0.1461  0.1512  0.0171
 1208ERGO    R315376   0.879   1.406   7.047  0.0384  0.1111  0.0491
 1208ERGO    R415377   0.844   1.592   7.271  0.2395  0.1975 -0.0028
 1208ERGO    R515378   1.030   1.495   7.210  0.1505  0.0578 -0.0316
 1208ERGO    C115379   1.003   1.368   7.569  0.1928  0.1868  0.0157
 1208ERGO    C215380   0.892   1.442   7.896 -0.0061  0.2437  0.1179
 1209ERGO   ROH15381  16.383   8.894   6.254  0.1100 -0.0817 -0.0552
 1209ERGO    R115382  16.514   8.931   6.502  0.1698 -0.1068 -0.0849
 1209ERGO    R215383  16.767   9.043   6.521  0.0596  0.1329 -0.1119
 1209ERGO    R315384  16.643   9.213   6.693 -0.0354 -0.1018  0.0495
 1209ERGO    R415385  16.913   9.182   6.802  0.0206  0.0127 -0.0300
 1209ERGO    R515386  16.726   9.151   6.909  0.0612 -0.2183 -0.0160
 1209ERGO    C115387  16.882   9.423   7.126 -0.0914 -0.2775  0.1691
 1209ERGO    C215388  16.960   9.560   7.431  0.0784  0.0549 -0.0378
 1210ERGO   ROH15389   5.938   7.368   6.214 -0.1170  0.0072 -0.0844
 1210ERGO    R115390   5.911   7.170   6.415  0.1290  0.1740  0.1209
 1210ERGO    R215391   5.896   7.232   6.684 -0.1009  0.4489  0.0507
 1210ERGO    R315392   5.667   7.086   6.671  0.1475  0.0395  0.0951
 1210ERGO    R415393   5.751   7.066   6.951  0.1509  0.3347  0.1191
 1210ERGO    R515394   5.706   6.901   6.817  0.4540  0.1789  0.1995
 1210ERGO    C115395   5.452   6.833   7.094  0.5307 -0.1161  0.2006
 1210ERGO    C215396   5.127   6.809   7.198 -0.1335  0.0657 -0.1627
 1211ERGO   ROH15397   6.958   5.682   6.631 -0.1490 -0.0378 -0.0519
 1211ERGO    R115398   6.865   5.859   6.832 -0.2048 -0.0273 -0.0865
 1211ERGO    R215399   6.605   5.852   6.927 -0.1757 -0.1604 -0.0113
 1211ERGO    R315400   6.728   5.828   7.168 -0.0908  0.0003 -0.0373
 1211ERGO    R415401   6.467   5.946   7.229 -0.1852 -0.2276  0.0051
 1211ERGO    R515402   6.661   6.024   7.289 -0.2404 -0.0361 -0.0597
 1211ERGO    C115403   6.501   5.978   7.632 -0.1109 -0.1160 -0.0097
 1211ERGO    C215404   6.276   5.871   7.799  0.0159  0.0776  0.2248
 1212ERGO   ROH15405  16.003   0.093   6.915 -0.0599  0.0115  0.0183
 1212ERGO    R115406  15.909   0.133   7.179 -0.1073  0.0008  0.0024
 1212ERGO    R215407  15.959  -0.047   7.383 -0.0915  0.0243  0.0161
 1212ERGO    R315408  16.058   0.173   7.509 -0.1656  0.0549  0.0224
 1212ERGO    R415409  16.028  -0.028   7.721  0.1336 -0.0425 -0.0231
 1212ERGO    R515410  15.946   0.174   7.721 -0.0187 -0.1018  0.1039
 1212ERGO    C115411  16.160   0.190   8.036  0.1952 -0.0528 -0.0400
 1212ERGO    C215412  16.199   0.102   8.480  0.0750 -0.1268  0.1827
 1213ERGO   ROH15413   7.774   8.830   6.109 -0.1051  0.0333 -0.1457
 1213ERGO    R115414   7.708   8.921   6.369 -0.3271 -0.2198 -0.1085
 1213ERGO    R215415   7.768   9.177   6.457  0.0531 -0.4539  0.3568
 1213ERGO    R315416   7.503   9.185   6.512 -0.0321 -0.0139 -0.0540
 1213ERGO    R415417   7.618   9.397   6.677  0.1210 -0.3796  0.3298
 1213ERGO    R515418   7.491   9.235   6.745 -0.2990 -0.2191 -0.0183
 1213ERGO    C115419   7.280   9.533   6.856  0.0806  0.0767 -0.0717
 1213ERGO    C215420   7.199   9.772   6.941 -0.1380  0.3456 -0.4022
 1214ERGO   ROH15421   9.790   6.217   6.402 -0.1514  0.0040  0.1123
 1214ERGO    R115422   9.764   6.350   6.651 -0.1643  0.0181  0.1044
 1214ERGO    R215423   9.573   6.280   6.838 -0.1865  0.0372  0.0959
 1214ERGO    R315424   9.789   6.261   7.003 -0.1981  0.0310  0.1086
 1214ERGO    R415425   9.557   6.240   7.181 -0.1997  0.0319  0.0939
 1214ERGO    R515426   9.724   6.379   7.200 -0.2024  0.0254  0.1060
 1214ERGO    C115427   9.750   6.198   7.535 -0.2181  0.0230  0.1047
 1214ERGO    C215428   9.630   6.224   7.789  0.0304  0.3302 -0.0181
 1215ERGO   ROH15429   6.783   2.080   6.536  0.2677  0.1437 -0.0071
 1215ERGO    R115430   6.867   2.244   6.751  0.0403  0.1569  0.0753
 1215ERGO    R215431   6.708   2.444   6.857 -0.1956 -0.0345  0.1005
 1215ERGO    R315432   6.754   2.313   7.090 -0.1328 -0.0725  0.0662
 1215ERGO    R415433   6.630   2.564   7.171 -0.1315 -0.1006  0.1412
 1215ERGO    R515434   6.818   2.484   7.244 -0.1113 -0.0987  0.0832
 1215ERGO    C115435   6.628   2.510   7.573 -0.0353 -0.1747  0.1326
 1215ERGO    C215436   6.603   2.546   7.909  0.0165 -0.0700 -0.0085
 1216ERGO   ROH15437   8.123  15.221   5.730  0.0980 -0.1774  0.0274
 1216ERGO    R115438   8.012  15.100   5.961  0.1088 -0.1730  0.0348
 1216ERGO    R215439   8.135  14.891   6.093  0.1705 -0.0974  0.0982
 1216ERGO    R315440   8.110  15.054   6.308  0.0717 -0.0620  0.0605
 1216ERGO    R415441   8.179  14.792   6.421  0.1229 -0.0208  0.1278
 1216ERGO    R515442   8.009  14.916   6.476  0.0728 -0.0597  0.0636
 1216ERGO    C115443   8.182  14.889   6.815  0.0023  0.0570  0.1097
 1216ERGO    C215444   8.109  15.113   7.111  0.1080 -0.2489  0.1158
 1217ERGO   ROH15445  13.755  17.671   6.590  0.0095 -0.0884 -0.1043
 1217ERGO    R115446  13.731  17.750   6.860  0.0012 -0.0967 -0.1029
 1217ERGO    R215447  13.527  17.912   6.950  0.0752  0.0080 -0.1302
 1217ERGO    R315448  13.486  17.709   7.127 -0.0720  0.0179 -0.1508
 1217ERGO    R415449  13.385  17.948   7.264  0.3058  0.1284 -0.0374
 1217ERGO    R515450  13.532  17.807   7.341  0.1816 -0.0765 -0.1555
 1217ERGO    C115451  13.265  17.778   7.612  0.3021  0.2078 -0.0026
 1217ERGO    C215452  13.041  17.745   7.770 -0.1211 -0.1582 -0.0184
 1218ERGO   ROH15453  17.959  17.769   6.486 -0.0557 -0.0990 -0.2088
 1218ERGO    R115454  18.002  17.829   6.759 -0.0384  0.0258 -0.2385
 1218ERGO    R215455  17.836  17.737   6.959 -0.0076  0.0899 -0.1821
 1218ERGO    R315456  18.069  17.642   7.064  0.0157  0.1669 -0.1631
 1218ERGO    R415457  17.865  17.579   7.265  0.0590  0.2914 -0.0821
 1218ERGO    R515458  18.051  17.687   7.298  0.0603  0.3202 -0.1892
 1218ERGO    C115459  18.100  17.397   7.541  0.1195  0.4811 -0.0061
 1218ERGO    C215460  18.264  17.175   7.710 -0.2024 -0.4171  0.0594
 1219ERGO   ROH15461  16.323   4.848   6.894  0.1684 -0.2718 -0.1180
 1219ERGO    R115462  16.595   4.794   6.947  0.2011 -0.1687 -0.1818
 1219ERGO    R215463  16.800   4.896   6.792  0.1301  0.0267 -0.1416
 1219ERGO    R315464  16.892   4.988   7.031  0.1170 -0.0736 -0.0966
 1219ERGO    R415465  17.125   4.861   6.907  0.1019 -0.1161 -0.1007
 1219ERGO    R515466  17.045   4.820   7.105  0.0509 -0.1512 -0.1226
 1219ERGO    C115467  17.399   4.927   7.198  0.0729 -0.2933 -0.0346
 1219ERGO    C215468  17.643   5.026   7.435 -0.0223 -0.0843 -0.1604
 1220ERGO   ROH15469   6.761   1.636   6.497 -0.2696  0.2079 -0.1201
 1220ERGO    R115470   6.672   1.655   6.765 -0.3173  0.2263 -0.1355
 1220ERGO    R215471   6.846   1.654   6.980 -0.3703 -0.2179 -0.0744
 1220ERGO    R315472   6.717   1.885   7.044  0.0385 -0.0018 -0.0007
 1220ERGO    R415473   6.781   1.761   7.302 -0.1129 -0.1457 -0.0450
 1220ERGO    R515474   6.584   1.828   7.235 -0.0144  0.2027  0.0186
 1220ERGO    C115475   6.622   2.040   7.549  0.4208  0.0991  0.0414
 1220ERGO    C215476   6.785   2.028   7.864  0.2278 -0.0265  0.0726
 1221ERGO   ROH15477   6.737   3.663   6.463  0.0824 -0.1127  0.0769
 1221ERGO    R115478   6.586   3.750   6.686 -0.0176 -0.0651 -0.0087
 1221ERGO    R215479   6.358   3.619   6.772  0.0761 -0.1835  0.0541
 1221ERGO    R315480   6.490   3.612   7.009  0.0466  0.0990  0.0826
 1221ERGO    R415481   6.231   3.488   7.065  0.2042 -0.2572  0.0778
 1221ERGO    R515482   6.321   3.654   7.173 -0.0520 -0.0795  0.0331
 1221ERGO    C115483   6.281   3.405   7.459  0.2510 -0.0350  0.1185
 1221ERGO    C215484   6.183   3.341   7.682  0.0085  0.0339 -0.3214
 1222ERGO   ROH15485  16.193   7.738   6.519 -0.0664 -0.0519 -0.0255
 1222ERGO    R115486  16.284   7.630   6.764 -0.1854 -0.1537 -0.0267
 1222ERGO    R215487  16.396   7.785   6.963 -0.0704 -0.2713 -0.0050
 1222ERGO    R315488  16.203   7.671   7.117 -0.1836 -0.1177 -0.0289
 1222ERGO    R415489  16.361   7.833   7.304 -0.0437 -0.2661 -0.0023
 1222ERGO    R515490  16.314   7.621   7.323 -0.2329 -0.2336 -0.0249
 1222ERGO    C115491  16.159   7.753   7.646 -0.1345 -0.1188 -0.0232
 1222ERGO    C215492  16.162   7.915   7.892  0.0710 -0.1174 -0.1118
 1223ERGO   ROH15493   9.804   5.395   6.471 -0.0472  0.0739 -0.0877
 1223ERGO    R115494   9.741   5.355   6.743 -0.1399 -0.0129 -0.1222
 1223ERGO    R215495   9.534   5.191   6.825  0.0906 -0.3661 -0.2353
 1223ERGO    R315496   9.730   5.073   6.973  0.2122 -0.0206 -0.1069
 1223ERGO    R415497   9.547   5.189   7.171 -0.2219 -0.4563 -0.2208
 1223ERGO    R515498   9.762   5.221   7.158 -0.2606 -0.0054 -0.0189
 1223ERGO    C115499   9.737   5.078   7.511 -0.2898 -0.1844 -0.0917
 1223ERGO    C215500   9.752   5.175   7.812 -0.3868  0.1026 -0.2227
 1224ERGO   ROH15501   6.542   6.361   6.569 -0.1330  0.1332 -0.2055
 1224ERGO    R115502   6.514   6.279   6.838  0.0677  0.2931 -0.1331
 1224ERGO    R215503   6.544   6.453   7.051 -0.1355  0.5062 -0.2704
 1224ERGO    R315504   6.297   6.360   7.119  0.0175  0.1795 -0.1398
 1224ERGO    R415505   6.368   6.549   7.333 -0.2524  0.5141 -0.3456
 1224ERGO    R515506   6.305   6.342   7.358  0.0827  0.4364 -0.1219
 1224ERGO    C115507   6.034   6.518   7.561 -0.1768  0.2121 -0.2666
 1224ERGO    C215508   5.777   6.746   7.863 -0.3254  0.0060  0.0916
 1225ERGO   ROH15509   1.002  16.049   6.945  0.1444 -0.0228 -0.1223
 1225ERGO    R115510   0.964  16.087   7.223  0.1967 -0.0221 -0.1154
 1225ERGO    R215511   0.713  16.112   7.336  0.2252  0.1352 -0.0893
 1225ERGO    R315512   0.798  15.908   7.493  0.1033  0.0634 -0.1147
 1225ERGO    R415513   0.647  16.083   7.674  0.1074  0.0735 -0.1168
 1225ERGO    R515514   0.852  16.012   7.702  0.0754 -0.0072 -0.0706
 1225ERGO    C115515   0.689  15.873   8.018 -0.0756 -0.0297 -0.1567
 1225ERGO    C215516   0.456  15.882   8.288  0.1038  0.4210  0.3082
 1226ERGO   ROH15517  13.075   4.560   6.729  0.0636  0.0064  0.1057
 1226ERGO    R115518  12.983   4.538   6.996 -0.1107  0.0343  0.0495
 1226ERGO    R215519  12.738   4.427   7.060 -0.0199 -0.2578 -0.0750
 1226ERGO    R315520  12.889   4.270   7.222  0.0765  0.0315  0.1229
 1226ERGO    R415521  12.627   4.280   7.353  0.0044 -0.1699 -0.0219
 1226ERGO    R515522  12.819   4.328   7.444 -0.0982  0.1142  0.0431
 1226ERGO    C115523  12.704   4.047   7.675  0.1090  0.1527  0.1948
 1226ERGO    C215524  12.563   3.938   7.902 -0.0921  0.0774 -0.1572
 1227ERGO   ROH15525   9.631  13.626   6.127  0.0785  0.1945 -0.0277
 1227ERGO    R115526   9.695  13.754   6.371 -0.0366  0.1314  0.0371
 1227ERGO    R215527   9.503  13.825   6.557 -0.1090 -0.0722  0.0455
 1227ERGO    R315528   9.660  13.681   6.726 -0.0372 -0.0462  0.0006
 1227ERGO    R415529   9.432  13.762   6.890  0.0102 -0.0662  0.0722
 1227ERGO    R515530   9.642  13.793   6.936  0.0204 -0.0405  0.0009
 1227ERGO    C115531   9.538  13.590   7.241  0.1470 -0.0383  0.0455
 1227ERGO    C215532   9.611  13.431   7.478  0.0539 -0.3398 -0.0723
 1228ERGO   ROH15533  14.848   8.506   6.983  0.0067 -0.1022  0.0993
 1228ERGO    R115534  14.873   8.632   7.236 -0.0984 -0.1137  0.1148
 1228ERGO    R215535  14.737   8.543   7.460  0.1246 -0.3770  0.1454
 1228ERGO    R315536  14.987   8.537   7.568  0.1790 -0.0023  0.0550
 1228ERGO    R415537  14.811   8.600   7.793  0.1273 -0.4676  0.1614
 1228ERGO    R515538  14.986   8.712   7.730 -0.0875 -0.1045  0.1740
 1228ERGO    C115539  15.088   8.628   8.088  0.1801 -0.1686  0.0857
 1228ERGO    C215540  15.327   8.655   8.324 -0.1233 -0.0279  0.0556
 1229ERGO   ROH15541   8.018   1.306   6.420 -0.0670 -0.1128  0.1128
 1229ERGO    R115542   8.110   1.164   6.646 -0.1703 -0.0973  0.1651
 1229ERGO    R215543   8.341   1.233   6.782 -0.0514 -0.2912  0.0613
 1229ERGO    R315544   8.175   1.238   6.997  0.0135  0.0202  0.1089
 1229ERGO    R415545   8.442   1.211   7.112  0.0233 -0.3185  0.0365
 1229ERGO    R515546   8.271   1.083   7.151 -0.1544 -0.0679  0.1323
 1229ERGO    C115547   8.345   1.203   7.505  0.1277 -0.0421  0.0667
 1229ERGO    C215548   8.384   1.017   7.883 -0.3110  0.0883  0.1334
 1230ERGO   ROH15549  14.829   5.734   6.962 -0.0251  0.1342 -0.1270
 1230ERGO    R115550  14.814   5.710   7.244  0.0237  0.1629 -0.1232
 1230ERGO    R215551  14.842   5.469   7.375 -0.0648  0.1643 -0.1158
 1230ERGO    R315552  15.034   5.603   7.513  0.0278  0.0784 -0.1569
 1230ERGO    R415553  14.883   5.458   7.718  0.1380 -0.0452 -0.1433
 1230ERGO    R515554  14.925   5.672   7.715  0.1447 -0.0359 -0.0459
 1230ERGO    C115555  15.088   5.577   8.047  0.3431 -0.2478 -0.1980
 1230ERGO    C215556  14.942   5.477   8.310 -0.0233 -0.2417 -0.0648
 1231ERGO   ROH15557  11.099   0.176   6.405  0.2197 -0.0845  0.1384
 1231ERGO    R115558  11.008   0.202   6.672  0.1936  0.1939  0.1060
 1231ERGO    R215559  10.981  -0.015   6.842 -0.2709  0.3014  0.1864
 1231ERGO    R315560  11.140   0.134   7.004 -0.0216  0.0621  0.1659
 1231ERGO    R415561  11.062  -0.095   7.168 -0.3981  0.2123  0.1965
 1231ERGO    R515562  11.041   0.115   7.220 -0.0513  0.2569  0.1685
 1231ERGO    C115563  11.259  -0.002   7.510 -0.2380 -0.0643  0.1830
 1231ERGO    C215564  11.571   0.178   7.725 -0.0174 -0.0785 -0.0127
 1232ERGO   ROH15565   0.383  10.551   6.563 -0.1253  0.0212 -0.0401
 1232ERGO    R115566   0.557  10.458   6.766 -0.1052 -0.0962 -0.1114
 1232ERGO    R215567   0.713  10.629   6.917 -0.0070 -0.1961 -0.1097
 1232ERGO    R315568   0.591  10.504   7.126  0.0094 -0.2082 -0.1058
 1232ERGO    R415569   0.840  10.611   7.238 -0.0479 -0.0675 -0.0849
 1232ERGO    R515570   0.771  10.404   7.249  0.0401 -0.1027 -0.0549
 1232ERGO    C115571   0.800  10.484   7.621 -0.0564 -0.0038 -0.0668
 1232ERGO    C215572   0.824  10.486   7.894  0.1846 -0.1442 -0.0693
 1233ERGO   ROH15573  13.323   5.216   6.422 -0.0661  0.0456  0.1133
 1233ERGO    R115574  13.179   5.319   6.643 -0.2137  0.0386  0.0199
 1233ERGO    R215575  12.911   5.264   6.684 -0.1089 -0.3953  0.1204
 1233ERGO    R315576  12.998   5.183   6.928  0.0746  0.0360  0.2091
 1233ERGO    R415577  12.749   5.329   6.982 -0.3387 -0.5220  0.0251
 1233ERGO    R515578  12.944   5.366   7.074 -0.4174  0.0573  0.0321
 1233ERGO    C115579  12.736   5.290   7.385 -0.3002 -0.1909  0.0528
 1233ERGO    C215580  12.480   5.299   7.567 -0.0745 -0.1551 -0.0020
 1234ERGO   ROH15581  12.174  15.226   6.418 -0.0905  0.2299  0.2537
 1234ERGO    R115582  12.053  15.139   6.659  0.0743  0.0697  0.2804
 1234ERGO    R215583  11.814  15.000   6.664  0.0249  0.1560  0.3561
 1234ERGO    R315584  11.959  14.819   6.806  0.0772 -0.0233  0.0845
 1234ERGO    R415585  11.682  14.773   6.889  0.1417  0.1424  0.4115
 1234ERGO    R515586  11.852  14.812   7.020  0.3399 -0.0476  0.2203
 1234ERGO    C115587  11.741  14.472   7.154  0.2588 -0.0339  0.1888
 1234ERGO    C215588  11.901  14.157   7.242 -0.0405  0.0276  0.0887
 1235ERGO   ROH15589   9.909  14.084   6.087 -0.0904 -0.0999  0.0657
 1235ERGO    R115590  10.000  14.138   6.350 -0.1171  0.0451  0.0448
 1235ERGO    R215591   9.862  14.302   6.524 -0.3340 -0.1599  0.0651
 1235ERGO    R315592   9.876  14.086   6.688  0.0305 -0.1377  0.0732
 1235ERGO    R415593   9.783  14.304   6.860 -0.4868 -0.3100  0.0324
 1235ERGO    R515594   9.954  14.175   6.896 -0.2328  0.0291  0.1077
 1235ERGO    C115595   9.749  14.102   7.210 -0.2335 -0.3766  0.0209
 1235ERGO    C215596   9.471  14.037   7.318  0.0623 -0.1263  0.2298
 1236ERGO   ROH15597   5.269   5.819   5.736 -0.3817 -0.2971  0.0385
 1236ERGO    R115598   5.260   6.003   5.950 -0.0823 -0.2590  0.0243
 1236ERGO    R215599   5.030   6.138   6.021  0.1018  0.0471  0.0792
 1236ERGO    R315600   5.082   6.032   6.266  0.0425 -0.0022  0.0739
 1236ERGO    R415601   4.917   6.268   6.321  0.2399  0.1299  0.0946
 1236ERGO    R515602   5.111   6.222   6.408  0.2131 -0.0295  0.0750
 1236ERGO    C115603   4.901   6.244   6.726  0.2647  0.1317  0.0988
 1236ERGO    C215604   4.825   6.172   7.105  0.1017  0.0169 -0.1727
 1237ERGO   ROH15605   0.193  13.253   6.748  0.2362 -0.1408 -0.1886
 1237ERGO    R115606   0.255  13.237   7.024  0.0948 -0.1765 -0.1587
 1237ERGO    R215607   0.193  13.438   7.203  0.1595 -0.1235 -0.1987
 1237ERGO    R315608   0.070  13.236   7.337 -0.0537 -0.0277 -0.2440
 1237ERGO    R415609   0.045  13.469   7.514  0.3204 -0.0695 -0.1260
 1237ERGO    R515610   0.127  13.274   7.567  0.0885 -0.2055 -0.2467
 1237ERGO    C115611  -0.156  13.298   7.821  0.2140  0.0519 -0.1261
 1237ERGO    C215612  -0.187  13.041   8.045  0.2352 -0.0371 -0.1221
 1238ERGO   ROH15613   7.326  11.343   6.005 -0.0692  0.1373 -0.0171
 1238ERGO    R115614   7.305  11.540   6.206 -0.3240  0.0614  0.0349
 1238ERGO    R215615   7.086  11.558   6.374 -0.2946 -0.3491  0.1339
 1238ERGO    R315616   7.275  11.546   6.569 -0.1843 -0.0733  0.0484
 1238ERGO    R415617   7.026  11.602   6.712 -0.2043 -0.4547  0.1635
 1238ERGO    R515618   7.211  11.715   6.726 -0.3670 -0.1757  0.0835
 1238ERGO    C115619   7.168  11.615   7.091 -0.0481 -0.2574  0.1005
 1238ERGO    C215620   7.099  11.656   7.450 -0.4657 -0.0015  0.1973
 1239ERGO   ROH15621   2.455   4.030   6.342  0.0955 -0.1605  0.0472
 1239ERGO    R115622   2.312   4.089   6.579 -0.0613 -0.1968 -0.0368
 1239ERGO    R215623   2.119   3.920   6.682  0.1491 -0.4090  0.0241
 1239ERGO    R315624   2.270   3.936   6.907  0.0649 -0.0281  0.0594
 1239ERGO    R415625   1.994   3.920   7.004  0.0469 -0.1552 -0.0139
 1239ERGO    R515626   2.141   4.072   7.056 -0.0995  0.0301 -0.1334
 1239ERGO    C115627   2.063   3.935   7.403 -0.0917  0.3501 -0.0028
 1239ERGO    C215628   1.931   3.977   7.792  0.0457 -0.0241 -0.1404
 1240ERGO   ROH15629   7.425  11.129   6.414  0.0119 -0.1209  0.0511
 1240ERGO    R115630   7.501  11.113   6.686 -0.0236  0.0184  0.0708
 1240ERGO    R215631   7.390  11.275   6.881 -0.1779  0.0014  0.0055
 1240ERGO    R315632   7.337  11.038   7.002 -0.0270 -0.0033  0.0625
 1240ERGO    R415633   7.391  11.223   7.223 -0.0947  0.0642  0.0144
 1240ERGO    R515634   7.488  11.031   7.188  0.0039  0.1136  0.0386
 1240ERGO    C115635   7.342  10.970   7.535  0.0956  0.0964  0.0730
 1240ERGO    C215636   7.002  11.044   7.707 -0.1880  0.0967 -0.2537
 1241ERGO   ROH15637   8.283  17.038   6.274  0.1386 -0.0249  0.0069
 1241ERGO    R115638   8.287  16.985   6.552  0.0969 -0.0991 -0.0064
 1241ERGO    R215639   8.512  16.895   6.684  0.1481  0.0988  0.0456
 1241ERGO    R315640   8.466  17.111   6.843 -0.1325  0.0093  0.0906
 1241ERGO    R415641   8.603  16.919   7.016  0.2355  0.1978  0.0150
 1241ERGO    R515642   8.413  17.017   7.057  0.0924 -0.1043  0.0984
 1241ERGO    C115643   8.613  17.135   7.359  0.0229  0.1712  0.0395
 1241ERGO    C215644   8.640  17.218   7.755  0.3145  0.2015 -0.3664
 1242ERGO   ROH15645   8.363  11.594   6.140  0.0867 -0.3807  0.0606
 1242ERGO    R115646   8.282  11.745   6.365 -0.0134 -0.3465  0.0015
 1242ERGO    R215647   8.200  11.627   6.601  0.1161 -0.3085  0.0618
 1242ERGO    R315648   8.392  11.786   6.710 -0.0069 -0.0941 -0.0271
 1242ERGO    R415649   8.244  11.679   6.940  0.0936 -0.1226  0.0371
 1242ERGO    R515650   8.284  11.889   6.897 -0.0869 -0.1007 -0.0637
 1242ERGO    C115651   8.450  11.859   7.239 -0.0350  0.1868 -0.0608
 1242ERGO    C215652   8.714  11.687   7.443  0.3399  0.1293  0.0766
 1243ERGO   ROH15653   4.403   0.173   5.947  0.0142  0.0120  0.0725
 1243ERGO    R115654   4.323   0.063   6.195  0.0255  0.0184  0.0785
 1243ERGO    R215655   4.450  -0.155   6.309  0.0749  0.0699  0.1179
 1243ERGO    R315656   4.475   0.011   6.522  0.0085  0.0972  0.0979
 1243ERGO    R415657   4.589  -0.244   6.612 -0.1668  0.0571  0.2272
 1243ERGO    R515658   4.432  -0.129   6.712 -0.1818  0.1495  0.0979
 1243ERGO    C115659   4.694  -0.139   6.990 -0.3699  0.0753  0.2722
 1243ERGO    C215660   4.842  -0.240   7.346  0.1253 -0.2124  0.3713
 1244ERGO   ROH15661  14.608   9.431   6.575 -0.1596 -0.0338 -0.0377
 1244ERGO    R115662  14.400   9.510   6.750 -0.1231 -0.0427  0.0099
 1244ERGO    R215663  14.283   9.337   6.931 -0.0684 -0.0446  0.0413
 1244ERGO    R315664  14.350   9.531   7.110 -0.0398 -0.0361  0.0219
 1244ERGO    R415665  14.218   9.323   7.270 -0.0471 -0.0180  0.0466
 1244ERGO    R515666  14.166   9.535   7.264 -0.0311 -0.0120  0.0343
 1244ERGO    C115667  14.242   9.496   7.636 -0.0078  0.0055  0.0315
 1244ERGO    C215668  14.330   9.481   7.985 -0.0621 -0.0851 -0.0168
 1245ERGO   ROH15669  16.986   2.880   6.630  0.0579  0.1260  0.0256
 1245ERGO    R115670  16.974   2.991   6.890  0.0503  0.0205  0.0704
 1245ERGO    R215671  16.892   2.845   7.110  0.1332 -0.0959  0.0246
 1245ERGO    R315672  17.131   2.926   7.212  0.1163 -0.0463  0.0254
 1245ERGO    R415673  17.000   2.785   7.433  0.1568 -0.1039  0.0153
 1245ERGO    R515674  17.082   2.987   7.438  0.1064 -0.0826  0.0340
 1245ERGO    C115675  17.287   2.825   7.716  0.1545 -0.0619  0.0107
 1245ERGO    C215676  17.261   2.762   8.070 -0.1048 -0.2484 -0.0580
 1246ERGO   ROH15677  10.140   4.922   6.535  0.1465 -0.1525  0.0172
 1246ERGO    R115678  10.233   4.898   6.801  0.0756 -0.1349  0.0432
 1246ERGO    R215679  10.157   5.072   7.002  0.1446 -0.0290 -0.0248
 1246ERGO    R315680  10.084   4.842   7.129 -0.0272  0.0536  0.0306
 1246ERGO    R415681  10.142   5.032   7.345  0.2453  0.0297 -0.0129
 1246ERGO    R515682  10.227   4.833   7.321  0.0448 -0.0599 -0.0253
 1246ERGO    C115683  10.065   4.794   7.664  0.1427  0.1413  0.0460
 1246ERGO    C215684   9.952   4.714   7.940 -0.1987  0.0709  0.2060
 1247ERGO   ROH15685  11.776  10.507   6.733  0.3192  0.0137 -0.0777
 1247ERGO    R115686  11.639  10.522   6.980  0.2019 -0.0419 -0.1390
 1247ERGO    R215687  11.750  10.434   7.217  0.1399  0.0242 -0.0869
 1247ERGO    R315688  11.690  10.686   7.301 -0.0218 -0.0015 -0.1222
 1247ERGO    R415689  11.693  10.524   7.546  0.0769  0.0316 -0.0993
 1247ERGO    R515690  11.531  10.653   7.477 -0.0052 -0.0797 -0.1203
 1247ERGO    C115691  11.603  10.813   7.816 -0.1115  0.0119 -0.1397
 1247ERGO    C215692  11.530  10.997   8.150 -0.0980  0.2942  0.1559
 1248ERGO   ROH15693  15.231   8.854   6.699 -0.1678  0.1416 -0.1079
 1248ERGO    R115694  15.135   8.879   6.964 -0.0982  0.2253 -0.0902
 1248ERGO    R215695  15.296   8.836   7.184 -0.1049  0.0385 -0.1180
 1248ERGO    R315696  15.212   9.085   7.254  0.1709  0.1264 -0.0895
 1248ERGO    R415697  15.271   8.952   7.509 -0.0889 -0.0029 -0.1017
 1248ERGO    R515698  15.084   9.051   7.454  0.0527  0.2370 -0.1481
 1248ERGO    C115699  15.178   9.253   7.764  0.1793  0.0555 -0.0654
 1248ERGO    C215700  15.252   9.513   8.098  0.2206  0.2063  0.0422
 1249ERGO   ROH15701  11.139   5.391   6.626  0.0309 -0.2261 -0.0329
 1249ERGO    R115702  11.050   5.417   6.894  0.0662 -0.2652 -0.0176
 1249ERGO    R215703  11.213   5.365   7.111  0.2060  0.0491 -0.0443
 1249ERGO    R315704  11.140   5.617   7.184 -0.1448 -0.0283 -0.1110
 1249ERGO    R415705  11.169   5.470   7.437  0.2037  0.1115 -0.0643
 1249ERGO    R515706  10.995   5.583   7.372 -0.0063 -0.1794 -0.0272
 1249ERGO    C115707  11.075   5.767   7.696 -0.1269  0.0753 -0.1385
 1249ERGO    C215708  11.045   5.784   7.995 -0.1688 -0.1750  0.3820
 1250ERGO   ROH15709   4.516   4.681   6.283  0.0797 -0.0930 -0.0085
 1250ERGO    R115710   4.415   4.854   6.483 -0.0484 -0.0538 -0.1054
 1250ERGO    R215711   4.224   4.774   6.666 -0.1115 -0.0403 -0.1657
 1250ERGO    R315712   4.407   4.861   6.847 -0.2115  0.0566 -0.1098
 1250ERGO    R415713   4.179   4.772   7.009 -0.1619 -0.2002 -0.1724
 1250ERGO    R515714   4.277   4.967   7.018 -0.3312 -0.1156 -0.0903
 1250ERGO    C115715   4.325   4.853   7.378 -0.2852 -0.2024 -0.1238
 1250ERGO    C215716   4.162   4.791   7.657  0.1351 -0.2056 -0.0000
 1251ERGO   ROH15717  14.478  11.102   6.798  0.0347  0.2473 -0.0069
 1251ERGO    R115718  14.419  11.018   7.061  0.0391 -0.0058 -0.0832
 1251ERGO    R215719  14.603  10.888   7.221  0.1187  0.0391 -0.1297
 1251ERGO    R315720  14.544  11.088   7.396 -0.1119 -0.1390  0.0011
 1251ERGO    R415721  14.691  10.891   7.555  0.1306 -0.0577 -0.1324
 1251ERGO    R515722  14.495  10.975   7.601  0.0341 -0.3219 -0.0668
 1251ERGO    C115723  14.688  11.080   7.914 -0.0790 -0.2813 -0.0112
 1251ERGO    C215724  14.640  11.250   8.163 -0.1284 -0.1681 -0.1336
 1252ERGO   ROH15725  16.542  12.070   6.712 -0.0310  0.0320 -0.1466
 1252ERGO    R115726  16.518  12.141   6.985  0.0536  0.0688 -0.1474
 1252ERGO    R215727  16.412  11.970   7.174 -0.1042  0.1755 -0.1289
 1252ERGO    R315728  16.647  12.018   7.302 -0.0445 -0.0461 -0.1533
 1252ERGO    R415729  16.446  12.026   7.514 -0.0310  0.3346 -0.1621
 1252ERGO    R515730  16.593  12.180   7.469  0.1631  0.1207 -0.2492
 1252ERGO    C115731  16.686  12.104   7.831  0.0678  0.2191 -0.2044
 1252ERGO    C215732  16.601  12.030   8.126 -0.0410  0.0903  0.2391
 1253ERGO   ROH15733  13.831   3.514   6.677  0.1066 -0.2065  0.1875
 1253ERGO    R115734  14.008   3.519   6.898  0.0379 -0.1858  0.2418
 1253ERGO    R215735  13.947   3.650   7.134 -0.0327 -0.1594  0.2069
 1253ERGO    R315736  14.001   3.408   7.245 -0.0707 -0.1473  0.2533
 1253ERGO    R415737  14.132   3.602   7.422 -0.1730 -0.1188  0.3052
 1253ERGO    R515738  14.225   3.429   7.327 -0.1112 -0.1216  0.3641
 1253ERGO    C115739  14.291   3.346   7.694 -0.2904 -0.0838  0.4059
 1253ERGO    C215740  14.316   3.305   8.046 -0.1377 -0.0237 -0.1572
 1254ERGO   ROH15741  14.269   4.933   6.782 -0.2747  0.1869 -0.1921
 1254ERGO    R115742  14.151   5.118   6.961  0.0144  0.2221 -0.0336
 1254ERGO    R215743  13.940   5.051   7.126 -0.0366  0.3883 -0.0417
 1254ERGO    R315744  14.105   5.146   7.321  0.1311  0.0320 -0.0005
 1254ERGO    R415745  13.865   5.054   7.464 -0.0528  0.3934 -0.0440
 1254ERGO    R515746  13.957   5.252   7.477  0.2997  0.2398  0.0308
 1254ERGO    C115747  13.976   5.145   7.843  0.0952  0.0620 -0.0067
 1254ERGO    C215748  13.764   5.027   8.101 -0.0486  0.4104 -0.0419
 1255ERGO   ROH15749  17.736   8.523   6.239  0.0228 -0.1129 -0.0872
 1255ERGO    R115750  17.593   8.572   6.478 -0.0237 -0.0854 -0.1215
 1255ERGO    R215751  17.596   8.398   6.693  0.0506  0.0194 -0.0381
 1255ERGO    R315752  17.674   8.620   6.829 -0.0868  0.1160 -0.1363
 1255ERGO    R415753  17.655   8.411   7.033  0.0182  0.2131 -0.0385
 1255ERGO    R515754  17.558   8.605   7.038 -0.0861  0.1508 -0.1395
 1255ERGO    C115755  17.761   8.626   7.360 -0.1297  0.4167 -0.1309
 1255ERGO    C215756  17.928   8.499   7.735 -0.3123 -0.0719 -0.0495
 1256ERGO   ROH15757   7.689   2.898   6.593  0.0066 -0.1033  0.0190
 1256ERGO    R115758   7.762   2.842   6.861  0.0407 -0.0883  0.0129
 1256ERGO    R215759   7.774   3.037   7.056  0.0531 -0.0794  0.0033
 1256ERGO    R315760   7.606   2.870   7.188  0.0773 -0.0829  0.0299
 1256ERGO    R415761   7.709   3.049   7.395 -0.0668  0.0639 -0.0237
 1256ERGO    R515762   7.713   2.832   7.399  0.0222  0.0665  0.0862
 1256ERGO    C115763   7.513   2.899   7.717 -0.1138  0.1441 -0.0143
 1256ERGO    C215764   7.331   2.805   8.052 -0.0670 -0.1007  0.1988
 1257ERGO   ROH15765  10.102  16.728   6.217 -0.1184 -0.0319 -0.0261
 1257ERGO    R115766   9.964  16.628   6.443 -0.0274 -0.0844  0.0069
 1257ERGO    R215767  10.073  16.439   6.613  0.0923 -0.0303 -0.0077
 1257ERGO    R315768  10.015  16.624   6.804  0.0504 -0.0475 -0.0037
 1257ERGO    R415769  10.113  16.391   6.953  0.2347  0.0224 -0.0161
 1257ERGO    R515770   9.924  16.496   6.985  0.1852 -0.0840  0.0386
 1257ERGO    C115771  10.081  16.537   7.330  0.2784  0.0368 -0.0172
 1257ERGO    C215772   9.902  16.562   7.635  0.3921  0.2010  0.0176
 1258ERGO   ROH15773  11.112   7.886   6.713  0.1906  0.1965  0.0161
 1258ERGO    R115774  11.054   7.954   6.981  0.0919  0.1718  0.0017
 1258ERGO    R215775  11.176   7.831   7.196  0.0598  0.1957  0.0345
 1258ERGO    R315776  11.238   8.086   7.266 -0.0276  0.2094  0.0620
 1258ERGO    R415777  11.258   7.933   7.516  0.2081  0.1527  0.0106
 1258ERGO    R515778  11.140   8.113   7.483  0.0939  0.1011  0.1318
 1258ERGO    C115779  11.364   8.232   7.768  0.2124  0.1405  0.0224
 1258ERGO    C215780  11.333   8.388   8.083 -0.0579  0.2953 -0.0237
 1259ERGO   ROH15781  15.453   0.885   6.612 -0.0696  0.1891  0.0039
 1259ERGO    R115782  15.477   0.764   6.867 -0.0942  0.0252 -0.0712
 1259ERGO    R215783  15.566   0.902   7.089 -0.2065 -0.0926  0.0450
 1259ERGO    R315784  15.334   0.813   7.197 -0.2023 -0.2541 -0.0741
 1259ERGO    R415785  15.476   0.938   7.421 -0.4804  0.0127 -0.0373
 1259ERGO    R515786  15.395   0.736   7.416 -0.2833 -0.0715  0.0168
 1259ERGO    C115787  15.205   0.875   7.715 -0.6359 -0.0777 -0.1971
 1259ERGO    C215788  15.323   1.001   8.028 -0.1146 -0.1043  0.2680
 1260ERGO   ROH15789   5.351   7.542   5.984 -0.0940  0.0170 -0.0243
 1260ERGO    R115790   5.519   7.567   6.210  0.0033 -0.0667 -0.0858
 1260ERGO    R215791   5.463   7.738   6.420  0.1919 -0.0037 -0.0821
 1260ERGO    R315792   5.490   7.512   6.569  0.0941 -0.0031 -0.0691
 1260ERGO    R415793   5.535   7.731   6.758  0.3762 -0.0124 -0.1215
 1260ERGO    R515794   5.667   7.562   6.722  0.2197 -0.1230 -0.1747
 1260ERGO    C115795   5.601   7.515   7.095  0.3917 -0.0170 -0.1323
 1260ERGO    C215796   5.526   7.347   7.364 -0.0503  0.0239  0.1571
 1261ERGO   ROH15797  11.872   5.372   6.585 -0.1022 -0.3023 -0.0981
 1261ERGO    R115798  11.870   5.491   6.842 -0.0224 -0.1984 -0.1449
 1261ERGO    R215799  11.659   5.644   6.934  0.0059 -0.1610 -0.1411
 1261ERGO    R315800  11.665   5.469   7.141  0.0699 -0.0778 -0.0722
 1261ERGO    R415801  11.584   5.723   7.262 -0.1707 -0.0950 -0.1962
 1261ERGO    R515802  11.750   5.597   7.325 -0.0941  0.0579 -0.0897
 1261ERGO    C115803  11.546   5.605   7.648 -0.2136  0.0217 -0.1636
 1261ERGO    C215804  11.588   5.694   8.034  0.0148  0.2853  0.3553
 1262ERGO   ROH15805  14.745   4.916   6.453 -0.4361 -0.0580 -0.0356
 1262ERGO    R115806  14.659   4.791   6.692 -0.2023  0.0656  0.1179
 1262ERGO    R215807  14.766   4.553   6.783 -0.1841  0.0597  0.0799
 1262ERGO    R315808  14.808   4.696   7.010  0.1411  0.1313 -0.0193
 1262ERGO    R415809  14.879   4.421   7.082 -0.2306  0.0603  0.0978
 1262ERGO    R515810  14.738   4.550   7.186  0.0088  0.3318  0.0984
 1262ERGO    C115811  14.983   4.478   7.469  0.0475  0.1278  0.0150
 1262ERGO    C215812  15.201   4.531   7.686 -0.0377  0.0364 -0.1578
 1263ERGO   ROH15813   5.410   4.866   6.400  0.1023 -0.1193  0.0156
 1263ERGO    R115814   5.552   4.846   6.644  0.1444 -0.0760 -0.0054
 1263ERGO    R215815   5.451   4.942   6.883  0.2310  0.0617 -0.0235
 1263ERGO    R315816   5.499   4.689   6.968  0.1475  0.0759  0.0697
 1263ERGO    R415817   5.431   4.837   7.212  0.1687  0.1769  0.0109
 1263ERGO    R515818   5.610   4.716   7.178  0.1351  0.1130  0.0703
 1263ERGO    C115819   5.465   4.537   7.483  0.0540  0.2573  0.1185
 1263ERGO    C215820   5.391   4.462   7.756 -0.0207 -0.5218  0.1469
 1264ERGO   ROH15821   6.643   8.305   5.986 -0.0206 -0.1227 -0.1059
 1264ERGO    R115822   6.773   8.309   6.237  0.0170 -0.0401 -0.1268
 1264ERGO    R215823   6.737   8.512   6.420 -0.0213 -0.0235 -0.1553
 1264ERGO    R315824   6.672   8.307   6.587  0.0722 -0.0177 -0.1104
 1264ERGO    R415825   6.796   8.508   6.761 -0.0209  0.0786 -0.1534
 1264ERGO    R515826   6.853   8.299   6.743  0.0764  0.1002 -0.1071
 1264ERGO    C115827   6.770   8.314   7.115  0.0672  0.1437 -0.1102
 1264ERGO    C215828   6.602   8.232   7.458  0.2322 -0.0020  0.1397
 1265ERGO   ROH15829   0.630   0.503   6.540 -0.1770  0.1503 -0.0035
 1265ERGO    R115830   0.796   0.516   6.769 -0.1516  0.0812 -0.0181
 1265ERGO    R215831   0.712   0.628   7.007 -0.1019  0.0696  0.0033
 1265ERGO    R315832   0.788   0.387   7.109 -0.1478  0.0386 -0.0339
 1265ERGO    R415833   0.810   0.574   7.334 -0.0593  0.0114 -0.0184
 1265ERGO    R515834   0.966   0.441   7.261 -0.1067 -0.0232 -0.0590
 1265ERGO    C115835   0.938   0.317   7.621 -0.0776 -0.0516 -0.0658
 1265ERGO    C215836   0.873   0.204   7.988 -0.2292 -0.1013 -0.1199
 1266ERGO   ROH15837   1.397  11.286   6.285  0.3224  0.2094 -0.0579
 1266ERGO    R115838   1.616  11.174   6.426  0.1923  0.2980  0.2213
 1266ERGO    R215839   1.639  11.189   6.701 -0.3481 -0.0064  0.2981
 1266ERGO    R315840   1.664  10.919   6.682  0.0008  0.0401  0.0050
 1266ERGO    R415841   1.704  10.977   6.966 -0.2694 -0.2311  0.1022
 1266ERGO    R515842   1.838  10.865   6.836 -0.0369  0.0813  0.0611
 1266ERGO    C115843   1.766  10.601   7.102  0.1038 -0.3183 -0.2869
 1266ERGO    C215844   1.730  10.360   7.320 -0.2580  0.1074  0.0505
 1267ERGO   ROH15845   6.354  11.576   5.838  0.0283 -0.1058  0.1018
 1267ERGO    R115846   6.448  11.592   6.104 -0.0105 -0.0346  0.1121
 1267ERGO    R215847   6.304  11.714   6.306 -0.1156 -0.1219  0.0951
 1267ERGO    R315848   6.338  11.475   6.430  0.0294 -0.0983  0.1016
 1267ERGO    R415849   6.354  11.673   6.645  0.1570 -0.0755  0.0622
 1267ERGO    R515850   6.501  11.518   6.600  0.1509 -0.0487 -0.0303
 1267ERGO    C115851   6.415  11.425   6.960  0.4518 -0.0263  0.0492
 1267ERGO    C215852   6.327  11.362   7.227  0.0336 -0.1593 -0.1479
 1268ERGO   ROH15853   2.821   7.334   6.359 -0.3075 -0.3309 -0.1388
 1268ERGO    R115854   2.704   7.356   6.616 -0.0261 -0.1560 -0.0204
 1268ERGO    R215855   2.475   7.218   6.688 -0.1631  0.1712  0.2058
 1268ERGO    R315856   2.631   7.132   6.893 -0.0770 -0.0504  0.0510
 1268ERGO    R415857   2.357   7.087   6.985 -0.0410  0.1598  0.2501
 1268ERGO    R515858   2.512   7.198   7.090  0.1399 -0.0223  0.1725
 1268ERGO    C115859   2.435   6.931   7.351  0.1109 -0.0550  0.1304
 1268ERGO    C215860   2.295   6.742   7.627 -0.0209 -0.0335  0.0764
 1269ERGO   ROH15861  16.117  17.775   6.709 -0.0751  0.0286  0.0634
 1269ERGO    R115862  16.215  17.814   6.971 -0.0437  0.1131  0.0377
 1269ERGO    R215863  16.465  17.922   7.022 -0.0311  0.0994 -0.0308
 1269ERGO    R315864  16.322  18.097   7.174  0.0121  0.1739 -0.0719
 1269ERGO    R415865  16.586  18.092   7.298 -0.0911 -0.1778  0.1715
 1269ERGO    R515866  16.396  18.057   7.397 -0.2289 -0.0309 -0.0185
 1269ERGO    C115867  16.522  18.354   7.601 -0.0855 -0.2692  0.2506
 1269ERGO    C215868  16.395  18.652   7.697  0.0711 -0.0357 -0.0880
 1270ERGO   ROH15869   8.573   6.665   6.501  0.2856 -0.0305  0.1223
 1270ERGO    R115870   8.361   6.568   6.661  0.1637 -0.0238 -0.0345
 1270ERGO    R215871   8.365   6.318   6.777  0.1713  0.0652  0.1477
 1270ERGO    R315872   8.318   6.458   7.005 -0.1509  0.2016  0.0044
 1270ERGO    R415873   8.235   6.184   7.068  0.2624  0.1034  0.2070
 1270ERGO    R515874   8.115   6.365   7.092 -0.0462 -0.0560 -0.0057
 1270ERGO    C115875   8.115   6.238   7.452  0.0130  0.2536  0.1070
 1270ERGO    C215876   8.247   6.086   7.722  0.0234 -0.2547  0.0531
 1271ERGO   ROH15877  16.889   2.051   6.490  0.0685  0.2934  0.1196
 1271ERGO    R115878  16.861   1.937   6.747 -0.2008  0.3743  0.1292
 1271ERGO    R215879  17.078   1.874   6.906 -0.3362 -0.1756  0.1109
 1271ERGO    R315880  16.950   2.030   7.088  0.0732  0.1744  0.1161
 1271ERGO    R415881  17.067   1.811   7.245 -0.7265 -0.3311  0.0748
 1271ERGO    R515882  16.858   1.873   7.245 -0.5441  0.3772 -0.0134
 1271ERGO    C115883  16.940   1.921   7.614 -0.5696 -0.0929  0.0587
 1271ERGO    C215884  17.016   1.850   7.942  0.0334 -0.3774  0.0565
 1272ERGO   ROH15885  17.644   3.515   6.207  0.1095 -0.0559 -0.0200
 1272ERGO    R115886  17.790   3.475   6.446  0.1790  0.2190 -0.0128
 1272ERGO    R215887  17.818   3.672   6.638 -0.3688  0.2237  0.0805
 1272ERGO    R315888  17.719   3.480   6.803  0.0938 -0.1200 -0.0221
 1272ERGO    R415889  17.865   3.662   6.980 -0.3172  0.1309  0.0703
 1272ERGO    R515890  17.891   3.446   6.965  0.1948  0.1909 -0.0592
 1272ERGO    C115891  17.800   3.475   7.334  0.1469 -0.2458 -0.0319
 1272ERGO    C215892  17.949   3.585   7.605  0.1029 -0.3135  0.2412
 1273ERGO   ROH15893  12.381   6.268   6.645 -0.4806 -0.0191  0.0136
 1273ERGO    R115894  12.437   6.339   6.914 -0.2397  0.0858 -0.0612
 1273ERGO    R215895  12.239   6.394   7.098 -0.0805  0.0674  0.1223
 1273ERGO    R315896  12.366   6.203   7.243  0.1377  0.1595  0.0558
 1273ERGO    R415897  12.239   6.375   7.443 -0.1479 -0.1107  0.1130
 1273ERGO    R515898  12.449   6.319   7.435 -0.0681  0.1736  0.1380
 1273ERGO    C115899  12.359   6.184   7.780  0.0176 -0.1280  0.0451
 1273ERGO    C215900  12.305   6.167   8.105  0.0621 -0.1364  0.1065
 1274ERGO   ROH15901   8.789   9.623   5.887 -0.0904  0.2417 -0.1263
 1274ERGO    R115902   8.739   9.749   6.135 -0.0953  0.1805 -0.0955
 1274ERGO    R215903   8.527   9.921   6.175 -0.2103  0.0212 -0.0018
 1274ERGO    R315904   8.471   9.754   6.381 -0.0123 -0.0430  0.0012
 1274ERGO    R415905   8.377  10.017   6.472 -0.5848 -0.1938 -0.1145
 1274ERGO    R515906   8.515   9.884   6.577 -0.3860  0.0947  0.0006
 1274ERGO    C115907   8.238   9.914   6.838 -0.6170 -0.3794 -0.1774
 1274ERGO    C215908   8.172   9.933   7.076 -0.0877  0.0784  0.0259
 1275ERGO   ROH15909  12.129   3.740   6.746 -0.2262  0.1307 -0.1303
 1275ERGO    R115910  12.000   3.562   6.925 -0.1070  0.0964 -0.0761
 1275ERGO    R215911  12.077   3.533   7.189  0.0537  0.0652 -0.1217
 1275ERGO    R315912  11.816   3.589   7.237  0.0784  0.0424  0.0381
 1275ERGO    R415913  11.929   3.534   7.501  0.2141 -0.0448 -0.0443
 1275ERGO    R515914  11.754   3.440   7.414  0.1728 -0.0164  0.0178
 1275ERGO    C115915  11.597   3.587   7.728  0.3305 -0.1303  0.1508
 1275ERGO    C215916  11.419   3.560   7.987  0.0309  0.0163 -0.0569
 1276ERGO   ROH15917  13.558   0.655   6.475 -0.1165 -0.0210  0.0171
 1276ERGO    R115918  13.471   0.795   6.705 -0.1026  0.1241 -0.0641
 1276ERGO    R215919  13.535   0.715   6.962 -0.2882  0.1440 -0.0082
 1276ERGO    R315920  13.626   0.970   6.984 -0.0778  0.0729 -0.0462
 1276ERGO    R415921  13.500   0.915   7.242 -0.2643  0.2690 -0.0940
 1276ERGO    R515922  13.458   1.083   7.111 -0.0478  0.2628 -0.1732
 1276ERGO    C115923  13.566   1.270   7.425 -0.0527  0.2751 -0.1797
 1276ERGO    C215924  13.504   1.621   7.684 -0.0574 -0.1562  0.0011
 1277ERGO   ROH15925   2.948   3.466   5.963  0.1242 -0.2575  0.0622
 1277ERGO    R115926   3.117   3.448   6.189  0.0706 -0.1274  0.1146
 1277ERGO    R215927   3.036   3.522   6.443 -0.0214 -0.0679  0.0716
 1277ERGO    R315928   3.116   3.270   6.507  0.0415 -0.0219  0.1730
 1277ERGO    R415929   3.122   3.416   6.760  0.0463  0.0883  0.1059
 1277ERGO    R515930   3.285   3.302   6.673  0.0567  0.0858  0.1352
 1277ERGO    C115931   3.247   3.118   7.005  0.1449  0.2224  0.2209
 1277ERGO    C215932   3.230   3.072   7.334 -0.0296  0.1061 -0.1883
 1278ERGO   ROH15933   7.105  15.561   5.591 -0.1356  0.0290  0.0480
 1278ERGO    R115934   7.051  15.428   5.834 -0.2752  0.1010  0.0594
 1278ERGO    R215935   7.216  15.232   5.937 -0.5504 -0.1839 -0.0010
 1278ERGO    R315936   7.214  15.390   6.157 -0.2227 -0.1768  0.0002
 1278ERGO    R415937   7.232  15.117   6.263 -0.0921 -0.1557 -0.0076
 1278ERGO    R515938   7.084  15.268   6.317  0.0010 -0.1499  0.1971
 1278ERGO    C115939   7.238  15.200   6.659  0.4825 -0.1327 -0.0104
 1278ERGO    C215940   7.209  15.015   6.919 -0.0412  0.0903  0.0113
 1279ERGO   ROH15941  14.679  17.474   6.934  0.0301 -0.1886 -0.0688
 1279ERGO    R115942  14.521  17.300   7.092 -0.1274 -0.0731 -0.0950
 1279ERGO    R215943  14.590  17.230   7.350 -0.1056 -0.2952 -0.1583
 1279ERGO    R315944  14.340  17.319   7.407  0.0278 -0.0035 -0.0086
 1279ERGO    R415945  14.426  17.179   7.650 -0.0993 -0.3716 -0.1680
 1279ERGO    R515946  14.242  17.143   7.537 -0.1815 -0.0056 -0.1623
 1279ERGO    C115947  14.095  17.233   7.878  0.0294 -0.1423 -0.0332
 1279ERGO    C215948  14.146  17.116   8.252 -0.3130  0.2264 -0.0693
 1280ERGO   ROH15949   2.283   8.493   6.448 -0.0434 -0.0578 -0.0816
 1280ERGO    R115950   2.251   8.528   6.727 -0.0794 -0.0707 -0.0844
 1280ERGO    R215951   2.334   8.339   6.911 -0.0739 -0.0639 -0.0819
 1280ERGO    R315952   2.469   8.549   7.018 -0.1152 -0.0486 -0.0586
 1280ERGO    R415953   2.449   8.355   7.237  0.2303 -0.2288 -0.1765
 1280ERGO    R515954   2.388   8.565   7.243  0.0889 -0.2716  0.0359
 1280ERGO    C115955   2.642   8.562   7.527  0.3687 -0.3105 -0.2097
 1280ERGO    C215956   2.867   8.582   7.841  0.2006  0.1243 -0.1839
 1281ERGO   ROH15957  13.566  11.789   6.515 -0.0068  0.1984  0.0697
 1281ERGO    R115958  13.434  11.666   6.733  0.0045  0.1286  0.0378
 1281ERGO    R215959  13.494  11.409   6.816  0.0270  0.1086 -0.0303
 1281ERGO    R315960  13.531  11.530   7.057  0.0194  0.0502 -0.0001
 1281ERGO    R415961  13.532  11.243   7.117  0.0797  0.0395 -0.0749
 1281ERGO    R515962  13.407  11.395   7.211  0.0583 -0.0121 -0.0267
 1281ERGO    C115963  13.588  11.261   7.518  0.1034 -0.0555 -0.0726
 1281ERGO    C215964  13.647  11.185   7.862 -0.1300 -0.0606 -0.0795
 1282ERGO   ROH15965   8.137   1.774   6.523 -0.1834 -0.0056  0.1294
 1282ERGO    R115966   8.162   1.631   6.767 -0.1608  0.1001  0.1889
 1282ERGO    R215967   8.364   1.681   6.948 -0.0787  0.1061  0.0973
 1282ERGO    R315968   8.157   1.711   7.122 -0.0113  0.2733  0.1529
 1282ERGO    R415969   8.397   1.729   7.289  0.0422  0.4095  0.0472
 1282ERGO    R515970   8.228   1.595   7.319  0.0489  0.4478  0.2317
 1282ERGO    C115971   8.222   1.785   7.650  0.1758  0.7430  0.0701
 1282ERGO    C215972   8.441   1.920   7.867 -0.0356 -0.1525 -0.1549
 1283ERGO   ROH15973   6.703  14.360   5.901  0.1186  0.0157 -0.0776
 1283ERGO    R115974   6.733  14.168   6.107  0.1968  0.0644 -0.0436
 1283ERGO    R215975   6.948  14.168   6.281  0.1401  0.2475  0.0238
 1283ERGO    R315976   6.753  14.170   6.470  0.0791  0.1243 -0.0363
 1283ERGO    R415977   6.993  14.081   6.612  0.0272 -0.0314 -0.0313
 1283ERGO    R515978   6.801  13.980   6.607  0.0087  0.0010 -0.1762
 1283ERGO    C115979   6.837  14.032   6.983 -0.0957 -0.3092 -0.1197
 1283ERGO    C215980   6.756  14.149   7.323 -0.0072 -0.1834 -0.1547
 1284ERGO   ROH15981  17.918   5.284   6.616 -0.0714 -0.3599  0.0740
 1284ERGO    R115982  18.073   5.298   6.853 -0.0663 -0.1015  0.0590
 1284ERGO    R215983  18.034   5.493   7.045 -0.3177 -0.1105  0.0268
 1284ERGO    R315984  18.011   5.279   7.211 -0.0133 -0.1168  0.0661
 1284ERGO    R415985  18.004   5.513   7.388 -0.2869 -0.1029  0.0287
 1284ERGO    R515986  18.137   5.341   7.405 -0.0622  0.0734  0.0353
 1284ERGO    C115987  17.964   5.324   7.745  0.0166 -0.1044  0.0667
 1284ERGO    C215988  17.929   5.272   8.015  0.1554 -0.3407  0.0145
 1285ERGO   ROH15989  12.143  11.717   6.090  0.0138  0.1442 -0.0045
 1285ERGO    R115990  12.196  11.707   6.368 -0.0522  0.1110  0.0068
 1285ERGO    R215991  12.281  11.928   6.511 -0.0129  0.0734  0.0377
 1285ERGO    R315992  12.066  11.869   6.667 -0.0661  0.1357 -0.0115
 1285ERGO    R415993  12.252  12.008   6.846 -0.0236  0.0127  0.0513
 1285ERGO    R515994  12.160  11.813   6.880 -0.1206  0.0430 -0.0082
 1285ERGO    C115995  12.033  11.999   7.187 -0.0797  0.0357  0.0130
 1285ERGO    C215996  12.110  12.203   7.326 -0.0087  0.1154 -0.1802
 1286ERGO   ROH15997   2.741  15.729   6.321  0.1129 -0.0902 -0.1787
 1286ERGO    R115998   2.858  15.591   6.539  0.1093  0.0392 -0.0930
 1286ERGO    R215999   3.124  15.619   6.607  0.0791  0.1836 -0.0193
 1286ERGO    R316000   3.022  15.681   6.852 -0.0265  0.2261 -0.0744
 1286ERGO    R416001   3.312  15.667   6.894 -0.0406  0.3304  0.0355
 1286ERGO    R516002   3.159  15.559   7.006 -0.0449  0.3181  0.0126
 1286ERGO    C116003   3.325  15.752   7.290 -0.2095  0.4560  0.0157
 1286ERGO    C216004   3.467  15.823   7.564  0.1317 -0.0131 -0.1608
 1287ERGO   ROH16005   6.167   0.375   6.240 -0.1159  0.1178  0.0900
 1287ERGO    R116006   6.071   0.430   6.500 -0.0431  0.2121  0.0974
 1287ERGO    R216007   6.004   0.231   6.680 -0.1734  0.2760  0.1218
 1287ERGO    R316008   6.178   0.363   6.841 -0.0525  0.1576  0.0896
 1287ERGO    R416009   5.963   0.277   7.020 -0.0393  0.2374  0.1439
 1287ERGO    R516010   6.039   0.480   6.997  0.0580  0.2023  0.1559
 1287ERGO    C116011   6.102   0.428   7.369  0.1524  0.1037  0.1266
 1287ERGO    C216012   5.958   0.398   7.722  0.2302 -0.1966  0.1102
 1288ERGO   ROH16013  15.803   6.023   6.817  0.0603 -0.1073  0.0321
 1288ERGO    R116014  15.670   6.062   7.064  0.1388 -0.2110  0.0915
 1288ERGO    R216015  15.804   6.063   7.306  0.2625 -0.0106  0.0246
 1288ERGO    R316016  15.682   6.305   7.335 -0.0016 -0.1412  0.0360
 1288ERGO    R416017  15.826   6.263   7.588  0.2759  0.1262 -0.0723
 1288ERGO    R516018  15.614   6.310   7.565  0.1956 -0.1352  0.0959
 1288ERGO    C116019  15.725   6.606   7.779  0.0357  0.0834 -0.1182
 1288ERGO    C216020  15.669   6.781   8.027  0.0188 -0.2701 -0.2362
 1289ERGO   ROH16021  10.136   9.762   6.022 -0.1632 -0.1439  0.1153
 1289ERGO    R116022  10.084   9.866   6.280 -0.1152 -0.3982  0.2298
 1289ERGO    R216023  10.126   9.720   6.511  0.5440 -0.4139  0.1166
 1289ERGO    R316024  10.276   9.935   6.582  0.0927 -0.0539  0.0261
 1289ERGO    R416025  10.194   9.814   6.836  0.7212 -0.4142  0.0811
 1289ERGO    R516026  10.166  10.022   6.776  0.1067 -0.4360  0.2158
 1289ERGO    C116027  10.374  10.071   7.092  0.4008 -0.0766 -0.0245
 1289ERGO    C216028  10.418  10.048   7.377  0.1457  0.0253 -0.0328
 1290ERGO   ROH16029  14.405   7.256   6.896 -0.0377  0.1516 -0.0261
 1290ERGO    R116030  14.532   7.447   7.063  0.2192 -0.0189 -0.0231
 1290ERGO    R216031  14.414   7.546   7.291  0.2393  0.3232 -0.1613
 1290ERGO    R316032  14.645   7.463   7.409 -0.0061 -0.0829  0.0559
 1290ERGO    R416033  14.516   7.635   7.609  0.2614  0.4504 -0.2024
 1290ERGO    R516034  14.720   7.654   7.533  0.3623 -0.1021 -0.1193
 1290ERGO    C116035  14.792   7.608   7.905  0.0441  0.1432 -0.0224
 1290ERGO    C216036  14.643   7.671   8.260  0.0689 -0.0688 -0.0132
 1291ERGO   ROH16037   9.114  17.789   6.528  0.1131  0.1448 -0.0456
 1291ERGO    R116038   9.176  17.727   6.797  0.0952  0.1189 -0.0484
 1291ERGO    R216039   9.410  17.811   6.919 -0.0393  0.3379  0.0544
 1291ERGO    R316040   9.238  17.913   7.103 -0.2128  0.0805  0.0416
 1291ERGO    R416041   9.490  17.879   7.248 -0.2044  0.3229  0.0998
 1291ERGO    R516042   9.296  17.801   7.307 -0.1371  0.0755  0.0210
 1291ERGO    C116043   9.376  18.014   7.613 -0.4636  0.0725  0.1141
 1291ERGO    C216044   9.308  18.191   7.967 -0.1338  0.0736  0.1268
 1292ERGO   ROH16045  17.675  14.380   7.030 -0.1637 -0.0322 -0.0085
 1292ERGO    R116046  17.728  14.426   7.305 -0.1712  0.0377 -0.0182
 1292ERGO    R216047  17.538  14.388   7.501 -0.1478 -0.0098 -0.0015
 1292ERGO    R316048  17.730  14.229   7.610 -0.0743  0.0896  0.0144
 1292ERGO    R416049  17.623  14.383   7.836 -0.1905  0.0107  0.0094
 1292ERGO    R516050  17.833  14.366   7.778 -0.1744  0.1324  0.0390
 1292ERGO    C116051  17.853  14.231   8.134 -0.1467  0.1159  0.0307
 1292ERGO    C216052  17.917  14.262   8.443 -0.1273  0.0334 -0.1524
 1293ERGO   ROH16053   9.209  13.402   6.086  0.0624 -0.2972 -0.0030
 1293ERGO    R116054   9.217  13.295   6.348  0.1784 -0.2760  0.0035
 1293ERGO    R216055   9.412  13.364   6.531  0.1257 -0.0769 -0.0077
 1293ERGO    R316056   9.197  13.425   6.687  0.0708 -0.2713 -0.0054
 1293ERGO    R416057   9.392  13.307   6.872  0.3046  0.1980  0.0518
 1293ERGO    R516058   9.185  13.245   6.844  0.3925 -0.1511  0.1622
 1293ERGO    C116059   9.179  13.331   7.216  0.3571  0.1756  0.0886
 1293ERGO    C216060   9.135  13.309   7.590  0.0435  0.1481 -0.1946
 1294ERGO   ROH16061   2.681  17.271   6.227 -0.3000 -0.0436  0.0508
 1294ERGO    R116062   2.754  17.470   6.415 -0.3405  0.0010  0.0195
 1294ERGO    R216063   2.649  17.478   6.670 -0.1535 -0.1307  0.1027
 1294ERGO    R316064   2.911  17.478   6.743 -0.0940  0.1046 -0.0988
 1294ERGO    R416065   2.781  17.662   6.931 -0.1168 -0.0203  0.0074
 1294ERGO    R516066   2.955  17.705   6.807 -0.2503  0.1431 -0.1258
 1294ERGO    C116067   3.104  17.770   7.152 -0.0397  0.2649 -0.2374
 1294ERGO    C216068   3.019  17.720   7.459 -0.0733 -0.0570 -0.1285
 1295ERGO   ROH16069   9.880  12.216   6.058 -0.2831  0.0364 -0.0346
 1295ERGO    R116070   9.749  12.200   6.308 -0.0261 -0.1234  0.0939
 1295ERGO    R216071   9.881  12.132   6.541  0.3063  0.1290 -0.0122
 1295ERGO    R316072   9.775  12.366   6.631  0.0182 -0.0149  0.0349
 1295ERGO    R416073   9.838  12.215   6.874  0.2386  0.0284  0.0046
 1295ERGO    R516074   9.646  12.303   6.823  0.1182 -0.2073  0.0409
 1295ERGO    C116075   9.714  12.482   7.152 -0.0714 -0.1653  0.0586
 1295ERGO    C216076   9.656  12.578   7.516 -0.0779  0.0885 -0.0283
 1296ERGO   ROH16077  15.166   4.678   6.304 -0.0770 -0.1433  0.1399
 1296ERGO    R116078  15.129   4.722   6.581 -0.1082 -0.1618  0.1393
 1296ERGO    R216079  15.214   4.543   6.773 -0.0650 -0.1419  0.1420
 1296ERGO    R316080  15.341   4.762   6.874 -0.1381 -0.1048  0.1527
 1296ERGO    R416081  15.345   4.565   7.092 -0.1179 -0.0927  0.1600
 1296ERGO    R516082  15.271   4.770   7.103 -0.1731 -0.1134  0.1410
 1296ERGO    C116083  15.541   4.782   7.373 -0.2172 -0.0295  0.1805
 1296ERGO    C216084  15.674   4.626   7.558 -0.1631 -0.2178 -0.1160
 1297ERGO   ROH16085   4.332  13.459   5.914 -0.0801 -0.2402 -0.0333
 1297ERGO    R116086   4.291  13.453   6.194 -0.0643 -0.2446 -0.0311
 1297ERGO    R216087   4.372  13.242   6.353  0.0426 -0.1980 -0.0235
 1297ERGO    R316088   4.499  13.438   6.492 -0.0426 -0.1305 -0.0401
 1297ERGO    R416089   4.509  13.204   6.668  0.1565 -0.1414 -0.0651
 1297ERGO    R516090   4.433  13.402   6.719  0.0447 -0.1945 -0.0249
 1297ERGO    C116091   4.707  13.366   6.982  0.1428 -0.0451 -0.1051
 1297ERGO    C216092   4.891  13.362   7.340 -0.1273  0.3883  0.2363
 1298ERGO   ROH16093  16.165  13.998   6.746  0.0668  0.3045  0.2142
 1298ERGO    R116094  16.217  13.763   6.896 -0.0304  0.1944  0.0780
 1298ERGO    R216095  16.401  13.756   7.102  0.0098 -0.0177  0.0367
 1298ERGO    R316096  16.189  13.660   7.243 -0.0136  0.0230  0.0292
 1298ERGO    R416097  16.410  13.666   7.436  0.0381 -0.2235 -0.0184
 1298ERGO    R516098  16.284  13.494   7.388 -0.0756 -0.1214 -0.0921
 1298ERGO    C116099  16.217  13.523   7.762  0.0325 -0.3052 -0.0576
 1298ERGO    C216100  16.042  13.434   8.111 -0.1707 -0.2160  0.1716
 1299ERGO   ROH16101  18.167  18.174   6.442 -0.1506 -0.3870 -0.1881
 1299ERGO    R116102  18.150  18.283   6.702  0.0312 -0.2150 -0.2453
 1299ERGO    R216103  17.930  18.244   6.866  0.0825  0.0099 -0.1168
 1299ERGO    R316104  18.118  18.155   7.041  0.1134  0.0116 -0.1497
 1299ERGO    R416105  17.910  18.274   7.210 -0.0025 -0.2573 -0.0965
 1299ERGO    R516106  18.122  18.321   7.213 -0.0350 -0.1102 -0.0249
 1299ERGO    C116107  18.074  18.208   7.574 -0.0231 -0.4114 -0.1155
 1299ERGO    C216108  18.004  18.182   7.813 -0.0550 -0.0673 -0.0137
 1300ERGO   ROH16109  14.151  16.486   6.622 -0.1316  0.0047  0.0883
 1300ERGO    R116110  13.975  16.403   6.827 -0.0519 -0.3041  0.0358
 1300ERGO    R216111  14.017  16.173   6.974  0.4019 -0.1526  0.1605
 1300ERGO    R316112  13.997  16.343   7.185 -0.0914 -0.0908  0.0748
 1300ERGO    R416113  14.046  16.080   7.306  0.2683  0.0422  0.2280
 1300ERGO    R516114  13.882  16.216   7.353 -0.0213 -0.2234  0.0231
 1300ERGO    C116115  14.043  16.186   7.697 -0.2727  0.2133  0.1868
 1300ERGO    C216116  14.024  16.238   8.031  0.1035 -0.1332 -0.2224
 1301ERGO   ROH16117   7.831  17.993   6.391  0.0183  0.1317  0.0353
 1301ERGO    R116118   7.910  17.934   6.656  0.0276  0.0484  0.0138
 1301ERGO    R216119   7.764  18.014   6.876  0.0846  0.0583  0.0452
 1301ERGO    R316120   7.773  17.750   6.938 -0.0070  0.0423 -0.0060
 1301ERGO    R416121   7.792  17.888   7.197  0.1118 -0.0081  0.0172
 1301ERGO    R516122   7.930  17.737   7.119  0.0339 -0.0515 -0.0449
 1301ERGO    C116123   7.817  17.566   7.442  0.0416 -0.0620 -0.0472
 1301ERGO    C216124   7.806  17.558   7.790  0.0321  0.2669 -0.0512
 1302ERGO   ROH16125  17.426  17.393   6.979  0.0993 -0.1725  0.0545
 1302ERGO    R116126  17.355  17.539   7.211 -0.0529 -0.2685  0.0712
 1302ERGO    R216127  17.209  17.428   7.419  0.0918 -0.4588  0.0822
 1302ERGO    R316128  17.419  17.513   7.569  0.0127 -0.2218  0.0611
 1302ERGO    R416129  17.191  17.514   7.753  0.0290 -0.4102  0.0661
 1302ERGO    R516130  17.326  17.680   7.712 -0.1401 -0.2883  0.0330
 1302ERGO    C116131  17.378  17.644   8.088 -0.0817 -0.1595  0.0369
 1302ERGO    C216132  17.382  17.857   8.403  0.0148 -0.2177 -0.1930
 1303ERGO   ROH16133  10.447   7.030   6.472 -0.0605 -0.1065  0.0261
 1303ERGO    R116134  10.418   7.005   6.753 -0.1120 -0.0471  0.0272
 1303ERGO    R216135  10.632   7.015   6.926 -0.1285 -0.1284  0.0573
 1303ERGO    R316136  10.485   7.210   7.045 -0.0466 -0.0339  0.0024
 1303ERGO    R416137  10.639   7.088   7.264 -0.3482 -0.2639  0.0925
 1303ERGO    R516138  10.423   7.116   7.257 -0.3181 -0.0561 -0.0848
 1303ERGO    C116139  10.506   7.315   7.572 -0.3994 -0.2541  0.0615
 1303ERGO    C216140  10.571   7.413   7.905 -0.0360  0.0248 -0.0581
 1304ERGO   ROH16141  10.807   1.403   6.335 -0.1373 -0.0070  0.0834
 1304ERGO    R116142  10.834   1.227   6.555 -0.0932 -0.0754  0.0247
 1304ERGO    R216143  11.050   1.236   6.727 -0.0310 -0.1622 -0.0429
 1304ERGO    R316144  10.857   1.258   6.917  0.0342 -0.1804  0.0251
 1304ERGO    R416145  11.089   1.151   7.060  0.1060 -0.0998 -0.0425
 1304ERGO    R516146  10.888   1.067   7.057  0.1287 -0.1476  0.0448
 1304ERGO    C116147  10.930   1.123   7.432  0.2470 -0.0806  0.0214
 1304ERGO    C216148  10.846   0.996   7.696 -0.0031 -0.0805 -0.1125
 1305ERGO   ROH16149   4.079   6.602   5.970 -0.2560  0.0002 -0.0531
 1305ERGO    R116150   4.211   6.710   6.197 -0.1239 -0.0953 -0.0843
 1305ERGO    R216151   4.131   6.945   6.318  0.0388 -0.0702 -0.0314
 1305ERGO    R316152   4.123   6.790   6.541  0.0342 -0.0898 -0.0428
 1305ERGO    R416153   4.176   7.060   6.641 -0.0173 -0.0805 -0.0193
 1305ERGO    R516154   4.292   6.880   6.683  0.0074 -0.0706 -0.0170
 1305ERGO    C116155   4.195   6.980   7.038 -0.0542 -0.1050 -0.0230
 1305ERGO    C216156   4.151   6.907   7.335  0.0859 -0.0654  0.0306
 1306ERGO   ROH16157   7.103   4.698   6.477 -0.0006  0.1780  0.0078
 1306ERGO    R116158   7.067   4.744   6.754  0.1389  0.0567  0.0471
 1306ERGO    R216159   6.886   4.601   6.906  0.0894  0.1104  0.0358
 1306ERGO    R316160   7.105   4.553   7.061  0.1122 -0.1375 -0.0684
 1306ERGO    R416161   6.876   4.473   7.227  0.0918  0.1470  0.0509
 1306ERGO    R516162   7.035   4.612   7.282  0.2891 -0.0341 -0.0368
 1306ERGO    C116163   7.075   4.353   7.559  0.1146 -0.0644 -0.0381
 1306ERGO    C216164   6.832   4.212   7.847 -0.2015 -0.2856 -0.3199
 1307ERGO   ROH16165   6.317  13.938   5.661 -0.0489  0.2204 -0.0452
 1307ERGO    R116166   6.267  13.860   5.928 -0.2768  0.4467 -0.0190
 1307ERGO    R216167   6.457  13.735   6.086 -0.6150 -0.0340  0.0233
 1307ERGO    R316168   6.402  13.938   6.257 -0.0587  0.1902 -0.0421
 1307ERGO    R416169   6.466  13.712   6.430 -0.6633  0.0452  0.0304
 1307ERGO    R516170   6.286  13.834   6.439 -0.3474  0.5500 -0.0021
 1307ERGO    C116171   6.420  13.890   6.792 -0.1693  0.3016 -0.0268
 1307ERGO    C216172   6.456  13.771   7.052 -0.0458 -0.0396 -0.3563
 1308ERGO   ROH16173  14.333   9.786   6.346  0.0851 -0.2294  0.1282
 1308ERGO    R116174  14.173   9.883   6.559  0.2220 -0.0985  0.1735
 1308ERGO    R216175  13.919   9.786   6.610  0.0132  0.3454  0.0298
 1308ERGO    R316176  14.020   9.744   6.859 -0.1153 -0.0679  0.0198
 1308ERGO    R416177  13.740   9.813   6.905 -0.0117  0.3744  0.0120
 1308ERGO    R516178  13.913   9.908   6.996  0.1348 -0.0085  0.1480
 1308ERGO    C116179  13.731   9.790   7.309 -0.1466  0.0033 -0.0076
 1308ERGO    C216180  13.809   9.777   7.609 -0.1999 -0.2007  0.1005
 1309ERGO   ROH16181   7.365  15.856   6.024  0.1763  0.0590  0.0044
 1309ERGO    R116182   7.397  15.895   6.303 -0.0135 -0.0364  0.0423
 1309ERGO    R216183   7.271  15.738   6.491 -0.0050 -0.2173 -0.0960
 1309ERGO    R316184   7.524  15.702   6.584 -0.0285 -0.0649  0.0283
 1309ERGO    R416185   7.350  15.620   6.806 -0.0799 -0.0372 -0.0087
 1309ERGO    R516186   7.511  15.766   6.815 -0.1496  0.0348 -0.0075
 1309ERGO    C116187   7.634  15.518   7.077 -0.1455  0.2105  0.1588
 1309ERGO    C216188   7.699  15.390   7.320  0.3506  0.0128 -0.1096
 1310ERGO   ROH16189   7.907  13.230   5.993  0.0921 -0.0242 -0.0841
 1310ERGO    R116190   7.771  13.318   6.225 -0.0642 -0.1098 -0.1415
 1310ERGO    R216191   7.683  13.145   6.421  0.0385 -0.1592 -0.1372
 1310ERGO    R316192   7.827  13.308   6.584 -0.1636  0.0079 -0.1222
 1310ERGO    R416193   7.721  13.101   6.762  0.0582 -0.1156 -0.1338
 1310ERGO    R516194   7.701  13.317   6.787 -0.1926 -0.1378 -0.1344
 1310ERGO    C116195   7.877  13.229   7.113 -0.1200  0.0666 -0.1179
 1310ERGO    C216196   7.813  13.161   7.397  0.1729  0.2536  0.0114
 1311ERGO   ROH16197   3.744   7.827   6.201  0.1188 -0.1368  0.0749
 1311ERGO    R116198   3.898   7.992   6.372  0.1663 -0.2179  0.1123
 1311ERGO    R216199   3.784   8.157   6.563  0.1979 -0.0238 -0.0262
 1311ERGO    R316200   3.951   8.024   6.731 -0.0478 -0.1275  0.1348
 1311ERGO    R416201   3.866   8.259   6.883  0.0097 -0.0511  0.0309
 1311ERGO    R516202   4.071   8.196   6.845 -0.0121 -0.2120  0.2147
 1311ERGO    C116203   4.070   8.193   7.226 -0.3306 -0.1644  0.2152
 1311ERGO    C216204   4.326   8.123   7.519 -0.1088  0.0081 -0.1660
 1312ERGO   ROH16205   5.806   3.801   6.609 -0.1107  0.1472 -0.0205
 1312ERGO    R116206   5.887   3.678   6.851 -0.0288  0.0631 -0.0899
 1312ERGO    R216207   5.885   3.811   7.093  0.0382 -0.0250 -0.0386
 1312ERGO    R316208   5.735   3.598   7.171  0.0737 -0.0622 -0.0722
 1312ERGO    R416209   5.868   3.688   7.416 -0.0874  0.0339 -0.0224
 1312ERGO    R516210   5.869   3.486   7.334  0.0271  0.0188  0.0208
 1312ERGO    C116211   5.717   3.417   7.676 -0.1272  0.0332 -0.0445
 1312ERGO    C216212   5.538   3.428   7.957  0.1072 -0.0520  0.1550
 1313ERGO   ROH16213   8.262  10.159   5.901 -0.2830  0.1825  0.0606
 1313ERGO    R116214   8.414  10.362   6.028 -0.0246  0.0204  0.0167
 1313ERGO    R216215   8.304  10.602   6.109  0.2939  0.2133 -0.1047
 1313ERGO    R316216   8.411  10.533   6.349  0.1381  0.1545 -0.0514
 1313ERGO    R416217   8.283  10.792   6.397  0.1866  0.1898 -0.0970
 1313ERGO    R516218   8.490  10.740   6.441  0.1480  0.1227  0.0144
 1313ERGO    C116219   8.371  10.838   6.790 -0.0220  0.1207 -0.0424
 1313ERGO    C216220   8.262  10.860   7.066  0.2877 -0.1562 -0.0111
 1314ERGO   ROH16221   0.086   4.404   6.305  0.0375  0.1507  0.1092
 1314ERGO    R116222   0.282   4.347   6.501  0.0398  0.0454  0.0747
 1314ERGO    R216223   0.549   4.408   6.466  0.0326  0.0594  0.1004
 1314ERGO    R316224   0.517   4.538   6.703  0.0481 -0.0659  0.1744
 1314ERGO    R416225   0.801   4.460   6.697  0.1111  0.1351  0.0009
 1314ERGO    R516226   0.657   4.417   6.856  0.2117 -0.0402  0.0553
 1314ERGO    C116227   0.917   4.613   7.054  0.1714  0.0616  0.0124
 1314ERGO    C216228   1.213   4.607   7.154  0.2690 -0.2533 -0.2402
 1315ERGO   ROH16229  10.429   1.600   6.359  0.4695 -0.1201  0.1086
 1315ERGO    R116230  10.321   1.556   6.618  0.3406  0.1619  0.1068
 1315ERGO    R216231  10.339   1.312   6.747 -0.1045  0.1733  0.2050
 1315ERGO    R316232  10.450   1.461   6.944  0.1183  0.0615  0.1671
 1315ERGO    R416233  10.375   1.211   7.075 -0.0409  0.1174  0.1813
 1315ERGO    R516234  10.320   1.412   7.138  0.1634  0.1620  0.2233
 1315ERGO    C116235  10.501   1.293   7.452  0.2053 -0.0200  0.1318
 1315ERGO    C216236  10.666   1.469   7.707 -0.2294 -0.2665 -0.0013
 1316ERGO   ROH16237  12.036   9.422   6.403 -0.2239 -0.1188 -0.1321
 1316ERGO    R116238  12.214   9.429   6.623  0.0265 -0.2385 -0.3270
 1316ERGO    R216239  12.130   9.475   6.882  0.3767  0.1388 -0.2733
 1316ERGO    R316240  12.261   9.243   6.932  0.0239 -0.0558 -0.2135
 1316ERGO    R416241  12.199   9.350   7.197  0.3657  0.2286 -0.2344
 1316ERGO    R516242  12.395   9.290   7.124  0.2285 -0.1472 -0.3268
 1316ERGO    C116243  12.364   9.059   7.426  0.0280  0.0981 -0.1556
 1316ERGO    C216244  12.431   8.777   7.591 -0.1359  0.0205 -0.0212
 1317ERGO   ROH16245   2.860  13.814   6.213 -0.1402  0.0708 -0.0229
 1317ERGO    R116246   3.097  13.825   6.366 -0.0707  0.0307 -0.1272
 1317ERGO    R216247   3.345  13.874   6.253 -0.1583  0.3241 -0.1932
 1317ERGO    R316248   3.353  14.073   6.439 -0.1895  0.1048  0.0493
 1317ERGO    R416249   3.634  14.023   6.372 -0.1835  0.3124 -0.1160
 1317ERGO    R516250   3.546  14.023   6.571 -0.1174  0.0279 -0.0783
 1317ERGO    C116251   3.809  14.296   6.615 -0.2276  0.0998  0.1565
 1317ERGO    C216252   3.889  14.679   6.556 -0.1374 -0.1380  0.1774
 1318ERGO   ROH16253   7.078   0.544   6.316  0.1386  0.1309 -0.0243
 1318ERGO    R116254   7.177   0.599   6.575  0.1173  0.2720 -0.0433
 1318ERGO    R216255   7.031   0.739   6.763 -0.0066  0.1591 -0.0383
 1318ERGO    R316256   7.081   0.520   6.917  0.2340  0.2238 -0.0247
 1318ERGO    R416257   6.970   0.719   7.103 -0.2054  0.0160 -0.0819
 1318ERGO    R516258   7.159   0.611   7.125 -0.0546  0.3170  0.0368
 1318ERGO    C116259   6.982   0.502   7.445 -0.0953 -0.0065 -0.0945
 1318ERGO    C216260   6.879   0.541   7.920 -0.0724 -0.3324  0.1091
 1319ERGO   ROH16261  17.537  16.093   7.086  0.0459 -0.1708 -0.0716
 1319ERGO    R116262  17.401  16.115   7.334 -0.0293 -0.3018 -0.1013
 1319ERGO    R216263  17.413  15.919   7.528  0.3236 -0.1843 -0.0009
 1319ERGO    R316264  17.493  16.126   7.686 -0.0885  0.0567 -0.0926
 1319ERGO    R416265  17.381  15.928   7.872  0.1345 -0.0047 -0.0202
 1319ERGO    R516266  17.325  16.138   7.856 -0.2002 -0.0996 -0.1872
 1319ERGO    C116267  17.438  16.128   8.221 -0.3624  0.3262 -0.1176
 1319ERGO    C216268  17.541  16.356   8.507 -0.0292 -0.2806  0.2890
 1320ERGO   ROH16269   4.479   7.233   6.239 -0.0443  0.0240 -0.1634
 1320ERGO    R116270   4.590   7.178   6.494 -0.0614 -0.0563 -0.1730
 1320ERGO    R216271   4.663   7.377   6.671  0.1471 -0.1065 -0.1990
 1320ERGO    R316272   4.500   7.241   6.840  0.0420  0.0585 -0.1667
 1320ERGO    R416273   4.644   7.430   7.012  0.2351 -0.0552 -0.2021
 1320ERGO    R516274   4.630   7.215   7.039  0.0414 -0.0405 -0.1796
 1320ERGO    C116275   4.480   7.334   7.369  0.1877  0.1297 -0.1735
 1320ERGO    C216276   4.562   7.352   7.653 -0.2267 -0.0844 -0.1870
 1321ERGO   ROH16277  11.091   8.926   6.463  0.0283 -0.0073 -0.0361
 1321ERGO    R116278  11.156   8.873   6.734  0.2258  0.0700 -0.0685
 1321ERGO    R216279  11.335   9.028   6.877 -0.0345  0.4000 -0.1057
 1321ERGO    R316280  11.127   9.047   7.052 -0.0161 -0.0455 -0.0223
 1321ERGO    R416281  11.367   9.057   7.220  0.0684  0.5837 -0.1286
 1321ERGO    R516282  11.199   8.921   7.243  0.3883  0.1698 -0.0112
 1321ERGO    C116283  11.192   9.091   7.584  0.1455  0.2725 -0.0636
 1321ERGO    C216284  11.183   9.170   7.927 -0.3788 -0.1434 -0.2946
 1322ERGO   ROH16285   8.060  17.221   5.845 -0.1233  0.0343  0.1243
 1322ERGO    R116286   7.855  17.159   6.030 -0.1477 -0.0320  0.0736
 1322ERGO    R216287   7.776  16.900   6.084 -0.0668 -0.0528  0.0601
 1322ERGO    R316288   7.826  16.973   6.341 -0.1647 -0.0309  0.0752
 1322ERGO    R416289   7.577  16.820   6.356  0.0682 -0.4500  0.0493
 1322ERGO    R516290   7.611  17.020   6.433 -0.2495 -0.4020  0.0980
 1322ERGO    C116291   7.509  16.841   6.755  0.0550 -0.6606  0.0572
 1322ERGO    C216292   7.508  16.823   7.085 -0.1186 -0.2170 -0.2802
 1323ERGO   ROH16293   0.470   6.308   6.760 -0.1804 -0.4847  0.1263
 1323ERGO    R116294   0.454   6.456   7.001 -0.0997 -0.2482 -0.0098
 1323ERGO    R216295   0.214   6.512   7.126 -0.0600 -0.0939 -0.0038
 1323ERGO    R316296   0.336   6.396   7.340 -0.0244  0.0957  0.0811
 1323ERGO    R416297   0.069   6.471   7.437 -0.1231 -0.0933 -0.0329
 1323ERGO    R516298   0.260   6.524   7.528 -0.1945  0.1087  0.0067
 1323ERGO    C116299   0.098   6.338   7.819 -0.1265  0.0851  0.0299
 1323ERGO    C216300  -0.153   6.253   8.031 -0.0368 -0.2221  0.0865
 1324ERGO   ROH16301  10.305  15.504   6.096 -0.0006 -0.4011  0.0596
 1324ERGO    R116302  10.131  15.587   6.303 -0.0268 -0.2499 -0.0209
 1324ERGO    R216303   9.962  15.412   6.435 -0.0323 -0.1580  0.0964
 1324ERGO    R316304  10.086  15.511   6.656 -0.0602  0.0176  0.0345
 1324ERGO    R416305   9.859  15.356   6.760  0.0998 -0.1525  0.1396
 1324ERGO    R516306   9.906  15.565   6.805 -0.0703 -0.0955  0.0642
 1324ERGO    C116307   9.915  15.417   7.157  0.1506  0.0156  0.1066
 1324ERGO    C216308   9.885  15.592   7.425  0.0731 -0.1641  0.0690
 1325ERGO   ROH16309  10.460   8.567   6.214  0.2922  0.1597 -0.0932
 1325ERGO    R116310  10.606   8.672   6.433  0.1372  0.0968  0.0437
 1325ERGO    R216311  10.602   8.940   6.499  0.1624  0.0935  0.0627
 1325ERGO    R316312  10.530   8.846   6.743 -0.0786  0.0945 -0.0067
 1325ERGO    R416313  10.680   9.091   6.800  0.1101 -0.0491  0.1479
 1325ERGO    R516314  10.718   8.894   6.884 -0.1204 -0.1082  0.1243
 1325ERGO    C116315  10.656   9.090   7.205 -0.1468 -0.1314  0.1323
 1325ERGO    C216316  10.709   9.180   7.435  0.2254 -0.1486 -0.1971
 1326ERGO   ROH16317   9.103   7.980   6.314 -0.1091 -0.1867 -0.0481
 1326ERGO    R116318   8.938   8.045   6.535 -0.1419 -0.1469 -0.0834
 1326ERGO    R216319   8.817   7.853   6.692 -0.0509 -0.1234  0.0226
 1326ERGO    R316320   8.941   7.986   6.894 -0.1122  0.0472 -0.0516
 1326ERGO    R416321   8.705   7.865   7.019  0.0252 -0.1107  0.0479
 1326ERGO    R516322   8.762   8.076   7.025 -0.1518 -0.0620 -0.0348
 1326ERGO    C116323   8.756   7.998   7.398  0.0119  0.0569 -0.0071
 1326ERGO    C216324   8.609   8.099   7.640  0.0381  0.0294 -0.3479
 1327ERGO   ROH16325  15.712  17.093   6.815 -0.1095 -0.1610  0.0649
 1327ERGO    R116326  15.778  17.226   7.056 -0.1984 -0.1987  0.1096
 1327ERGO    R216327  15.861  17.489   7.063  0.1198 -0.2992  0.1446
 1327ERGO    R316328  15.656  17.516   7.240 -0.0373 -0.0124 -0.0708
 1327ERGO    R416329  15.852  17.720   7.320  0.2744 -0.4148  0.2559
 1327ERGO    R516330  15.764  17.566   7.448 -0.1648 -0.3296  0.0813
 1327ERGO    C116331  15.655  17.880   7.636  0.2169 -0.2127  0.1184
 1327ERGO    C216332  15.486  18.083   7.814 -0.0462  0.0825 -0.0327
 1328ERGO   ROH16333   3.160   8.815   6.174 -0.1411  0.0933  0.0002
 1328ERGO    R116334   3.209   9.024   6.357 -0.1077  0.0750  0.0136
 1328ERGO    R216335   3.196   8.988   6.631 -0.0537  0.0458  0.0165
 1328ERGO    R316336   3.448   9.092   6.624 -0.0563  0.0466 -0.0265
 1328ERGO    R416337   3.348   9.158   6.891  0.0016  0.0315 -0.0073
 1328ERGO    R516338   3.431   9.297   6.746 -0.0287  0.0376 -0.0130
 1328ERGO    C116339   3.672   9.354   7.036  0.0314  0.0240 -0.0615
 1328ERGO    C216340   3.959   9.226   7.139  0.0600  0.2809 -0.0992
 1329ERGO   ROH16341  12.601  10.244   6.253 -0.1481  0.1895 -0.0457
 1329ERGO    R116342  12.698  10.250   6.519 -0.0954  0.0223 -0.0610
 1329ERGO    R216343  12.831  10.468   6.624 -0.0756 -0.0483  0.0455
 1329ERGO    R316344  12.641  10.452   6.817 -0.0322 -0.1642  0.0817
 1329ERGO    R416345  12.858  10.607   6.939 -0.2275  0.2696 -0.0755
 1329ERGO    R516346  12.764  10.427   7.020  0.0424  0.1908  0.0921
 1329ERGO    C116347  12.695  10.672   7.304 -0.2752  0.3458 -0.1120
 1329ERGO    C216348  12.738  10.880   7.618  0.4695 -0.0039  0.0145
 1330ERGO   ROH16349  17.681   0.853   6.734  0.1284 -0.1862  0.0429
 1330ERGO    R116350  17.602   0.998   6.964  0.0794 -0.0169 -0.0772
 1330ERGO    R216351  17.563   0.878   7.210 -0.2115  0.1195 -0.0459
 1330ERGO    R316352  17.740   1.067   7.293 -0.1061  0.0010 -0.0032
 1330ERGO    R416353  17.586   0.999   7.532 -0.2424  0.1503 -0.0564
 1330ERGO    R516354  17.618   1.199   7.451 -0.0652  0.1129 -0.0697
 1330ERGO    C116355  17.765   1.247   7.799 -0.1612  0.0568 -0.0224
 1330ERGO    C216356  17.946   1.323   8.087 -0.1317 -0.1753  0.2052
 1331ERGO   ROH16357   1.497   9.399   6.373  0.2306  0.0408  0.0351
 1331ERGO    R116358   1.384   9.402   6.633  0.0905  0.2150 -0.0248
 1331ERGO    R216359   1.454   9.218   6.827 -0.3099  0.0897  0.0123
 1331ERGO    R316360   1.506   9.441   6.974 -0.0255  0.0077  0.0423
 1331ERGO    R416361   1.512   9.222   7.168 -0.2773 -0.0311  0.0082
 1331ERGO    R516362   1.393   9.404   7.181 -0.0558  0.1145  0.0450
 1331ERGO    C116363   1.594   9.434   7.504  0.0086 -0.1786  0.0341
 1331ERGO    C216364   1.661   9.502   7.783 -0.0212 -0.2501 -0.1921
 1332ERGO   ROH16365   6.041  15.999   5.908 -0.1926 -0.2703 -0.1711
 1332ERGO    R116366   6.167  16.069   6.152 -0.2141 -0.1126 -0.2044
 1332ERGO    R216367   6.059  16.006   6.398 -0.1468 -0.1099 -0.1745
 1332ERGO    R316368   6.303  15.893   6.440 -0.0666  0.0648 -0.1636
 1332ERGO    R416369   6.204  15.957   6.709 -0.1547 -0.0613 -0.1633
 1332ERGO    R516370   6.395  16.017   6.623 -0.1859  0.1002 -0.1257
 1332ERGO    C116371   6.517  15.823   6.928 -0.0839  0.1311 -0.1465
 1332ERGO    C216372   6.489  15.683   7.267  0.0537  0.0244 -0.1228
 1333ERGO   ROH16373   3.521   2.719   5.951  0.0348 -0.0697 -0.0355
 1333ERGO    R116374   3.454   2.558   6.174 -0.0691 -0.1332 -0.1114
 1333ERGO    R216375   3.541   2.297   6.201  0.0910 -0.0758 -0.0459
 1333ERGO    R316376   3.633   2.387   6.441 -0.2044 -0.0238  0.0514
 1333ERGO    R416377   3.503   2.130   6.501 -0.1304 -0.0920 -0.0816
 1333ERGO    R516378   3.463   2.322   6.597 -0.3328 -0.1131 -0.1229
 1333ERGO    C116379   3.568   2.117   6.901 -0.5367 -0.0526 -0.0110
 1333ERGO    C216380   3.460   1.907   7.175  0.0545  0.0715 -0.1888
 1334ERGO   ROH16381  15.705   1.889   6.563 -0.1973  0.0484 -0.0001
 1334ERGO    R116382  15.829   1.819   6.808 -0.1119 -0.0105 -0.0572
 1334ERGO    R216383  15.870   2.001   7.012 -0.1231 -0.0750  0.0150
 1334ERGO    R316384  15.736   1.817   7.160 -0.0293 -0.1835 -0.0373
 1334ERGO    R416385  15.933   1.930   7.345  0.0117 -0.2610 -0.0504
 1334ERGO    R516386  15.903   1.719   7.300  0.0349 -0.2344 -0.1579
 1334ERGO    C116387  15.843   1.716   7.677  0.1783 -0.4711 -0.1377
 1334ERGO    C216388  15.930   1.687   8.024 -0.1725  0.1311 -0.0527
 1335ERGO   ROH16389   0.385  10.113   6.552 -0.0578  0.2234  0.1706
 1335ERGO    R116390   0.468   9.957   6.773 -0.3162  0.1219  0.1998
 1335ERGO    R216391   0.723   9.973   6.880 -0.2503 -0.3485  0.1369
 1335ERGO    R316392   0.588  10.020   7.111 -0.1139 -0.0060  0.1534
 1335ERGO    R416393   0.862   9.965   7.196 -0.1668 -0.3710  0.0999
 1335ERGO    R516394   0.682   9.866   7.267 -0.2989 -0.0589  0.2144
 1335ERGO    C116395   0.816  10.004   7.597  0.0099 -0.0625  0.0939
 1335ERGO    C216396   0.763   9.999   7.888  0.3692  0.1586  0.1576
 1336ERGO   ROH16397   6.137  15.457   5.882  0.0754 -0.1173 -0.1061
 1336ERGO    R116398   6.202  15.536   6.146 -0.0277 -0.1138 -0.0807
 1336ERGO    R216399   6.044  15.473   6.364 -0.0379 -0.2381 -0.1208
 1336ERGO    R316400   6.277  15.370   6.461  0.0038 -0.1141 -0.0888
 1336ERGO    R416401   6.118  15.433   6.699  0.0339  0.0134 -0.1045
 1336ERGO    R516402   6.321  15.499   6.658  0.0089  0.0335 -0.1866
 1336ERGO    C116403   6.378  15.312   6.985  0.1148  0.2762 -0.0651
 1336ERGO    C216404   6.323  15.196   7.297 -0.0619 -0.0270  0.0426
 1337ERGO   ROH16405  15.358  11.628   6.801 -0.1151 -0.0636  0.1407
 1337ERGO    R116406  15.383  11.776   7.041  0.1215 -0.0449  0.1073
 1337ERGO    R216407  15.259  11.700   7.276  0.0412  0.1760  0.1393
 1337ERGO    R316408  15.512  11.716   7.376  0.0809 -0.1555  0.1039
 1337ERGO    R416409  15.337  11.782   7.603  0.1952  0.4746  0.0307
 1337ERGO    R516410  15.503  11.902   7.528  0.4225  0.0733 -0.1411
 1337ERGO    C116411  15.619  11.846   7.887  0.3220  0.3371 -0.0659
 1337ERGO    C216412  15.491  11.733   8.204  0.1053 -0.1902  0.0268
 1338ERGO   ROH16413  10.186   4.440   6.246 -0.2032  0.0407  0.0134
 1338ERGO    R116414  10.080   4.364   6.497 -0.0733 -0.0175  0.0534
 1338ERGO    R216415  10.231   4.237   6.691  0.0419 -0.0328 -0.0331
 1338ERGO    R316416  10.145   4.442   6.847  0.0873 -0.0644  0.0315
 1338ERGO    R416417  10.152   4.211   7.026  0.1355 -0.0768 -0.0149
 1338ERGO    R516418   9.982   4.344   6.992  0.1337 -0.0771  0.0619
 1338ERGO    C116419  10.025   4.390   7.368  0.2325 -0.1320  0.0564
 1338ERGO    C216420   9.994   4.274   7.641 -0.0963 -0.2328 -0.1180
 1339ERGO   ROH16421   0.495   9.031   6.081 -0.0144 -0.1049  0.0045
 1339ERGO    R116422   0.496   9.066   6.362 -0.0727 -0.0637 -0.0002
 1339ERGO    R216423   0.312   8.943   6.528  0.0056 -0.1886 -0.0029
 1339ERGO    R316424   0.535   8.853   6.654  0.0664  0.0072  0.0331
 1339ERGO    R416425   0.318   8.799   6.842  0.0693 -0.2927 -0.0509
 1339ERGO    R516426   0.501   8.909   6.884 -0.0613 -0.1097  0.0420
 1339ERGO    C116427   0.531   8.631   7.143  0.1634 -0.1695 -0.0450
 1339ERGO    C216428   0.816   8.570   7.413 -0.0200  0.1297  0.0319
 1340ERGO   ROH16429  13.272   2.081   6.961  0.1302  0.2403  0.0582
 1340ERGO    R116430  13.212   2.062   7.237  0.1967  0.0802  0.0615
 1340ERGO    R216431  13.406   2.076   7.432  0.2121  0.2286  0.0275
 1340ERGO    R316432  13.248   2.274   7.531  0.0087  0.0208  0.1312
 1340ERGO    R416433  13.370   2.149   7.768  0.1868  0.0431  0.0668
 1340ERGO    R516434  13.156   2.181   7.732  0.1379 -0.1715  0.1096
 1340ERGO    C116435  13.200   2.377   8.057 -0.0187 -0.2601  0.1869
 1340ERGO    C216436  13.103   2.628   8.312  0.0784  0.2137  0.1518
 1341ERGO   ROH16437  17.941   7.558   6.654  0.0740  0.0253 -0.1157
 1341ERGO    R116438  18.018   7.552   6.926  0.0329 -0.0033 -0.1052
 1341ERGO    R216439  17.840   7.601   7.131  0.0336  0.1105 -0.1360
 1341ERGO    R316440  17.929   7.360   7.222 -0.1175  0.0650 -0.1037
 1341ERGO    R416441  17.885   7.520   7.465  0.2026  0.2174 -0.1312
 1341ERGO    R516442  18.068   7.415   7.409  0.0731  0.0247 -0.2265
 1341ERGO    C116443  17.995   7.247   7.744  0.1591  0.2370 -0.0980
 1341ERGO    C216444  17.784   7.162   7.976  0.0055 -0.1183 -0.2712
 1342ERGO   ROH16445   6.694  17.794   5.839  0.2444  0.0262  0.1841
 1342ERGO    R116446   6.849  17.737   6.069  0.1767 -0.0777  0.2053
 1342ERGO    R216447   6.813  17.869   6.309  0.1499 -0.1399  0.2384
 1342ERGO    R316448   6.786  17.617   6.407  0.0672 -0.1633  0.1547
 1342ERGO    R416449   6.842  17.783   6.642  0.2175 -0.2749  0.1977
 1342ERGO    R516450   6.949  17.604   6.581  0.1162 -0.3015  0.0979
 1342ERGO    C116451   6.833  17.497   6.928  0.1792 -0.3754  0.0954
 1342ERGO    C216452   6.870  17.550   7.248 -0.2458 -0.1065  0.0412
 1343ERGO   ROH16453  16.799   6.401   6.559  0.0061 -0.0244  0.0298
 1343ERGO    R116454  16.663   6.366   6.804  0.0401 -0.0891  0.0395
 1343ERGO    R216455  16.776   6.235   7.020  0.1209 -0.0280  0.0337
 1343ERGO    R316456  16.714   6.465   7.151  0.0131 -0.0574  0.0348
 1343ERGO    R416457  16.838   6.294   7.354  0.0955 -0.0023  0.0338
 1343ERGO    R516458  16.644   6.392   7.368  0.0482 -0.0932  0.0351
 1343ERGO    C116459  16.815   6.544   7.673 -0.0205 -0.0151  0.0350
 1343ERGO    C216460  17.101   6.637   7.847 -0.1513  0.2662 -0.1526
 1344ERGO   ROH16461   5.046   8.537   6.116 -0.0038 -0.0619 -0.0978
 1344ERGO    R116462   5.086   8.679   6.358 -0.1090 -0.0444 -0.0912
 1344ERGO    R216463   4.877   8.753   6.523 -0.1581 -0.2694 -0.0556
 1344ERGO    R316464   5.022   8.622   6.711  0.0020 -0.1408 -0.0853
 1344ERGO    R416465   4.834   8.786   6.864 -0.1898 -0.3802 -0.0479
 1344ERGO    R516466   5.050   8.781   6.887 -0.1774 -0.1353 -0.0557
 1344ERGO    C116467   4.945   8.681   7.240 -0.0580 -0.3241 -0.0712
 1344ERGO    C216468   5.039   8.725   7.579 -0.0836  0.1516  0.0014
 1345ERGO   ROH16469   4.293  11.251   6.155  0.2222  0.0914 -0.0673
 1345ERGO    R116470   4.406  11.096   6.363  0.1400  0.0031 -0.0860
 1345ERGO    R216471   4.524  11.210   6.585  0.3821 -0.0828 -0.1630
 1345ERGO    R316472   4.350  11.052   6.720  0.2523  0.1532 -0.0497
 1345ERGO    R416473   4.599  11.037   6.875  0.3167 -0.1495 -0.1868
 1345ERGO    R516474   4.483  10.869   6.797  0.0589 -0.0107 -0.1043
 1345ERGO    C116475   4.478  10.787   7.170  0.1568  0.0333 -0.0941
 1345ERGO    C216476   4.528  10.652   7.544 -0.0148  0.1542  0.1037
 1346W        W16477   1.506   4.496   4.633 -0.2095  0.2177  0.0249
 1347W        W16478  12.265  16.216   1.579 -0.0853 -0.0757 -0.0816
 1348W        W16479  13.225   8.431   1.099 -0.1843 -0.1771  0.3450
 1349W        W16480  13.721   6.878   0.298 -0.2912  0.0643  0.0752
 1350W        W16481  12.877  14.077   0.825  0.0015  0.5450  0.1583
 1351W        W16482  13.269   8.030   1.934 -0.0453  0.0014  0.0287
 1352W        W16483   9.360   8.950  15.326 -0.1247 -0.0269 -0.0694
 1353W        W16484   0.655  15.398  11.926  0.0680 -0.1913 -0.0992
 1354W        W16485  10.931   2.505  11.869 -0.1782  0.2330  0.0675
 1355W        W16486   2.027  18.159  14.889  0.1171 -0.0837  0.0329
 1356W        W16487   7.375   3.604  13.031 -0.0231 -0.4613  0.2729
 1357W        W16488  14.561  11.153   6.311 -0.3088 -0.2889  0.1674
 1358W        W16489  14.246   4.345   0.716 -0.2351 -0.1039 -0.1502
 1359W        W16490   8.060   5.063   3.311  0.3993 -0.0177 -0.2790
 1360W        W16491  12.060   9.845  11.605 -0.0916  0.0214  0.1488
 1361W        W16492   7.933   0.869  13.386  0.0199  0.2301 -0.0477
 1362W        W16493  14.628  13.115   0.132  0.0524 -0.0603 -0.2550
 1363W        W16494   7.648   1.249   2.168  0.0287  0.1224 -0.1766
 1364W        W16495   0.656  16.879  13.299  0.1074 -0.0648 -0.1428
 1365W        W16496  17.765   0.436   2.891  0.1630 -0.0818 -0.2509
 1366W        W16497   1.477  16.508  15.184  0.1249  0.1462  0.1506
 1367W        W16498   1.700   7.546   1.109 -0.1047 -0.3012 -0.1070
 1368W        W16499  11.632   1.359  15.980 -0.0444  0.3333  0.2015
 1369W        W16500  16.563   1.632  12.232 -0.0455 -0.0794 -0.0160
 1370W        W16501  13.218   7.930  11.751  0.0017  0.3914 -0.2005
 1371W        W16502   2.504  15.924   5.891  0.1763 -0.1013 -0.1045
 1372W        W16503  17.065  15.267  13.636 -0.0900 -0.3978 -0.0589
 1373W        W16504   0.336   6.255  11.288  0.0715  0.1657 -0.2396
 1374W        W16505   9.782   9.445  10.461  0.3071  0.3709 -0.0126
 1375W        W16506  14.680   2.181  13.066  0.1247  0.2718  0.1998
 1376W        W16507  12.185  12.345  11.332  0.0225 -0.1864 -0.3172
 1377W        W16508   6.020  16.793  12.214  0.0875 -0.2552 -0.3600
 1378W        W16509  14.542   6.488  13.257  0.2055  0.0267  0.0662
 1379W        W16510   6.213   5.013   4.679  0.0626 -0.2314 -0.0762
 1380W        W16511  13.958  17.375  13.169  0.0548 -0.0758  0.0643
 1381W        W16512   4.326  11.397  10.801 -0.0273 -0.0706 -0.4332
 1382W        W16513   2.658  11.207   3.103  0.3477  0.1308 -0.3446
 1383W        W16514   2.250  12.453   2.513  0.3114 -0.0709  0.1378
 1384W        W16515  15.929   9.488   2.551 -0.2282 -0.2208  0.0819
 1385W        W16516   0.414  14.046   6.351 -0.1823  0.3186  0.1918
 1386W        W16517   6.611  13.874  11.744  0.2862  0.1600  0.2020
 1387W        W16518   7.918   3.369  13.031 -0.0279  0.2953  0.0550
 1388W        W16519  16.439   8.806   0.681  0.2691  0.2024 -0.1427
 1389W        W16520  16.879  12.502   1.797 -0.1640  0.2039  0.0238
 1390W        W16521   1.909   3.605  13.591  0.1417  0.0138  0.0435
 1391W        W16522  14.902  10.550   2.531 -0.1106  0.1771  0.1542
 1392W        W16523   8.156   7.005   2.937  0.2208  0.2875 -0.0624
 1393W        W16524  10.918  10.886   0.793 -0.0911 -0.3758  0.0139
 1394W        W16525   4.720  11.544  15.397 -0.0048 -0.0631 -0.0519
 1395W        W16526   6.648   6.623   0.215 -0.2490  0.0320  0.0610
 1396W        W16527   7.099   0.903   3.553  0.1927 -0.0439 -0.2176
 1397W        W16528   0.269  17.404   5.868 -0.0260 -0.0448  0.0758
 1398W        W16529  18.136  14.836  11.777  0.0999 -0.1749 -0.1655
 1399W        W16530   1.247   5.157   1.497  0.0173 -0.2173  0.1528
 1400W        W16531  11.809   2.211   1.368 -0.1295  0.2409  0.1967
 1401W        W16532  14.303   6.074  12.358  0.0279 -0.2588 -0.1725
 1402W        W16533  13.833  10.501   2.740  0.1270 -0.1078 -0.1033
 1403W        W16534   1.681   1.444  11.485 -0.2094 -0.1575  0.0522
 1404W        W16535   6.732  15.650   3.085 -0.3778 -0.1003  0.4855
 1405W        W16536  11.833   7.966   4.685  0.0954 -0.0638 -0.0455
 1406W        W16537   2.356   1.577   0.993 -0.2029 -0.2092 -0.0517
 1407W        W16538  13.057   9.156   3.982  0.1775 -0.0126 -0.0820
 1408W        W16539   6.922  14.557   3.236 -0.1682 -0.1952 -0.2667
 1409W        W16540   9.177  17.006   5.835  0.3142  0.1487  0.2716
 1410W        W16541  18.148  11.962   5.553 -0.0492  0.0572  0.0159
 1411W        W16542   0.919  11.536   5.592  0.0131 -0.0217  0.1815
 1412W        W16543  10.195  14.034   1.770 -0.1506  0.2686  0.1971
 1413W        W16544  10.815   2.546  11.203 -0.0003  0.0385  0.1423
 1414W        W16545   5.548  13.474   4.591 -0.0096  0.0473  0.1391
 1415W        W16546   5.760   6.270  14.862  0.3044  0.1417 -0.0604
 1416W        W16547  10.575   2.778  11.596 -0.1426  0.0869  0.0389
 1417W        W16548  14.770   4.696   2.939  0.0116 -0.2807  0.5848
 1418W        W16549   7.843   3.890  16.196  0.0293 -0.0244  0.0425
 1419W        W16550  16.781   9.432   0.007  0.2487  0.1097  0.1872
 1420W        W16551  12.684  10.426  13.472  0.1044 -0.2458 -0.1803
 1421W        W16552  13.468   6.141  14.181  0.2681 -0.1294  0.3693
 1422W        W16553   0.431  17.053  16.002  0.2936 -0.0728 -0.0550
 1423W        W16554   9.483   4.602   0.364  0.1186  0.2094  0.0166
 1424W        W16555  17.605  17.708  12.938  0.1479  0.0303  0.3576
 1425W        W16556   8.585   8.410  16.079  0.4625 -0.0005  0.1727
 1426W        W16557   5.920   2.267   0.132 -0.1055  0.3210 -0.2806
 1427W        W16558  17.736   6.143  13.943 -0.3639  0.4104  0.1096
 1428W        W16559   6.736  15.935  11.313  0.0832 -0.2064  0.1298
 1429W        W16560   2.632  12.883  12.482  0.1163  0.6513 -0.2130
 1430W        W16561  12.106   6.441   5.684  0.1834 -0.1199 -0.1675
 1431W        W16562  10.332  10.190  15.631  0.0509  0.1466 -0.0569
 1432W        W16563  17.152   5.715  12.474 -0.1308  0.0354 -0.1716
 1433W        W16564   0.630   9.788   3.497 -0.2503  0.0915  0.0341
 1434W        W16565   8.589  12.144  14.878 -0.0570  0.4081 -0.2715
 1435W        W16566   7.203  16.262  15.803 -0.2834  0.1740  0.4791
 1436W        W16567  12.783  15.054  15.832  0.1039  0.0094  0.1643
 1437W        W16568  13.630   2.612   1.644  0.2149  0.2122 -0.0271
 1438W        W16569   3.682  17.784   1.510  0.2975  0.0442 -0.0905
 1439W        W16570  11.398   8.830   1.992  0.0553 -0.1608 -0.0786
 1440W        W16571   2.606  16.582  14.309  0.1359 -0.1338 -0.3335
 1441W        W16572  13.883  12.614   1.900 -0.3063 -0.1057 -0.2063
 1442W        W16573   1.594   1.115   1.422 -0.1035  0.1272  0.0663
 1443W        W16574   7.484   4.476   6.213  0.0877 -0.0880  0.1056
 1444W        W16575  13.042  15.740   3.962  0.0658 -0.1208  0.0943
 1445W        W16576   5.608  12.988  14.190 -0.1856  0.0347 -0.1330
 1446W        W16577   7.159   0.047   0.475 -0.2224 -0.0937 -0.0307
 1447W        W16578   2.412  15.342  12.805  0.0084 -0.1683  0.2568
 1448W        W16579  12.366   4.975   4.792 -0.0848 -0.2194 -0.3366
 1449W        W16580  13.857   6.013   0.393  0.0682 -0.3835 -0.1999
 1450W        W16581  12.873   5.162   1.109 -0.0698 -0.4037  0.1956
 1451W        W16582  13.764  10.994  13.367  0.0341 -0.0085  0.1798
 1452W        W16583  13.660  13.028   2.663  0.1918  0.1835 -0.1809
 1453W        W16584  11.951   3.787   5.029 -0.2779 -0.0127  0.0809
 1454W        W16585  12.830   6.231  16.212 -0.0018  0.1206 -0.1249
 1455W        W16586   8.992   5.146  15.607 -0.0128 -0.0571 -0.0381
 1456W        W16587   8.725  12.821   2.583 -0.0417  0.0506 -0.0454
 1457W        W16588  14.881   4.923   2.478  0.2085 -0.1573  0.0272
 1458W        W16589   6.089  14.731  11.534 -0.0235  0.0558 -0.0918
 1459W        W16590  10.969   7.616  15.532 -0.0900  0.0360  0.0908
 1460W        W16591  13.977   4.306   3.155  0.2722 -0.2220 -0.0021
 1461W        W16592   8.675   2.297   1.782 -0.3496  0.2433 -0.3879
 1462W        W16593  13.382  14.911  14.973 -0.1512  0.0489 -0.1508
 1463W        W16594  17.004  18.137  13.104 -0.0138 -0.2011  0.0014
 1464W        W16595  16.401   3.243   4.074  0.3554 -0.1638 -0.1530
 1465W        W16596  10.079   3.903  14.644 -0.0444  0.2708  0.0533
 1466W        W16597   3.461   4.634  15.990 -0.0758 -0.1605 -0.2011
 1467W        W16598   0.721  16.129   1.142 -0.0377 -0.1473 -0.1238
 1468W        W16599  11.776   3.840   3.380  0.3716  0.0652 -0.0075
 1469W        W16600   9.896   4.659   3.093 -0.1013 -0.1462  0.0090
 1470W        W16601   6.596  14.285  12.686  0.0723  0.1175  0.1376
 1471W        W16602  17.382  17.283   5.279  0.2223  0.2385  0.0130
 1472W        W16603  17.779  14.761  11.416 -0.0528 -0.2231  0.1045
 1473W        W16604   9.461   8.269   4.681  0.0057  0.0292 -0.2143
 1474W        W16605  16.861   4.767  13.533 -0.0833  0.2257 -0.4434
 1475W        W16606   1.970   9.210   0.839 -0.1326  0.2292 -0.0320
 1476W        W16607  14.215  10.744   5.403 -0.3036 -0.3223 -0.0556
 1477W        W16608   9.094   4.422   1.671  0.0793 -0.1689 -0.0537
 1478W        W16609  14.460   6.301   1.831 -0.3718 -0.0425  0.2987
 1479W        W16610  14.194   8.888  12.939 -0.2470  0.0581  0.1844
 1480W        W16611   3.285   3.944  12.008  0.3211  0.1488 -0.1723
 1481W        W16612   4.299  13.721   0.294  0.0189  0.2425  0.2112
 1482W        W16613   5.100   9.065   3.076 -0.2760 -0.1621  0.1770
 1483W        W16614   8.149  12.490  10.179 -0.1895  0.1143 -0.1611
 1484W        W16615   0.932   9.645  15.112  0.1811  0.0015 -0.0823
 1485W        W16616  12.204   1.725  14.600 -0.3255 -0.0033 -0.3437
 1486W        W16617   2.391  14.375  13.250 -0.2472 -0.1143  0.1891
 1487W        W16618   6.976  12.480  15.488  0.0625  0.1563 -0.1875
 1488W        W16619  10.942   6.306  13.067  0.3238 -0.0364 -0.3902
 1489W        W16620  15.975   9.731  12.796  0.0538  0.3668 -0.0650
 1490W        W16621  12.347   8.561  11.381 -0.1956  0.0299 -0.0897
 1491W        W16622   2.042   7.249   4.949  0.0294 -0.1595  0.0340
 1492W        W16623   9.403   3.171   5.604  0.2523  0.0775  0.0727
 1493W        W16624  17.885  15.617   2.436 -0.0599  0.0737  0.0263
 1494W        W16625  14.559  10.273  11.441  0.0510 -0.1500  0.4148
 1495W        W16626  14.823  17.259   1.068 -0.2775 -0.2095  0.3355
 1496W        W16627  13.743   1.189  15.161 -0.1932 -0.0669  0.1274
 1497W        W16628   4.433   0.553  13.677  0.2108  0.0510 -0.1200
 1498W        W16629  10.978  18.128   3.396 -0.1896 -0.0139 -0.0019
 1499W        W16630   5.164  17.460  15.666  0.2516 -0.0087  0.0909
 1500W        W16631   8.399  12.628   9.743  0.2205  0.0071  0.0205
 1501W        W16632   1.738   0.688   5.026  0.4621 -0.1477 -0.0350
 1502W        W16633  11.245   0.417  12.933 -0.1226 -0.1722 -0.0350
 1503W        W16634  17.614  10.395  10.613 -0.0338 -0.1305 -0.2144
 1504W        W16635  11.876   1.004   3.793 -0.1573 -0.0504 -0.0347
 1505W        W16636   3.738   1.143  10.400 -0.2420  0.0536  0.2404
 1506W        W16637  12.157   0.319   3.175 -0.0965 -0.3447 -0.0210
 1507W        W16638   4.408   6.045   1.125 -0.1532  0.0117 -0.0121
 1508W        W16639   1.886   3.890  11.576 -0.4131 -0.0356  0.0191
 1509W        W16640   1.687   0.164   4.086  0.2299 -0.1276 -0.0858
 1510W        W16641  15.075  11.041   2.367 -0.3622 -0.0922  0.2335
 1511W        W16642   0.036  12.370  11.030 -0.2686  0.0644 -0.1516
 1512W        W16643   8.004   0.279   5.669 -0.0602  0.0081  0.0570
 1513W        W16644  13.851   0.300   1.269 -0.1419 -0.2460  0.0531
 1514W        W16645   0.009  15.667  13.933 -0.0322  0.0875 -0.0427
 1515W        W16646   8.734  14.092   1.629 -0.0402  0.0760 -0.0519
 1516W        W16647  14.652  11.836   0.009  0.1508 -0.5795 -0.0435
 1517W        W16648  13.123   3.938   0.743  0.1263  0.4712  0.0742
 1518W        W16649  11.662  13.489   1.829 -0.2103  0.0306  0.4888
 1519W        W16650   2.465   4.509   5.036  0.0099  0.1992 -0.1926
 1520W        W16651  13.814  10.477  12.409  0.3662  0.0969 -0.1878
 1521W        W16652   5.342  12.661   3.498  0.1584 -0.2027  0.0230
 1522W        W16653   6.366   9.027  12.019  0.0068 -0.0052  0.2109
 1523W        W16654  16.555   5.395   2.148  0.1616 -0.2552  0.0478
 1524W        W16655   8.766  13.943  11.370 -0.1122  0.0783  0.1694
 1525W        W16656  11.247   2.101  12.944 -0.0490 -0.1279  0.0181
 1526W        W16657   3.996   8.720   3.759  0.0471 -0.0440 -0.4302
 1527W        W16658  14.218  15.795   0.774 -0.2476  0.1028 -0.2683
 1528W        W16659   9.345  10.808   2.541 -0.0966 -0.0088 -0.0675
 1529W        W16660   7.062   0.056  14.482  0.0470  0.1488  0.1948
 1530W        W16661   5.276   6.610   2.916 -0.1373  0.2606  0.2053
 1531W        W16662   8.110   7.428  14.645 -0.1800 -0.0420 -0.0713
 1532W        W16663  11.041   4.934  14.484 -0.0430  0.1793  0.0861
 1533W        W16664   4.853   5.434   9.952 -0.0592  0.2559 -0.0479
 1534W        W16665  10.196   7.323  10.041  0.0081  0.2701 -0.2288
 1535W        W16666   7.679   5.488  15.943 -0.0462  0.1848  0.0004
 1536W        W16667   8.249  11.166  14.077  0.0606  0.0740 -0.0095
 1537W        W16668   9.157   8.370   2.172  0.0490  0.1104 -0.2230
 1538W        W16669  10.666   2.135  14.583  0.0363  0.3789 -0.0992
 1539W        W16670  17.336  16.226   4.350 -0.0830  0.0173  0.0382
 1540W        W16671   3.024   1.797   3.337 -0.0480  0.1766  0.0445
 1541W        W16672  14.434   8.464   2.435  0.0904  0.0258  0.1119
 1542W        W16673   0.809   1.912   6.208  0.0916  0.1177 -0.0946
 1543W        W16674   2.060  16.777  10.978 -0.0095  0.3290  0.0883
 1544W        W16675   8.937   3.620   3.733  0.0746  0.3186  0.1054
 1545W        W16676   6.710   3.900  12.272  0.2673  0.2812 -0.1836
 1546W        W16677   0.360  17.871   5.686 -0.3998 -0.1567 -0.0706
 1547W        W16678  10.038   9.399   4.766  0.1326 -0.0716  0.1708
 1548W        W16679   4.341   4.302  13.064 -0.0521  0.0592  0.0906
 1549W        W16680   0.206  10.946  14.116 -0.0786 -0.1902 -0.0183
 1550W        W16681   5.946   8.987   4.462  0.0421  0.1016  0.0311
 1551W        W16682   1.998   7.823   4.978 -0.1066 -0.0012 -0.0744
 1552W        W16683  17.336  16.651   4.577 -0.0250 -0.1019  0.2461
 1553W        W16684   6.448  11.485  10.838  0.2200 -0.0635 -0.2457
 1554W        W16685   4.332  12.765   4.738 -0.0639  0.1028  0.0706
 1555W        W16686   5.515  12.505  15.829  0.1601 -0.0180 -0.1190
 1556W        W16687  12.007   7.128   4.351  0.2980  0.3676 -0.0657
 1557W        W16688  13.124   8.399  11.765  0.1646  0.2368 -0.1986
 1558W        W16689   0.441  16.082  13.699  0.0113  0.3331  0.1265
 1559W        W16690  11.884   9.504   1.154  0.1453 -0.0459 -0.1882
 1560W        W16691  11.104   2.733  12.458 -0.0604  0.3888  0.0595
 1561W        W16692  15.298  16.985  14.312  0.2467  0.2410  0.0985
 1562W        W16693   8.799   4.573   3.420 -0.1759 -0.0837  0.1867
 1563W        W16694   1.143  12.659   4.920  0.1106 -0.1981  0.2324
 1564W        W16695  12.319   0.430   3.672  0.0810 -0.1496 -0.0531
 1565W        W16696  15.674   5.649  10.785  0.2199 -0.0196  0.0062
 1566W        W16697  17.871  14.226  14.147  0.2494 -0.3609 -0.1404
 1567W        W16698  17.878   7.269  12.229 -0.1877  0.3230  0.1714
 1568W        W16699  14.494   9.735  10.619 -0.0286 -0.0674 -0.2461
 1569W        W16700  17.343   9.645   5.563  0.0981  0.2781 -0.1397
 1570W        W16701   6.074  11.303   2.863 -0.1367  0.0214  0.0598
 1571W        W16702   1.561   9.223  15.649 -0.0168 -0.2514 -0.0436
 1572W        W16703   0.714   4.803   0.250  0.1231 -0.1345  0.0386
 1573W        W16704   5.133  14.510  14.934  0.0716 -0.1128  0.2103
 1574W        W16705   4.856  11.335   1.809 -0.1273  0.0051 -0.3024
 1575W        W16706  14.097   1.741  11.722  0.0810 -0.1094 -0.2022
 1576W        W16707   2.053   8.343   1.511 -0.3857  0.4909  0.0483
 1577W        W16708   1.707   0.140  10.200  0.4355  0.1399 -0.0612
 1578W        W16709  17.583   9.350  12.588 -0.0780 -0.0361  0.1190
 1579W        W16710   3.040  11.758  16.035  0.0043 -0.0162  0.1504
 1580W        W16711  11.168   0.007  13.214 -0.0197  0.0376  0.1043
 1581W        W16712   7.523   4.949   4.824 -0.0435  0.1653 -0.1306
 1582W        W16713  10.031   5.135  12.841 -0.0719  0.2518  0.3343
 1583W        W16714  11.702  16.096   3.226 -0.0253 -0.0347 -0.0516
 1584W        W16715   3.081   7.892   4.076  0.0279  0.1825 -0.1488
 1585W        W16716  18.178  11.076  13.439 -0.0757 -0.1496 -0.2151
 1586W        W16717   7.967   9.693  13.047  0.0428 -0.0187 -0.0009
 1587W        W16718   3.268  13.033  15.604  0.2141 -0.2366 -0.0328
 1588W        W16719  17.889  17.535   3.975  0.1788  0.1614 -0.0413
 1589W        W16720   5.910  16.333  12.187  0.1155  0.0828  0.0465
 1590W        W16721   1.780   5.307  15.700 -0.2559 -0.0230 -0.0398
 1591W        W16722   2.698  17.495  13.208  0.2675  0.2380 -0.2131
 1592W        W16723  17.028  11.390   3.200  0.1398  0.3499  0.2271
 1593W        W16724   5.335  10.968   4.758  0.0160 -0.1745 -0.2423
 1594W        W16725  17.075   2.906  11.695 -0.0086  0.0864 -0.0205
 1595W        W16726  15.194  10.019   9.936  0.0553  0.0606 -0.0207
 1596W        W16727  16.596   8.142  11.530 -0.0888 -0.1368  0.0298
 1597W        W16728  10.045   8.562  10.631 -0.2297 -0.6506  0.1719
 1598W        W16729  13.215  10.661   2.893  0.0931 -0.1709 -0.2142
 1599W        W16730  12.676   2.636   4.827  0.2170 -0.0783  0.0557
 1600W        W16731  13.340  17.672  13.514 -0.1433  0.0648  0.1105
 1601W        W16732  14.514   4.115  14.906 -0.0245 -0.1526  0.0922
 1602W        W16733  17.752   0.661   2.460 -0.0222 -0.0554 -0.0251
 1603W        W16734   0.987  16.343   4.934  0.2177 -0.2973 -0.1025
 1604W        W16735  13.446  13.389  13.398  0.2390  0.1334  0.1967
 1605W        W16736   5.109  10.717  10.608  0.0061 -0.0988 -0.3391
 1606W        W16737  15.894  12.562  14.718 -0.2993 -0.1619 -0.1840
 1607W        W16738  17.341  16.030   1.886 -0.3558 -0.0067 -0.0301
 1608W        W16739   9.761   8.087  11.595 -0.1288 -0.1220 -0.3828
 1609W        W16740  10.898   6.023   2.689  0.0406 -0.1089  0.1793
 1610W        W16741  13.447  11.179   3.560 -0.1458  0.0132  0.0878
 1611W        W16742  11.999  15.044   3.577  0.0125  0.2291  0.2967
 1612W        W16743  10.316  14.541  12.072  0.0497  0.0779 -0.3155
 1613W        W16744   4.720   2.203   1.105 -0.3813 -0.0048 -0.1293
 1614W        W16745  14.990  17.999  14.898 -0.1218 -0.2755 -0.0570
 1615W        W16746   7.045  11.264  10.867 -0.2332  0.2205  0.2293
 1616W        W16747   4.440   0.361  10.581 -0.0441 -0.1053 -0.1645
 1617W        W16748   9.127   8.894   2.331  0.0351 -0.1756 -0.0191
 1618W        W16749   4.133  16.785   0.794  0.0691  0.2388  0.0142
 1619W        W16750  13.043   9.728  11.855 -0.2411 -0.0383 -0.1283
 1620W        W16751  13.830  14.605   3.084 -0.2509  0.0714 -0.1447
 1621W        W16752   7.490  15.695  12.070  0.0437 -0.0100 -0.0134
 1622W        W16753  12.454   7.778   3.768  0.0034 -0.0902  0.2758
 1623W        W16754  12.814  10.137   2.186 -0.4513  0.1127  0.0902
 1624W        W16755   0.179   9.633  13.507  0.1403 -0.0537  0.0441
 1625W        W16756   4.513   1.736   0.136  0.0277 -0.2982 -0.2311
 1626W        W16757  13.257   3.464   5.269  0.0383  0.0584  0.1092
 1627W        W16758  16.707   7.939   1.767  0.1398  0.0058  0.5147
 1628W        W16759  13.728   7.383   2.538  0.1666 -0.0909  0.2634
 1629W        W16760   2.273   7.728   2.947 -0.1347 -0.1629 -0.0126
 1630W        W16761  13.625  17.573  14.002  0.1516  0.2711 -0.2980
 1631W        W16762   4.707   6.853  12.404 -0.0011  0.0599  0.0907
 1632W        W16763  17.417   7.134   5.843  0.1686  0.1093  0.1144
 1633W        W16764  17.945   1.569   4.768 -0.1800  0.0583 -0.0760
 1634W        W16765  12.609  11.602  14.000 -0.0953 -0.2681 -0.0569
 1635W        W16766  15.366   6.727   3.753 -0.2291 -0.2972 -0.2724
 1636W        W16767   9.206  14.679   3.252 -0.1211 -0.4381 -0.3592
 1637W        W16768   4.706   2.697  12.802 -0.0981  0.1262 -0.0853
 1638W        W16769  14.979  16.707  15.942 -0.0205 -0.1522  0.3928
 1639W        W16770   0.317  15.331  15.438  0.0748  0.0703 -0.0611
 1640W        W16771   3.392  16.442  13.195  0.0479 -0.1588  0.0817
 1641W        W16772   0.201   6.533  11.761  0.0878  0.1141  0.4388
 1642W        W16773  14.798   7.089   5.758 -0.0131 -0.1115  0.0537
 1643W        W16774   8.125  18.068   3.865 -0.0178  0.2049  0.0481
 1644W        W16775  14.716   9.347  15.282  0.0918  0.1212 -0.0645
 1645W        W16776  17.804   6.967   1.820 -0.0854 -0.1731 -0.2761
 1646W        W16777   5.237  11.950   0.113 -0.2816  0.1197 -0.2040
 1647W        W16778  17.261   7.547   2.795  0.0351  0.0108 -0.0033
 1648W        W16779   5.044  14.784   4.475  0.2056  0.0701  0.0402
 1649W        W16780  14.981   8.577   1.479 -0.1176  0.1746 -0.3024
 1650W        W16781  14.193  10.334  15.051  0.0598 -0.0508 -0.0525
 1651W        W16782  17.734  16.076   0.272  0.0356  0.1751 -0.1688
 1652W        W16783  11.448   6.283   1.112 -0.1373 -0.0518  0.1417
 1653W        W16784  10.112   8.609   0.068  0.1640 -0.1041 -0.0700
 1654W        W16785  16.107  15.925  15.545  0.2155 -0.0911  0.2994
 1655W        W16786  10.644   1.682   2.792 -0.2482  0.2801 -0.0162
 1656W        W16787   3.154   3.341  12.095 -0.0897  0.1597  0.0800
 1657W        W16788   9.432  14.091   4.971  0.0397  0.2031  0.0251
 1658W        W16789   6.141  14.588  12.517  0.3711 -0.0461 -0.1837
 1659W        W16790   8.434   7.124  15.940  0.3030  0.1207  0.0750
 1660W        W16791   7.648  12.497  10.931  0.1415 -0.0253  0.0068
 1661W        W16792   2.608  10.888  13.516 -0.1499 -0.2494  0.2700
 1662W        W16793  11.745   6.406  13.875 -0.0017  0.1003  0.0004
 1663W        W16794   1.957   6.203   3.057  0.2310  0.0473 -0.2075
 1664W        W16795  16.416  14.242   3.656  0.0502  0.1415 -0.1971
 1665W        W16796   6.239   3.932   3.713 -0.0414 -0.1117 -0.3798
 1666W        W16797   3.260   9.858  10.970 -0.0364  0.0809 -0.0008
 1667W        W16798  13.125  11.161  12.431 -0.0175 -0.0694  0.3274
 1668W        W16799   4.474   6.963   3.280  0.2524  0.1506  0.1346
 1669W        W16800   6.541  17.307  13.701 -0.0088 -0.0634 -0.0166
 1670W        W16801  12.320   7.527  11.450 -0.1697  0.3021 -0.0751
 1671W        W16802  16.768   8.595  14.490 -0.1186 -0.0569 -0.0730
 1672W        W16803   6.864  13.950   0.479  0.1903  0.1178 -0.2506
 1673W        W16804  11.208  11.941  14.784 -0.1318 -0.0236 -0.2911
 1674W        W16805  13.360  12.719   4.853 -0.1446  0.0624 -0.0946
 1675W        W16806   2.478  13.900   3.575  0.0774 -0.1231  0.0006
 1676W        W16807   4.122   3.806  12.323 -0.3585  0.1945 -0.3887
 1677W        W16808   3.325   9.416  12.958  0.1594 -0.1556  0.1003
 1678W        W16809   9.650  12.618  13.254  0.2513 -0.2627 -0.0297
 1679W        W16810   9.996  10.332  15.263 -0.1235  0.0513 -0.0833
 1680W        W16811   3.490  14.358   2.732 -0.0890 -0.0367 -0.0068
 1681W        W16812  15.335  11.497  14.068  0.2233 -0.0624 -0.1467
 1682W        W16813  17.827   6.420  14.375 -0.1918 -0.0242 -0.1194
 1683W        W16814  15.280   6.495  16.079  0.1145  0.1919  0.3177
 1684W        W16815   2.232  12.695  12.698 -0.0518  0.0187  0.0675
 1685W        W16816   1.662  11.727   4.204  0.1413 -0.0172  0.1760
 1686W        W16817  16.446   0.013  14.921 -0.0438 -0.1926  0.2799
 1687W        W16818   8.333  18.074  14.119  0.2231  0.2817  0.0475
 1688W        W16819   7.281   1.467  14.144  0.3697 -0.0016 -0.2795
 1689W        W16820  11.706   2.824   4.819  0.2399 -0.0980 -0.0044
 1690W        W16821   2.610   6.916  14.511  0.3072  0.0235 -0.0355
 1691W        W16822   3.490   8.806   1.781  0.3909  0.0248 -0.0315
 1692W        W16823   6.989  10.879  11.326 -0.0372  0.1016  0.0894
 1693W        W16824  16.477   1.753  10.021 -0.0110 -0.0613 -0.1445
 1694W        W16825  13.268  11.056  11.804  0.1550 -0.1499  0.0273
 1695W        W16826   7.359   2.281   5.351  0.1248  0.2356  0.0793
 1696W        W16827   0.061  11.943  11.261  0.0797 -0.0833  0.1875
 1697W        W16828   6.679  14.803   0.472 -0.0414  0.1632  0.1592
 1698W        W16829   0.047   1.365   0.838  0.2682  0.1493 -0.0688
 1699W        W16830   2.444  16.239  10.685  0.3071  0.0776  0.1297
 1700W        W16831  15.582  18.146   1.528 -0.1720  0.0094 -0.0538
 1701W        W16832  13.158   1.925   3.300  0.2603  0.1072 -0.0342
 1702W        W16833   7.406  10.260   1.379 -0.0580 -0.1072 -0.1066
 1703W        W16834  12.637   1.221  12.157 -0.0154 -0.0459 -0.2288
 1704W        W16835   6.465  13.101  13.336 -0.0650  0.0997  0.3001
 1705W        W16836   0.311   8.321   5.678 -0.3086 -0.2751  0.1583
 1706W        W16837   0.935   3.271   4.824  0.0142  0.0818  0.0786
 1707W        W16838  16.453   7.315  13.061  0.6292 -0.1370 -0.1105
 1708W        W16839   8.054  11.172  13.634  0.1013 -0.1637  0.1493
 1709W        W16840   8.525   8.148  11.727  0.2526 -0.3100 -0.0198
 1710W        W16841   2.408   5.540   0.074 -0.0244 -0.0102  0.1072
 1711W        W16842   9.506  12.699   4.545 -0.0109 -0.1898 -0.0596
 1712W        W16843  12.806   9.864   2.599  0.0497  0.2761  0.3622
 1713W        W16844   5.954   8.256   2.876 -0.0134 -0.0119  0.3700
 1714W        W16845   0.443  14.566  15.982 -0.0440 -0.0155  0.3721
 1715W        W16846  17.690   2.539   0.049 -0.1361  0.1192  0.1047
 1716W        W16847   0.647  14.066  11.633  0.0629  0.3031 -0.0215
 1717W        W16848  12.353  13.025   5.859 -0.2404 -0.0155  0.3180
 1718W        W16849  17.885   4.998  12.615  0.1002  0.0348  0.2602
 1719W        W16850   2.360   4.816  14.229  0.0825 -0.1676 -0.4552
 1720W        W16851  18.040   3.311  12.128  0.1737 -0.1469  0.1544
 1721W        W16852   2.912  16.855   4.195 -0.1125  0.1136 -0.0738
 1722W        W16853   6.632  15.700  10.142 -0.0448 -0.1099 -0.0287
 1723W        W16854   8.158  14.212  13.464 -0.1196 -0.0917  0.1303
 1724W        W16855  16.483  17.022  12.223 -0.0162  0.3063 -0.1749
 1725W        W16856   6.279   3.013   3.071  0.1311 -0.0140 -0.2879
 1726W        W16857  10.185   1.892   0.589  0.0875  0.0559  0.1029
 1727W        W16858   7.087  17.617   3.727  0.3860  0.1838 -0.0733
 1728W        W16859   9.884  12.028   0.881 -0.1144  0.0444  0.2802
 1729W        W16860   2.766   6.167   4.824  0.1072 -0.1599 -0.0455
 1730W        W16861   0.154  17.539  14.434 -0.1571  0.0726 -0.0356
 1731W        W16862   0.017   5.598   5.489  0.0796  0.0638  0.0167
 1732W        W16863   2.897   8.630   0.838 -0.3330 -0.3306 -0.2654
 1733W        W16864  13.853  17.365   3.862  0.3307 -0.2297  0.1010
 1734W        W16865  12.556  15.394   6.139  0.3332  0.3417 -0.2369
 1735W        W16866  14.888   9.854  11.688 -0.0455  0.0306  0.0043
 1736W        W16867  13.775  13.510  14.117  0.1894  0.2437  0.0147
 1737W        W16868  12.649   6.608   2.842  0.0732  0.0788  0.1909
 1738W        W16869  18.158   5.320   4.743 -0.0051  0.0687  0.3040
 1739W        W16870   9.776   0.089   4.031  0.0896 -0.0938  0.1322
 1740W        W16871  17.470  14.773   0.017  0.0297 -0.1369 -0.0634
 1741W        W16872  12.686   1.535   5.720 -0.1937  0.0768 -0.1093
 1742W        W16873   0.216  12.578  11.956  0.2315 -0.1399 -0.2728
 1743W        W16874  13.210  10.449  13.583  0.1154 -0.2254  0.2197
 1744W        W16875   2.781   7.262  14.104  0.1227 -0.0180 -0.1512
 1745W        W16876   6.522  17.745  12.825  0.0639  0.0026  0.2861
 1746W        W16877  16.866   3.442  13.546 -0.1807 -0.0762  0.0717
 1747W        W16878  12.908   8.701   3.781 -0.0146  0.2934 -0.1215
 1748W        W16879   1.092   1.660  13.283  0.2652  0.1584  0.1611
 1749W        W16880   9.888   6.902   5.039 -0.1672 -0.0593  0.5421
 1750W        W16881   6.348   4.082   3.228  0.2976  0.2555 -0.0029
 1751W        W16882  13.173  15.863   1.192 -0.2779 -0.0005 -0.4387
 1752W        W16883   4.285  11.666  15.484  0.1674 -0.2718 -0.1545
 1753W        W16884   5.426  10.407  14.795 -0.2789 -0.0798 -0.4262
 1754W        W16885   9.615   1.046   3.129  0.1380 -0.2512 -0.1988
 1755W        W16886   2.888  10.078  10.770  0.0747  0.1571 -0.0562
 1756W        W16887   3.997   5.868  14.599  0.0274 -0.2004  0.1223
 1757W        W16888   8.092  12.422   2.763  0.1115 -0.2449  0.2403
 1758W        W16889  11.050  15.119  11.430  0.3971  0.1329 -0.1208
 1759W        W16890   7.668   9.703  14.532  0.2507  0.1679  0.0029
 1760W        W16891   3.242   5.413   2.459 -0.0470  0.2185 -0.2178
 1761W        W16892  17.564  12.621  16.135 -0.0492 -0.1634 -0.2169
 1762W        W16893   0.879   8.769  12.817 -0.0050  0.0111  0.1312
 1763W        W16894   3.094  17.777   4.391  0.0805 -0.0942 -0.0264
 1764W        W16895   8.572   9.166   0.960  0.1727 -0.2544 -0.0307
 1765W        W16896  10.140   4.248   4.710  0.2062  0.2279  0.3369
 1766W        W16897  12.146   8.475   1.819  0.0191 -0.2061  0.2161
 1767W        W16898   9.484  11.013  14.791 -0.1690 -0.2885  0.5216
 1768W        W16899   6.828   3.799   3.668  0.1105  0.0751  0.0964
 1769W        W16900   7.643   5.037   3.008  0.1492 -0.0984 -0.1749
 1770W        W16901   6.931   8.452  10.115  0.0224 -0.1799 -0.0206
 1771W        W16902   2.823   2.576  10.701 -0.1182  0.1191  0.0967
 1772W        W16903   0.325   7.327   4.393 -0.1298 -0.1346  0.1088
 1773W        W16904   7.450  10.719  15.745 -0.0011 -0.1080  0.0829
 1774W        W16905  13.367   7.016   1.668  0.2226  0.0706 -0.2189
 1775W        W16906   2.439  17.463   0.666 -0.1268 -0.2037 -0.1447
 1776W        W16907  13.242   1.989  10.611 -0.1525  0.0201  0.0652
 1777W        W16908   8.783  10.487   3.154 -0.3102 -0.3711 -0.0085
 1778W        W16909  14.550  15.101  14.649  0.0527  0.0630  0.0374
 1779W        W16910  12.324   1.055  15.008  0.2244  0.1041  0.0915
 1780W        W16911   9.074   7.903  12.345 -0.2978 -0.0581  0.1593
 1781W        W16912  13.819   4.369  15.634 -0.1682  0.0069 -0.0916
 1782W        W16913   3.802   3.413   4.086  0.0745 -0.1416  0.0566
 1783W        W16914   3.471  15.771   0.784 -0.0861  0.0006  0.2108
 1784W        W16915   7.847  13.015   2.165 -0.0456  0.4406  0.2762
 1785W        W16916  10.754  13.263  11.723  0.0668  0.0854  0.1856
 1786W        W16917  17.912  13.709   4.717 -0.0008  0.1589 -0.0405
 1787W        W16918   9.251  12.000   2.912 -0.0649  0.3222 -0.0757
 1788W        W16919   5.815  17.845  13.628  0.0644 -0.2302 -0.0275
 1789W        W16920  14.631  14.437  14.161 -0.1278 -0.0641 -0.2629
 1790W        W16921   2.342  11.874   5.416  0.2776  0.3411  0.0073
 1791W        W16922  16.909  12.917  15.108 -0.0361  0.0164 -0.0080
 1792W        W16923   1.556  16.647   0.290 -0.1069  0.1703  0.0783
 1793W        W16924  11.671   6.684  12.044  0.2090  0.4751 -0.1149
 1794W        W16925  14.198  16.600   5.604 -0.3742  0.0937  0.0003
 1795W        W16926   4.822  16.989   3.974 -0.0034 -0.1662  0.3262
 1796W        W16927  10.881  16.365  10.313 -0.1535 -0.0324 -0.0878
 1797W        W16928  13.628  15.188  11.616  0.2451  0.1260 -0.1534
 1798W        W16929  13.456  17.968  13.107 -0.1020 -0.1645  0.0230
 1799W        W16930  12.702   6.020  14.787 -0.1854  0.1769  0.0359
 1800W        W16931  16.133   2.893   3.712  0.0106 -0.1775  0.2832
 1801W        W16932  16.594  10.133  14.896  0.1088  0.1432  0.2433
 1802W        W16933   8.720   6.834   0.822  0.0891 -0.1377  0.0433
 1803W        W16934   0.657   4.536  13.874  0.3623 -0.1560  0.1894
 1804W        W16935  14.785   4.288   4.321 -0.1192 -0.0525 -0.1910
 1805W        W16936   6.129   8.486   3.291 -0.2705 -0.3783  0.1662
 1806W        W16937  11.177  10.565   2.333  0.0710  0.0606 -0.1642
 1807W        W16938  14.204   6.489  14.523 -0.0768  0.1939 -0.1991
 1808W        W16939   4.703   1.840  14.230 -0.0585 -0.4346 -0.2058
 1809W        W16940  17.476  10.598   2.798  0.0023 -0.0793 -0.0260
 1810W        W16941   5.472   4.174  11.714 -0.2048  0.0248  0.3754
 1811W        W16942  11.896   0.084  11.150 -0.1126 -0.1947  0.1432
 1812W        W16943  15.210  10.622  12.149  0.2312  0.2481 -0.1508
 1813W        W16944   5.378   3.698   0.104  0.1437 -0.1096  0.0475
 1814W        W16945   2.676  18.100   3.654 -0.0261  0.0104 -0.0562
 1815W        W16946   3.825  16.961  15.539  0.1136  0.0018  0.1861
 1816W        W16947   2.855  16.178  16.055 -0.0633 -0.0117 -0.2899
 1817W        W16948   9.775   3.021  10.456 -0.0975 -0.2815 -0.1294
 1818W        W16949   8.262  14.344   1.883 -0.2667  0.0736 -0.1904
 1819W        W16950  11.232  12.053  10.650  0.0893  0.0703 -0.2708
 1820W        W16951   8.862  16.505  14.605  0.2027  0.2959 -0.0708
 1821W        W16952  14.077   1.105   5.786  0.2606  0.2494  0.0155
 1822W        W16953   7.348  16.133  12.292 -0.1517 -0.3270  0.1050
 1823W        W16954  11.534   5.768   6.227 -0.2182  0.2140 -0.0014
 1824W        W16955  11.809  13.290   0.491  0.0325  0.1725 -0.0627
 1825W        W16956  15.651  11.153   1.888  0.0290  0.0180 -0.0658
 1826W        W16957   0.801   3.033  15.085 -0.0029  0.3172 -0.0656
 1827W        W16958   9.253  14.173   1.583 -0.2833  0.1738  0.0056
 1828W        W16959  16.363   9.293   0.468  0.1464 -0.0961 -0.1534
 1829W        W16960   3.673   6.597   2.193 -0.3030  0.3894  0.1895
 1830W        W16961   7.135   4.964  15.632 -0.0518  0.0416  0.3149
 1831W        W16962   5.627   8.112   2.004 -0.1062 -0.1583  0.1438
 1832W        W16963  15.527   5.895  10.153 -0.0427 -0.0177 -0.1841
 1833W        W16964   9.397  13.304  11.752 -0.0313  0.3696 -0.0048
 1834W        W16965   2.851   0.445  16.132 -0.0156 -0.1216  0.2836
 1835W        W16966  12.166  12.740   3.692 -0.0105  0.0400  0.2302
 1836W        W16967  15.696   6.541  11.253  0.2000  0.1754 -0.0819
 1837W        W16968   1.101  17.200  12.364  0.4243  0.0267 -0.0625
 1838W        W16969  13.609   2.680  15.945 -0.0864 -0.0455 -0.2045
 1839W        W16970   5.194   5.945  11.550 -0.1025 -0.0876  0.1194
 1840W        W16971   6.657   0.011  14.099  0.3485 -0.1645 -0.1741
 1841W        W16972   1.914  11.008   0.184  0.2973  0.2053 -0.0476
 1842W        W16973  17.039  12.575   4.415 -0.2628 -0.1214 -0.0084
 1843W        W16974  13.072   9.625  16.021 -0.1383  0.0771 -0.0145
 1844W        W16975   6.451  13.110  15.175 -0.2612 -0.1412 -0.0551
 1845W        W16976  17.113   2.218  13.404 -0.0511  0.1340 -0.2341
 1846W        W16977  16.850   5.023  15.127  0.1758  0.3665 -0.2742
 1847W        W16978   3.262  13.517  14.129 -0.2281 -0.2414  0.3921
 1848W        W16979   0.912   2.531  15.967  0.2473  0.1610  0.1860
 1849W        W16980  17.004   0.600  11.359 -0.0955 -0.0847 -0.0753
 1850W        W16981  16.731   7.670  11.719  0.1073  0.1921  0.3607
 1851W        W16982   9.861  13.070   1.882  0.1221  0.1072  0.2310
 1852W        W16983  10.267  13.794   9.705 -0.2354 -0.0604 -0.0155
 1853W        W16984  10.819   7.108   0.420  0.2371  0.5396 -0.0044
 1854W        W16985   1.843  17.507  11.401 -0.1485 -0.1879 -0.0711
 1855W        W16986   0.209   8.429   2.982  0.0662  0.0116  0.0405
 1856W        W16987  13.779  14.815  14.688  0.2093 -0.1495  0.1044
 1857W        W16988   4.308  10.985   4.034  0.2682  0.0731  0.2324
 1858W        W16989  16.163  13.341   3.289  0.0296  0.1243 -0.0087
 1859W        W16990  16.195   3.952   1.774 -0.0142  0.0164 -0.3436
 1860W        W16991   9.263  13.757   2.420 -0.0381  0.0169  0.0563
 1861W        W16992  10.584   2.939   4.600  0.4620  0.1025  0.2162
 1862W        W16993  12.373  10.573   0.650 -0.0871 -0.4238  0.2675
 1863W        W16994  16.565   4.097  14.179  0.0618 -0.1774 -0.0211
 1864W        W16995  14.748  11.162   3.663  0.1598 -0.0215  0.0601
 1865W        W16996  14.930  13.572  13.718  0.0022 -0.0386 -0.1504
 1866W        W16997   8.161  13.171  14.135 -0.0168 -0.3703 -0.1151
 1867W        W16998   1.803   2.410   4.229 -0.0034  0.0728  0.1159
 1868W        W16999  12.467   0.860   2.234  0.0522  0.0881 -0.3304
 1869W        W17000   8.509   7.629  14.483  0.0542 -0.1713  0.0674
 1870W        W17001  13.332   7.413   4.266  0.4241  0.1709  0.0296
 1871W        W17002   5.059  11.078  12.674 -0.0166 -0.1608  0.1226
 1872W        W17003   4.486  10.006  13.394 -0.1763  0.2973  0.0686
 1873W        W17004  16.453  14.834   4.970  0.1050 -0.1890  0.0404
 1874W        W17005   3.437   4.640  13.566 -0.0583 -0.0249 -0.0964
 1875W        W17006  10.514  13.897  12.229 -0.1709 -0.1127 -0.0550
 1876W        W17007  17.448   3.387   4.023 -0.0731  0.0056 -0.0065
 1877W        W17008   3.708  11.510   9.810 -0.2616 -0.0108 -0.3166
 1878W        W17009   7.388   6.777  11.401  0.0476 -0.2550  0.0406
 1879W        W17010  16.587   7.638   2.645 -0.5005 -0.1067 -0.0789
 1880W        W17011   6.995  15.612  12.364  0.1081  0.0693 -0.0927
 1881W        W17012   7.506   5.982   2.786 -0.1409  0.2743  0.0654
 1882W        W17013   0.994   1.738   4.925  0.1237 -0.0915 -0.1675
 1883W        W17014   4.634  11.744   0.257  0.1504  0.1514  0.0944
 1884W        W17015   2.600  14.617  10.907 -0.2477  0.0659  0.0835
 1885W        W17016   3.055   3.903   0.034  0.1212  0.1538  0.3438
 1886W        W17017   4.637  16.344  12.078  0.1387  0.1682 -0.0615
 1887W        W17018  16.026  12.966   2.991 -0.1492  0.3390 -0.1680
 1888W        W17019  17.318  12.623   1.592 -0.1624  0.0773  0.0253
 1889W        W17020  12.744  11.925  15.770  0.2212  0.0546  0.0115
 1890W        W17021  16.041   8.399   2.945  0.0940  0.0146  0.1385
 1891W        W17022  16.817   1.933  14.210  0.0813  0.1290 -0.0032
 1892W        W17023  17.875  15.798  11.858 -0.2545  0.1360  0.0928
 1893W        W17024  12.360   3.505   4.273  0.1491 -0.1668  0.0637
 1894W        W17025  13.417   0.092  15.742 -0.0828  0.2742 -0.2344
 1895W        W17026  12.572  12.482  11.005  0.2121 -0.0353 -0.0782
 1896W        W17027   1.219   2.107   0.181  0.0925 -0.0111 -0.0790
 1897W        W17028   6.328  10.177  16.030 -0.0954  0.1912 -0.2557
 1898W        W17029   4.723  12.551  14.326  0.1418 -0.1278 -0.1016
 1899W        W17030   5.826   0.172  14.655  0.2628 -0.0688 -0.1589
 1900W        W17031  17.821   9.812  12.611 -0.0954  0.0751 -0.2433
 1901W        W17032  14.051  18.056   3.331 -0.4294  0.0677 -0.0405
 1902W        W17033  11.286   2.593   2.119  0.0302  0.0369 -0.0731
 1903W        W17034  14.725  14.963  12.956 -0.0083  0.0500  0.3561
 1904W        W17035   3.628   6.567   3.992 -0.2073  0.2048 -0.1443
 1905W        W17036  16.603   8.297  12.358  0.0817  0.0070  0.0957
 1906W        W17037   9.334  12.261  16.087 -0.1502 -0.3123 -0.3114
 1907W        W17038  16.371  11.317  11.999 -0.0741  0.0582 -0.1056
 1908W        W17039   6.827   0.464   3.879 -0.1897  0.2582 -0.0548
 1909W        W17040   7.112  17.946   1.179  0.0676 -0.0102  0.0674
 1910W        W17041   0.753   9.209   2.340  0.0104 -0.0971 -0.0205
 1911W        W17042  15.669   5.392   0.876  0.0935  0.1069 -0.2770
 1912W        W17043   0.311   0.786  15.668  0.0785  0.0098  0.0845
 1913W        W17044  17.210  17.409  11.407  0.1292 -0.0319 -0.2271
 1914W        W17045   5.001   7.337   4.869 -0.1057 -0.3251 -0.1249
 1915W        W17046   2.529   2.208  12.268 -0.4135  0.1386  0.1383
 1916W        W17047   8.246   7.083   1.112 -0.3014  0.1341  0.0406
 1917W        W17048   6.102  11.715  15.004 -0.3186  0.1504  0.1321
 1918W        W17049   3.614  10.650   3.392  0.2155  0.1626  0.1520
 1919W        W17050   8.415   9.443  10.419 -0.0539 -0.0544  0.2039
 1920W        W17051  14.285   9.298   2.378 -0.1481 -0.0169 -0.1173
 1921W        W17052  15.598   4.648  11.355 -0.2516 -0.0653 -0.1635
 1922W        W17053   5.038   7.650   2.922  0.0981 -0.2334  0.4457
 1923W        W17054   6.974  12.523   2.849 -0.2813  0.0431 -0.1465
 1924W        W17055   6.170   3.868   0.667  0.0653 -0.2468 -0.1503
 1925W        W17056   8.930   1.812   9.992 -0.1794 -0.0599  0.1558
 1926W        W17057  15.957   9.088   0.574 -0.0556 -0.2338  0.0738
 1927W        W17058   2.646  12.017  11.901  0.2136  0.2187  0.2933
 1928W        W17059   1.624   7.398  10.872  0.0949  0.0584  0.1541
 1929W        W17060  11.985   6.162  16.125  0.0540  0.1895  0.2018
 1930W        W17061  15.030   9.873   4.800  0.0414 -0.0235 -0.1030
 1931W        W17062  10.053  14.259  11.711  0.2208  0.0283 -0.1377
 1932W        W17063   0.888  11.799   3.454 -0.0798 -0.0108 -0.1133
 1933W        W17064  10.912  11.053   2.115 -0.2981 -0.2111 -0.3510
 1934W        W17065   8.419  10.138   3.418 -0.0825 -0.2322  0.1798
 1935W        W17066  10.655   8.460   0.786 -0.2284  0.1603  0.2008
 1936W        W17067  16.236   7.368  15.464  0.1401  0.4860 -0.4451
 1937W        W17068   1.711   1.142  13.680 -0.1759 -0.2782 -0.1694
 1938W        W17069  17.660   5.349   4.747 -0.0657 -0.0404  0.0819
 1939W        W17070  10.044   8.815  14.644  0.2292  0.0551  0.3054
 1940W        W17071  10.047  12.943  10.694  0.2205 -0.0694  0.0001
 1941W        W17072   8.315  10.759   4.818  0.0737 -0.1621  0.0212
 1942W        W17073   3.374   2.936  14.762 -0.4208 -0.1777 -0.0907
 1943W        W17074   8.423  15.414  12.188 -0.1321 -0.2226  0.0720
 1944W        W17075   7.846  17.955   3.232  0.3737 -0.2674 -0.1893
 1945W        W17076  17.327   4.862   0.449 -0.2076 -0.2149  0.2840
 1946W        W17077   1.877   6.417  14.714  0.2410 -0.0481 -0.0557
 1947W        W17078   1.161   1.844   1.294 -0.0906 -0.0076  0.0064
 1948W        W17079   5.535   6.805  12.075  0.1079  0.3122  0.3115
 1949W        W17080  16.090  10.003   2.675 -0.0880  0.1003 -0.2630
 1950W        W17081  12.896  13.205  11.560 -0.1068 -0.2046  0.1803
 1951W        W17082   5.533  11.127   2.827  0.0774 -0.0431 -0.0845
 1952W        W17083   4.950   9.447   1.384  0.0995 -0.2794 -0.0483
 1953W        W17084   1.144   3.508   3.161 -0.1699 -0.1523  0.1903
 1954W        W17085   5.424   6.668  16.125 -0.0473  0.0340 -0.2636
 1955W        W17086  14.090  10.106  11.510 -0.1006 -0.3026 -0.4007
 1956W        W17087  12.980   3.278   0.325 -0.0114 -0.0714  0.0532
 1957W        W17088  15.495   8.379  12.972  0.0424  0.2270  0.0626
 1958W        W17089   6.185  10.835  15.079  0.1149  0.1393 -0.2948
 1959W        W17090  15.876   6.972  10.944 -0.2398 -0.2860  0.1450
 1960W        W17091  12.231  15.217  14.687 -0.0330  0.0760  0.1446
 1961W        W17092  14.837   2.716   5.477  0.1763 -0.0768  0.1541
 1962W        W17093   4.654  10.010  10.733 -0.0459 -0.0727  0.1109
 1963W        W17094  16.050  10.051  15.506  0.0320 -0.0832  0.1509
 1964W        W17095   1.347   4.605  11.377  0.3062  0.1519  0.2001
 1965W        W17096   8.986   6.400  14.046  0.0487 -0.4569 -0.1361
 1966W        W17097   2.089   5.215   0.253  0.3420  0.0463  0.0311
 1967W        W17098  15.569   0.966  11.997 -0.1539 -0.0217  0.0396
 1968W        W17099  11.138   2.279  10.069 -0.0842 -0.1712 -0.0596
 1969W        W17100  14.884   8.492  16.013  0.1655  0.2210 -0.0981
 1970W        W17101  14.922   3.760  14.651  0.3363  0.0409 -0.0977
 1971W        W17102  13.212   4.296   1.225 -0.0257 -0.1313  0.0331
 1972W        W17103  13.508  12.010   4.853  0.2975  0.1434  0.0026
 1973W        W17104   7.884  12.754   3.079 -0.0947 -0.3633 -0.1267
 1974W        W17105  16.258  14.720   3.530 -0.3541 -0.2324  0.1383
 1975W        W17106  10.321  16.231   1.618 -0.0318  0.2974  0.0838
 1976W        W17107   2.747   2.583  14.069 -0.0378 -0.2010 -0.0143
 1977W        W17108   4.690   3.442   0.834  0.3478  0.0656  0.3230
 1978W        W17109   3.125  12.106  10.719 -0.1316 -0.0992 -0.1013
 1979W        W17110   3.269  10.216   5.142  0.0202 -0.1556  0.0876
 1980W        W17111   4.297  14.086   1.241 -0.0024  0.0351 -0.0380
 1981W        W17112   1.667  14.759   0.727  0.2014 -0.0949  0.1254
 1982W        W17113  10.204   0.138   2.117  0.0800 -0.2313 -0.0857
 1983W        W17114   4.117   0.387   9.864 -0.1269  0.2315 -0.1329
 1984W        W17115   6.129   1.695  12.969  0.2048 -0.1807  0.1918
 1985W        W17116  17.459   1.460   5.183  0.0472  0.0296  0.0350
 1986W        W17117  18.067   2.170  15.566  0.0332 -0.1616  0.0490
 1987W        W17118   2.333   3.904  13.790  0.0445  0.1111  0.2168
 1988W        W17119   6.226   1.837   2.969  0.3150  0.2455 -0.0927
 1989W        W17120   9.634  11.201   2.523 -0.1170 -0.4175 -0.0387
 1990W        W17121   5.694  13.783   1.455 -0.3759  0.1311 -0.1093
 1991W        W17122  12.702  11.747  13.026 -0.5587 -0.3009  0.1843
 1992W        W17123  10.233   7.097   1.210  0.0615 -0.3993  0.1973
 1993W        W17124  15.188   0.375  12.498 -0.2184 -0.2085  0.0070
 1994W        W17125  13.425  13.364   3.560 -0.1807 -0.3409 -0.1640
 1995W        W17126   8.977  15.597  15.391 -0.0286 -0.1468 -0.0929
 1996W        W17127  14.087   1.203  10.938  0.1445 -0.1603  0.2070
 1997W        W17128  12.084   0.223  13.454  0.0431  0.0047 -0.0667
 1998W        W17129  15.581  17.861  15.795  0.2252  0.2582 -0.0415
 1999W        W17130   5.171  10.043  13.847 -0.0468 -0.1053  0.1242
 2000W        W17131  10.395  14.785  13.446 -0.1299 -0.2356  0.0339
 2001W        W17132   1.663  12.092   6.245 -0.1573  0.1245  0.0385
 2002W        W17133   6.805  13.450  15.251  0.0367 -0.1550  0.0272
 2003W        W17134   1.883   1.414   1.144  0.1672  0.0274  0.2308
 2004W        W17135  16.524  12.944   5.235 -0.0668 -0.0735  0.1520
 2005W        W17136   1.755   5.353   5.067 -0.0600  0.0533 -0.1390
 2006W        W17137   8.154   7.193  12.066  0.0517  0.1796  0.0245
 2007W        W17138  14.013   9.489  10.907 -0.1096 -0.1177 -0.1109
 2008W        W17139  17.123   3.095   0.053  0.0460  0.3319 -0.2656
 2009W        W17140   7.418   8.701  13.021 -0.0690  0.1754  0.2073
 2010W        W17141  14.600   8.664   0.182  0.1811 -0.1382 -0.4342
 2011W        W17142   8.174   5.548  12.489 -0.2237 -0.1929  0.0455
 2012W        W17143   0.363   2.024   4.303 -0.1834  0.0535  0.1769
 2013W        W17144   8.081   2.684   4.470 -0.0791  0.0898 -0.2149
 2014W        W17145   1.291   5.268  13.953  0.0055 -0.0202  0.1041
 2015W        W17146   2.811   8.239  12.195  0.1524  0.1334  0.2012
 2016W        W17147   3.032   5.219  11.820 -0.1365 -0.1664 -0.2580
 2017W        W17148   2.722   0.087   1.684 -0.2381  0.1922 -0.0963
 2018W        W17149   6.471   8.114   2.603  0.4114  0.0400  0.3275
 2019W        W17150   1.947   6.866  13.639  0.1068  0.1815 -0.0691
 2020W        W17151  13.832  13.204  11.592  0.1116  0.3437  0.1565
 2021W        W17152   1.178  15.686  13.521  0.1286 -0.2873 -0.0199
 2022W        W17153   7.554  15.832   4.791 -0.1510 -0.5128  0.0378
 2023W        W17154  17.787   6.909   4.903 -0.0536 -0.1982 -0.1329
 2024W        W17155  10.391  17.442  10.939  0.3102 -0.3426 -0.3205
 2025W        W17156   1.669   2.961   5.361  0.1231  0.0831 -0.1349
 2026W        W17157  13.103   7.839   3.582 -0.1652  0.1367  0.2396
 2027W        W17158  14.100   9.277   2.901 -0.2468 -0.1893  0.1333
 2028W        W17159   7.154  13.466   1.649 -0.0751  0.0902 -0.0813
 2029W        W17160   5.850  11.987  12.153  0.2910  0.1014  0.2820
 2030W        W17161  12.719   6.721  12.454  0.0519 -0.0650 -0.2160
 2031W        W17162  13.460  12.127  13.423 -0.0214 -0.1764 -0.3475
 2032W        W17163   1.177  10.495  16.163 -0.1024 -0.3098 -0.4764
 2033W        W17164  15.401   8.889  14.884 -0.0829 -0.0737  0.1516
 2034W        W17165  15.565  10.170  13.328 -0.0165 -0.1705 -0.0221
 2035W        W17166  13.260  12.817   0.275 -0.3969  0.3930  0.0564
 2036W        W17167   6.951   7.528   2.277 -0.1841 -0.0562  0.1677
 2037W        W17168   2.175   1.974   4.295  0.1428  0.2637  0.1449
 2038W        W17169  13.422   0.059  13.490  0.0175  0.0047 -0.0734
 2039W        W17170   6.418  15.145  11.711 -0.1950  0.1377  0.0469
 2040W        W17171   6.903   3.626  11.908  0.4520 -0.0664 -0.5873
 2041W        W17172  13.926   8.738   5.150 -0.3306 -0.0749 -0.1874
 2042W        W17173  12.931   5.848  13.960 -0.0884 -0.1201  0.3949
 2043W        W17174   7.786  13.840  13.555  0.0417  0.0154 -0.0095
 2044W        W17175  14.282   7.158  13.940 -0.3959 -0.0815  0.3279
 2045W        W17176  15.225   3.714  11.245  0.0701 -0.0097 -0.0874
 2046W        W17177   5.538   4.816   1.915 -0.0789 -0.1776 -0.1782
 2047W        W17178   1.996   2.345  14.609  0.1694 -0.2457 -0.1154
 2048W        W17179   8.396  14.959   1.094 -0.2333 -0.0480 -0.1606
 2049W        W17180  13.627  14.168   2.970  0.0377  0.0235 -0.2612
 2050W        W17181  17.197   4.139   0.053 -0.0495  0.0970  0.2026
 2051W        W17182   0.851   5.399  11.560 -0.1276 -0.0405 -0.0097
 2052W        W17183  17.948  10.185   3.380 -0.4936  0.1038 -0.0841
 2053W        W17184   5.505   4.788  12.423  0.2706 -0.1148  0.1111
 2054W        W17185   6.923   2.691   1.710 -0.0707  0.1213 -0.0743
 2055W        W17186  17.235   9.198   0.064  0.1669  0.1791  0.1385
 2056W        W17187   8.890   3.322   3.331  0.0096  0.2034  0.3833
 2057W        W17188   4.370  10.901  10.719  0.0308  0.1120 -0.0750
 2058W        W17189  10.250   3.748   4.977 -0.2597 -0.1387 -0.1728
 2059W        W17190   6.112   8.160  13.062  0.4722  0.0598  0.0218
 2060W        W17191   0.756  11.497   1.423 -0.1233 -0.0586  0.0183
 2061W        W17192  12.991   2.889   5.176 -0.1014 -0.4196 -0.1010
 2062W        W17193   8.943  11.992  11.995  0.1751 -0.0490 -0.1388
 2063W        W17194  15.389   4.737   4.406 -0.0208  0.1667 -0.0810
 2064W        W17195  14.405   6.512  15.501  0.0485  0.1076 -0.0867
 2065W        W17196   3.612   0.743  15.896 -0.1492 -0.1628  0.0588
 2066W        W17197  17.315  13.148  15.242 -0.0251  0.1900  0.0238
 2067W        W17198   4.544  17.821   4.046 -0.3170 -0.4127  0.0057
 2068W        W17199  17.213   2.936  11.138  0.2162 -0.1400 -0.0646
 2069W        W17200  11.350   1.369   2.824  0.1234 -0.0639  0.1860
 2070W        W17201   6.339   8.000   3.119  0.0629 -0.3539  0.0340
 2071W        W17202   8.089  11.440  14.529 -0.3534  0.0807  0.1385
 2072W        W17203  12.227  14.843  15.750  0.0888  0.4019 -0.1252
 2073W        W17204  13.813   2.313   2.368  0.0104 -0.1550 -0.0417
 2074W        W17205   9.755   6.006   3.050  0.1725  0.0510 -0.1894
 2075W        W17206  16.872   4.859  14.643  0.4062 -0.1855 -0.0515
 2076W        W17207  14.613   4.308   3.873 -0.4798 -0.5285  0.1765
 2077W        W17208  12.756  16.149  15.721 -0.0147 -0.0020 -0.0240
 2078W        W17209   5.110   2.434   4.841  0.0933 -0.2266  0.0434
 2079W        W17210   2.304  14.866   4.080  0.1569  0.0397 -0.3135
 2080W        W17211  11.598   8.207  11.548  0.0568  0.1092 -0.3300
 2081W        W17212  11.659  17.548  13.143 -0.1756  0.0180 -0.3660
 2082W        W17213   8.058   1.498   0.060  0.1547  0.0217 -0.0286
 2083W        W17214   4.020  16.482   1.610 -0.2761 -0.0208 -0.2901
 2084W        W17215  16.839  10.789  15.090 -0.1146  0.3987 -0.1072
 2085W        W17216  16.676   6.122   5.565  0.0077  0.4222  0.5351
 2086W        W17217   8.787  16.007  14.451  0.1133  0.0887 -0.1159
 2087W        W17218  13.117   6.041  14.500 -0.0847 -0.0646  0.0805
 2088W        W17219   5.603   8.892  11.732  0.0270  0.2077  0.0223
 2089W        W17220   5.248  12.535  11.697 -0.2596 -0.0423 -0.1722
 2090W        W17221  17.907  15.947   3.573  0.0379 -0.2054 -0.1858
 2091W        W17222   1.015   5.867  10.792  0.2747  0.3425 -0.2741
 2092W        W17223   2.856  11.804  10.965 -0.0075  0.0049  0.2918
 2093W        W17224   1.575  11.737   3.455 -0.0752 -0.0463 -0.1929
 2094W        W17225   6.223  15.481   3.834  0.1489 -0.1059 -0.1321
 2095W        W17226   3.879  12.276   0.816 -0.2227 -0.1155  0.1771
 2096W        W17227   9.430   4.384  14.128 -0.0163  0.0150 -0.1148
 2097W        W17228   5.720   0.018  13.270  0.0622  0.1017 -0.1559
 2098W        W17229  10.398   3.065   3.134  0.4493  0.1906 -0.0571
 2099W        W17230   5.837   5.701   0.370 -0.3448 -0.0212  0.2225
 2100W        W17231  15.255  13.343  11.260 -0.2406  0.0580  0.0158
 2101W        W17232   7.092   7.637  15.412  0.0112  0.2715  0.1993
 2102W        W17233   5.863  13.094  11.508 -0.3054 -0.3993 -0.0042
 2103W        W17234   3.331  17.381   2.386 -0.1763 -0.0762  0.2385
 2104W        W17235  10.017   9.814  12.217 -0.0338  0.2157  0.3652
 2105W        W17236   3.502   0.574   3.105 -0.0034  0.1523 -0.0475
 2106W        W17237   3.846  17.881   4.440 -0.3012 -0.2986 -0.0866
 2107W        W17238   2.642  15.101  12.440 -0.3189  0.1550  0.0756
 2108W        W17239   6.655   4.391   0.058 -0.0766  0.0585  0.1920
 2109W        W17240  10.586  14.354   3.533  0.0315  0.2672 -0.2303
 2110W        W17241   4.133  17.481   1.391 -0.1099  0.0484 -0.0834
 2111W        W17242   3.620   7.360   2.672  0.0765  0.1853 -0.2521
 2112W        W17243  13.247   1.866   0.558 -0.1856 -0.2185  0.2337
 2113W        W17244   0.533   5.824   4.014  0.0253  0.1426  0.3474
 2114W        W17245   8.084  11.462  15.284  0.0551  0.4469  0.0237
 2115W        W17246   5.218   7.555  11.909  0.1959  0.0466  0.2783
 2116W        W17247   0.432  17.024   1.578 -0.4385  0.0038 -0.1290
 2117W        W17248   7.705   6.578   4.911  0.0863  0.1882 -0.0379
 2118W        W17249   1.745   0.153   1.545 -0.1504 -0.1525 -0.0739
 2119W        W17250  12.795   6.567  13.152  0.1828 -0.3887  0.0666
 2120W        W17251   4.858  12.180   5.168  0.3339  0.1043  0.0730
 2121W        W17252   7.902   3.626  15.700  0.1086 -0.1886  0.2702
 2122W        W17253  13.767  11.464   4.777 -0.0551 -0.2873 -0.0209
 2123W        W17254  11.773  14.312  14.028 -0.1860 -0.0702 -0.0823
 2124W        W17255   0.902  12.821  14.541 -0.2116  0.0075 -0.1186
 2125W        W17256   4.051   1.595   4.105 -0.0812 -0.0651  0.3544
 2126W        W17257   5.142  15.792  10.415 -0.3606 -0.1899  0.3193
 2127W        W17258   8.252  12.363  12.833 -0.1227 -0.0749 -0.2848
 2128W        W17259   3.153   9.697   1.696 -0.2393 -0.1521 -0.0771
 2129W        W17260   1.515  11.701  11.369 -0.1923  0.1750  0.1728
 2130W        W17261   9.931   1.849   1.888  0.2473 -0.2259  0.0746
 2131W        W17262   9.114  12.805   4.825  0.0211  0.0484  0.2200
 2132W        W17263  15.501  16.449   1.037 -0.0588  0.0410 -0.0687
 2133W        W17264  13.121   2.885   0.544 -0.0792  0.1472  0.0926
 2134W        W17265  15.177   5.273  13.782 -0.2416  0.1199  0.1115
 2135W        W17266   0.059   7.900   2.931 -0.1075 -0.0228  0.0555
 2136W        W17267  16.132  12.014   1.623 -0.1794 -0.0574 -0.3024
 2137W        W17268   5.936  16.889   4.468 -0.1393 -0.1301 -0.0864
 2138W        W17269  12.846  11.577  11.114  0.1751  0.1648  0.0250
 2139W        W17270   7.132   1.074  13.739  0.1245  0.3446 -0.0595
 2140W        W17271   4.472  13.674   1.019  0.1003  0.1095 -0.1305
 2141W        W17272   8.900   7.836  10.060  0.4387  0.1106 -0.2871
 2142W        W17273   6.992  13.392  15.712 -0.2465  0.2694  0.1113
 2143W        W17274   3.976  10.559   4.767 -0.4244 -0.2777  0.0250
 2144W        W17275   7.812  14.194   1.083 -0.1652 -0.1606 -0.1560
 2145W        W17276   3.213  14.818  14.203  0.0947  0.4147 -0.2963
 2146W        W17277  13.225   0.882  11.656 -0.0288 -0.2070  0.1552
 2147W        W17278   0.315   2.642  13.992 -0.0623  0.1942 -0.0356
 2148W        W17279   9.698   3.933   2.542 -0.3602 -0.1869  0.0340
 2149W        W17280  13.279   4.670  12.070 -0.3548 -0.2552 -0.2348
 2150W        W17281   2.171   1.686  15.847 -0.1367  0.0942  0.3729
 2151W        W17282   2.512  14.315   1.858 -0.0332  0.0623  0.1636
 2152W        W17283   9.003   9.661  15.855  0.3278 -0.2055  0.3192
 2153W        W17284  14.399   8.493  13.174 -0.1093  0.0407 -0.1002
 2154W        W17285  17.945  15.423  15.555 -0.1596 -0.1162  0.1827
 2155W        W17286  11.613   0.522   4.833  0.1186 -0.0620 -0.1762
 2156W        W17287  14.362   0.691  10.821 -0.4069 -0.0224  0.1829
 2157W        W17288   8.325  17.555   0.757  0.2605  0.3562  0.0412
 2158W        W17289   6.200  12.056  11.812 -0.2689  0.0466 -0.0969
 2159W        W17290  15.438  10.131  10.349 -0.4117 -0.2194  0.1363
 2160W        W17291  10.530   3.480   4.014  0.0912  0.1547  0.1280
 2161W        W17292   6.415   3.155  11.330  0.2482 -0.1448 -0.1040
 2162W        W17293   8.889  16.769   1.673  0.1746  0.0799  0.0116
 2163W        W17294   8.471   9.204   1.872  0.0363 -0.1096  0.3437
 2164W        W17295  16.896  14.177  11.629  0.1044  0.4075 -0.1556
 2165W        W17296  11.349   6.276  15.314 -0.0896 -0.2007 -0.0582
 2166W        W17297   4.972   0.675  13.980 -0.1454 -0.0731 -0.1919
 2167W        W17298   0.042   0.658  11.848  0.0338 -0.2634  0.3452
 2168W        W17299   1.815  17.896   4.148 -0.1432  0.3179 -0.0121
 2169W        W17300   5.806   2.406   1.094  0.1669  0.0294 -0.0595
 2170W        W17301   8.883  10.576   4.053  0.0509 -0.0330  0.0436
 2171W        W17302   1.488   7.534   3.285 -0.0709  0.0443  0.1462
 2172W        W17303   7.088   8.482  15.812  0.1098  0.0233  0.1782
 2173W        W17304   4.028  17.873  13.719  0.2490  0.2635 -0.1894
 2174W        W17305   7.278   9.458   2.007  0.1258  0.0447  0.0389
 2175W        W17306  12.944  10.137   1.184 -0.2168 -0.4655  0.2594
 2176W        W17307  17.693  12.438  12.574  0.2760 -0.0073  0.0060
 2177W        W17308   3.991  11.284   2.967 -0.4314  0.0923 -0.2151
 2178W        W17309   1.126  14.070   5.416 -0.0378  0.1565 -0.2648
 2179W        W17310   5.907  16.870  15.776  0.2730  0.1115 -0.2780
 2180W        W17311  13.190   2.911   1.045 -0.2915 -0.0323 -0.2144
 2181W        W17312  18.125  15.203  11.363 -0.0734 -0.2129  0.1190
 2182W        W17313   0.264   5.947  16.012 -0.0270  0.1335 -0.0459
 2183W        W17314   0.225   4.476  14.775  0.0703 -0.0438 -0.0363
 2184W        W17315  17.072   8.309  12.389 -0.1187 -0.1214  0.1384
 2185W        W17316  13.731   6.802   2.012  0.1424 -0.1219 -0.1871
 2186W        W17317   7.145   8.273   0.096 -0.0909  0.1150 -0.2115
 2187W        W17318   5.217  17.141  11.452  0.0702 -0.2113 -0.0529
 2188W        W17319   4.779  13.343  13.920 -0.1558 -0.2493  0.0149
 2189W        W17320  17.416  12.481  15.702 -0.1243  0.2128  0.0003
 2190W        W17321   1.635  12.079   1.368 -0.2834 -0.0358 -0.0670
 2191W        W17322   5.087   7.077  14.917  0.1817 -0.2425  0.3167
 2192W        W17323   5.273  17.018   1.106  0.0679  0.1338 -0.1709
 2193W        W17324   7.952   2.730   1.069  0.1012  0.2522  0.3769
 2194W        W17325   3.229   2.650   4.406  0.1392 -0.1637  0.0951
 2195W        W17326   6.013   5.409   4.239  0.0428 -0.3286  0.2072
 2196W        W17327  11.116   9.677   0.039 -0.0213  0.4106 -0.2146
 2197W        W17328  12.232  17.519  14.454 -0.1196 -0.3669  0.0789
 2198W        W17329   6.583   8.833  14.365  0.0419  0.1339  0.1392
 2199W        W17330   2.223   4.549  12.776  0.4302  0.1044  0.0072
 2200W        W17331  14.450   9.295  13.766 -0.1565  0.0368 -0.1404
 2201W        W17332  17.791  12.528   3.330  0.0197 -0.0996 -0.0513
 2202W        W17333   4.758   7.665  15.519  0.1863 -0.0618  0.0788
 2203W        W17334  17.343   0.709   3.504 -0.3837  0.0075  0.0824
 2204W        W17335  12.582   4.957  16.187 -0.1304 -0.1652  0.0236
 2205W        W17336   5.022  10.901   0.061 -0.0574 -0.2775  0.2938
 2206W        W17337   6.063   5.230  10.982  0.1045 -0.3490 -0.1562
 2207W        W17338  16.868   9.325   2.409  0.4015 -0.1407  0.3968
 2208W        W17339   0.340  13.996  10.316  0.0322  0.0421 -0.1471
 2209W        W17340  10.104   9.337  14.050  0.2403 -0.0339 -0.0418
 2210W        W17341   8.844   8.355  12.130  0.6032 -0.2249  0.0656
 2211W        W17342   2.249  14.810  15.054 -0.0160  0.1595  0.2488
 2212W        W17343   6.274   7.489   3.017 -0.2304  0.0788  0.0085
 2213W        W17344   7.789   2.498   0.416  0.0497 -0.1264 -0.1258
 2214W        W17345  14.081  12.704  10.420  0.1165 -0.1750  0.1230
 2215W        W17346  15.517  12.042   0.306  0.1140 -0.3085 -0.0349
 2216W        W17347  13.670  11.189   5.691  0.2653  0.1706 -0.0461
 2217W        W17348  10.827   5.011   2.339  0.1148  0.2402  0.2004
 2218W        W17349   2.789   7.495  11.492 -0.0698  0.0157 -0.1042
 2219W        W17350  14.947   2.033  13.727  0.0250  0.1555  0.3769
 2220W        W17351   4.976   4.137   0.911 -0.0168  0.0922  0.1280
 2221W        W17352   2.261   8.763   1.845 -0.0234  0.2657 -0.1006
 2222W        W17353   1.204  13.841  13.442  0.0963 -0.0567 -0.2511
 2223W        W17354  16.434  17.907   4.662 -0.0593 -0.0147 -0.2685
 2224W        W17355   1.403   6.129  13.593 -0.1220  0.5680  0.1437
 2225W        W17356   8.860   2.141   4.329  0.0649 -0.0274  0.2985
 2226W        W17357  10.013  16.230  12.217 -0.0513  0.0752 -0.1583
 2227W        W17358  14.782   6.313  13.730  0.2103  0.0686 -0.2925
 2228W        W17359  16.206   6.033   2.350  0.1137 -0.0967  0.0134
 2229W        W17360  17.685  10.044   4.978  0.3216 -0.0469  0.0379
 2230W        W17361   9.279  13.432  15.779 -0.0216  0.1736 -0.0635
 2231W        W17362   5.521  16.940   4.121 -0.1220  0.1278  0.0582
 2232W        W17363  10.267  13.122   5.037 -0.0251 -0.1621  0.2360
 2233W        W17364   0.711   1.648  15.408  0.1764  0.0915 -0.1418
 2234W        W17365   7.675  11.812   0.842  0.0705 -0.1412  0.1798
 2235W        W17366  14.790  13.902   4.617 -0.0575  0.2347 -0.3274
 2236W        W17367  11.163   5.039  12.251  0.1386 -0.1366  0.3041
 2237W        W17368  14.189   9.394   6.023 -0.0831 -0.0151 -0.2028
 2238W        W17369  14.708   4.454  15.208 -0.1500 -0.0337  0.0560
 2239W        W17370   5.669   1.025   2.989 -0.0233  0.1255  0.1485
 2240W        W17371   6.860   3.340   4.032  0.0413 -0.2894  0.1794
 2241W        W17372   3.313   3.389   3.882  0.0437  0.0472 -0.0149
 2242W        W17373   0.796  11.881  10.899 -0.1426  0.2216 -0.1361
 2243W        W17374   5.059   2.395  15.809  0.0189  0.3552 -0.1217
 2244W        W17375  11.677  14.821   5.715  0.2757  0.0667 -0.0202
 2245W        W17376   1.599   6.924  12.691  0.0176 -0.4197  0.1976
 2246W        W17377   1.938  16.980  15.485 -0.1182 -0.2646  0.2310
 2247W        W17378   2.556   7.351   4.137  0.0338 -0.0900 -0.2340
 2248W        W17379   7.578  13.704   4.544  0.0527 -0.1119 -0.0136
 2249W        W17380  16.357  15.093   0.895 -0.2042  0.0730  0.1479
 2250W        W17381  14.309   1.150   1.044 -0.0325 -0.0097  0.1131
 2251W        W17382  12.620  10.827  14.284 -0.0769 -0.1014  0.0150
 2252W        W17383   2.232   3.398  15.443  0.1238  0.2102  0.2439
 2253W        W17384  13.327  15.157  15.955  0.1487  0.0177 -0.2145
 2254W        W17385   5.500  10.462  10.773 -0.0139 -0.2833  0.2744
 2255W        W17386   4.937   3.458  14.945  0.1640  0.2380 -0.0970
 2256W        W17387   3.580   7.529  11.923 -0.0796 -0.2839  0.0008
 2257W        W17388  18.137  16.775  12.996 -0.0004 -0.1100  0.2683
 2258W        W17389  17.203  10.163   0.023  0.2003 -0.0245  0.0217
 2259W        W17390  16.561  17.678   6.515 -0.0840 -0.1165 -0.1162
 2260W        W17391   4.424   6.923  13.824 -0.0752 -0.3013  0.2569
 2261W        W17392   7.410  17.343   2.662  0.1460  0.1297 -0.0458
 2262W        W17393   5.482   3.455  14.394  0.0955 -0.1171  0.0976
 2263W        W17394   4.935  17.968   1.024 -0.0056 -0.1218 -0.0564
 2264W        W17395  14.733   1.775   3.323 -0.0290  0.0711 -0.2069
 2265W        W17396  18.130   8.194  13.167  0.0238  0.1169 -0.0629
 2266W        W17397  16.042   8.816   0.149  0.0025 -0.1598 -0.3581
 2267W        W17398  13.506   9.815  11.403 -0.0733  0.1136 -0.1440
 2268W        W17399   2.721   5.051   3.320 -0.0575 -0.3618 -0.1470
 2269W        W17400   9.950   7.555  10.733  0.1549  0.0115  0.1623
 2270W        W17401  12.755   7.695   0.301 -0.0042 -0.2000 -0.1236
 2271W        W17402  17.365  12.116  15.114  0.2754  0.0180  0.0551
 2272W        W17403   4.637  13.244   5.007 -0.5838  0.2849 -0.1269
 2273W        W17404   8.659  17.364   1.961 -0.0344 -0.1750  0.0751
 2274W        W17405   0.220  17.679  13.848  0.3365 -0.0402 -0.0598
 2275W        W17406  13.052   0.113   5.494 -0.1078 -0.0262  0.3370
 2276W        W17407   1.139  10.463  14.908 -0.0864  0.0368  0.2041
 2277W        W17408   1.174   1.249  12.807  0.1095  0.1280 -0.1030
 2278W        W17409   5.579  15.595   1.496 -0.0133 -0.0531  0.1142
 2279W        W17410  11.983   9.793   2.772 -0.5256 -0.1080  0.1278
 2280W        W17411   0.541   9.184  15.251  0.2258 -0.0982  0.1121
 2281W        W17412   4.452   0.506  11.983 -0.0571  0.1698 -0.1178
 2282W        W17413  11.893   3.071   1.091  0.0164 -0.1762  0.1228
 2283W        W17414  13.044   6.557  12.045 -0.1418 -0.2467 -0.0600
 2284W        W17415   4.500  16.884   3.387 -0.0761  0.1682  0.2600
 2285W        W17416   3.342  13.244  13.026 -0.1025  0.1238  0.2126
 2286W        W17417  15.591   2.019  10.929 -0.0580 -0.3439 -0.2690
 2287W        W17418   2.423   2.852   3.902 -0.2466  0.0913  0.2247
 2288W        W17419  11.955   1.578  10.089 -0.3232  0.0420  0.0593
 2289W        W17420   0.641   7.152  11.138  0.0472 -0.0983  0.2581
 2290W        W17421  17.437   1.927  12.634  0.1841  0.1261  0.1521
 2291W        W17422   6.088  17.294   2.724  0.1897 -0.4075  0.2091
 2292W        W17423  11.851   1.627  10.933 -0.1576 -0.0120 -0.0297
 2293W        W17424   5.782  15.289   1.153  0.0214 -0.0814  0.1654
 2294W        W17425  16.259   6.428  13.088 -0.1364 -0.0860  0.2023
 2295W        W17426   1.038   3.206  11.350 -0.0435  0.0521  0.4861
 2296W        W17427   4.279  16.314   4.085  0.1764 -0.2071 -0.3963
 2297W        W17428  10.932   5.030   3.325  0.0533  0.1663  0.2955
 2298W        W17429   5.951   8.675   4.074  0.0881 -0.3624  0.0285
 2299W        W17430  12.652   5.199  15.266 -0.0260 -0.1064 -0.2833
 2300W        W17431   1.453   5.281  13.124  0.0791 -0.2859  0.0132
 2301W        W17432   5.005  11.769   2.401 -0.2135 -0.0052  0.1741
 2302W        W17433  15.051  15.690   5.518  0.0995 -0.0555  0.1592
 2303W        W17434   9.145   9.438   3.690 -0.0495 -0.0922 -0.0004
 2304W        W17435  12.965   8.875  11.881  0.2345 -0.1779 -0.1301
 2305W        W17436   3.227  11.000  15.492  0.0145  0.0399 -0.1463
 2306W        W17437   5.828   1.431  15.181  0.0833  0.2894 -0.0826
 2307W        W17438  10.079   2.428  11.621 -0.0446 -0.1180  0.0849
 2308W        W17439  17.666   1.866  13.833 -0.7126  0.0497  0.0013
 2309W        W17440  16.112  17.541  15.835  0.0807  0.3602 -0.1705
 2310W        W17441  14.896  14.969   4.498  0.2323 -0.1290  0.0267
 2311W        W17442   4.560  13.662  13.483  0.0249  0.0576 -0.1268
 2312W        W17443  17.856   5.125   2.631 -0.1178  0.1933  0.2608
 2313W        W17444  14.965   9.474   5.495 -0.3477  0.0474 -0.0592
 2314W        W17445  12.884   3.276  13.876  0.0879  0.0694 -0.1164
 2315W        W17446  16.015  11.321  13.448  0.1606  0.1308  0.0733
 2316W        W17447   3.323  13.966   3.084  0.0433  0.1444 -0.1805
 2317W        W17448  15.143  14.939   2.079 -0.1383 -0.0316  0.0093
 2318W        W17449  14.657  14.082  12.679 -0.1186  0.0574 -0.0090
 2319W        W17450   4.680  10.703   2.611  0.0462  0.1211  0.0100
 2320W        W17451   5.527   4.051   4.325 -0.0866  0.1553  0.1058
 2321W        W17452   6.889   4.107  14.155 -0.0513 -0.3332  0.0712
 2322W        W17453  10.856  16.875   0.236 -0.1048  0.1080  0.0295
 2323W        W17454  15.579  12.017   5.436  0.1928 -0.1887 -0.0315
 2324W        W17455   8.630  15.833  13.603 -0.0283  0.2233 -0.0528
 2325W        W17456   9.338  17.666  12.172 -0.1139 -0.2395  0.1870
 2326W        W17457  13.823   8.854  13.374  0.0241  0.2222 -0.0344
 2327W        W17458  15.758   2.750   5.143  0.1184  0.1453 -0.2785
 2328W        W17459  15.236  15.930  11.718  0.3362 -0.1186 -0.0236
 2329W        W17460   8.308   6.732  15.597 -0.0032  0.1242  0.3060
 2330W        W17461  17.161  11.228   1.841 -0.2504  0.2396 -0.3706
 2331W        W17462   3.115  17.545  14.226  0.2109 -0.1723  0.0743
 2332W        W17463  18.001   3.262  14.365 -0.4423 -0.0482  0.1809
 2333W        W17464  10.265   8.868   4.597 -0.2027  0.0663 -0.1345
 2334W        W17465  10.814   0.360   3.042  0.0670 -0.1789  0.0070
 2335W        W17466  14.635  12.146  14.153  0.2698 -0.2875 -0.2579
 2336W        W17467  16.673   0.567   4.281 -0.1575 -0.3214 -0.1787
 2337W        W17468  11.530  16.893   1.837 -0.0135  0.3526  0.1440
 2338W        W17469  13.525   4.043   2.504 -0.3190  0.0759  0.3516
 2339W        W17470  17.023  17.649  16.008  0.2688  0.3272  0.1376
 2340W        W17471  15.840   7.535  15.863 -0.0873  0.1227 -0.2154
 2341W        W17472   7.535  12.365   2.826 -0.0712  0.1801 -0.2251
 2342W        W17473   6.529  12.189   1.806  0.0561 -0.0295  0.0736
 2343W        W17474  10.875   3.742   0.054 -0.0247  0.1918  0.1504
 2344W        W17475   8.990   2.650   1.983 -0.0575 -0.1504  0.1756
 2345W        W17476  17.787  11.076   4.532  0.0786  0.1108  0.0050
 2346W        W17477   8.014  10.901  14.434 -0.3029 -0.0108  0.2191
 2347W        W17478   1.066  13.332  14.364  0.1313 -0.4185 -0.1811
 2348W        W17479  14.676   8.141   5.512  0.3078  0.0637 -0.0420
 2349W        W17480  10.588   5.515   5.426  0.3653  0.1771  0.0177
 2350W        W17481   3.567  11.057   3.104 -0.0424  0.1556 -0.0552
 2351W        W17482   8.058  10.170   4.243 -0.1810 -0.0511  0.2535
 2352W        W17483  14.567   8.051   1.498 -0.3522  0.0045 -0.1023
 2353W        W17484   0.503   7.144  13.508  0.0881 -0.0118 -0.2356
 2354W        W17485  10.944   7.136  11.237 -0.3325  0.0775 -0.1599
 2355W        W17486  15.227  13.863  14.730 -0.1559 -0.1460  0.3095
 2356W        W17487   6.091  11.850   4.178  0.1486  0.1152  0.3128
 2357W        W17488   6.755  17.191   4.389 -0.2153  0.1492 -0.4973
 2358W        W17489  11.458  14.860   4.271 -0.1441  0.1514  0.0023
 2359W        W17490  15.258  12.006  15.926 -0.0967 -0.0252  0.1075
 2360W        W17491   5.862   8.198  12.249 -0.0221 -0.0769 -0.0846
 2361W        W17492   4.967  11.722  15.887 -0.2261  0.1707  0.1102
 2362W        W17493   2.943   5.481  12.829 -0.0025 -0.0008  0.0871
 2363W        W17494   1.520   6.078   2.091 -0.0253  0.0305 -0.1598
 2364W        W17495  10.242  10.992  15.371  0.1293 -0.1772 -0.4074
 2365W        W17496   7.909   0.192  15.098 -0.0827 -0.0796  0.1257
 2366W        W17497   2.304  17.291  14.474  0.1605  0.1161 -0.4462
 2367W        W17498  17.981   4.575   0.932 -0.0642  0.1203 -0.0155
 2368W        W17499  11.629  13.441  11.826 -0.3057 -0.2690 -0.0289
 2369W        W17500  17.856  11.663   5.840 -0.0257  0.0096  0.1642
 2370W        W17501   0.639   7.977  11.367  0.3232  0.1011  0.1178
 2371W        W17502   3.815   7.010   3.792  0.0438  0.1790  0.0136
 2372W        W17503  16.031  18.019  14.662 -0.3260 -0.1328  0.0658
 2373W        W17504   7.450   6.628   4.501  0.1472  0.1102 -0.1551
 2374W        W17505   8.098  13.316  16.189 -0.1653  0.0376  0.1752
 2375W        W17506   5.257   9.017   1.041 -0.2311 -0.0461  0.0585
 2376W        W17507   2.380   1.330  14.432 -0.2609  0.1356 -0.0211
 2377W        W17508   6.490   6.802   5.833 -0.0045  0.0260  0.0799
 2378W        W17509   5.268   0.089  13.517 -0.1431  0.1547 -0.1775
 2379W        W17510   6.748   6.711  12.036 -0.1923 -0.2929 -0.0605
 2380W        W17511   7.542   0.235  15.503 -0.0099  0.2458  0.2111
 2381W        W17512   4.243  12.358   4.347  0.1075 -0.3767 -0.2485
 2382W        W17513  10.370   7.809   4.170 -0.0230 -0.0568  0.0604
 2383W        W17514   8.560  14.157  10.911  0.2353  0.1335 -0.1338
 2384W        W17515  17.508   9.919   1.705 -0.1045 -0.2443 -0.0131
 2385W        W17516   6.002  17.775  13.171  0.1466  0.1835 -0.1218
 2386W        W17517   3.992   1.614  16.174 -0.0790  0.0234 -0.0614
 2387W        W17518  16.869   6.079  10.728  0.2224 -0.2238 -0.0286
 2388W        W17519  11.684  11.726   2.552  0.0055  0.0186  0.0269
 2389W        W17520   5.924   2.120   5.805 -0.0945 -0.2453 -0.0711
 2390W        W17521  10.342   8.560  13.510  0.0921  0.0251 -0.0519
 2391W        W17522  15.597  16.255  14.753 -0.0248 -0.1101 -0.0111
 2392W        W17523   5.731  11.932   0.837  0.2252 -0.1530  0.1071
 2393W        W17524   0.244  13.671   1.261 -0.0082  0.3008  0.1004
 2394W        W17525  14.046   1.650  15.412 -0.1173  0.1792 -0.2008
 2395W        W17526   7.184   5.904   0.461 -0.2146 -0.1708  0.1104
 2396W        W17527   8.720  14.147   2.247  0.0852  0.0937  0.0994
 2397W        W17528  13.414   8.005   3.257  0.2282  0.2474 -0.5142
 2398W        W17529   9.639   5.126   4.543 -0.0530 -0.0698  0.1761
 2399W        W17530   6.658  14.291   9.678  0.1150  0.0426  0.0428
 2400W        W17531  13.966  11.033  12.513 -0.2574  0.0044  0.3410
 2401W        W17532  13.147   5.698  12.173  0.1760 -0.0893  0.1816
 2402W        W17533   0.858  16.861   2.756  0.0826 -0.2330 -0.0181
 2403W        W17534  15.880  17.997   4.433  0.1728  0.2706  0.0568
 2404W        W17535  16.153   6.316  13.888  0.1236  0.1637  0.0780
 2405W        W17536   5.480   4.272  13.588  0.0009 -0.0705  0.2482
 2406W        W17537   7.930  16.167  10.617 -0.2035 -0.0161  0.0571
 2407W        W17538   8.822   1.379  11.666  0.2276 -0.0812  0.0404
 2408W        W17539  17.405   5.184   3.847 -0.0882  0.2784 -0.1372
 2409W        W17540   2.804   3.983   2.593 -0.0943  0.2596  0.2651
 2410W        W17541   1.070  13.408   3.714 -0.3200 -0.0850 -0.1039
 2411W        W17542   4.159   1.887   5.803  0.2112 -0.2089 -0.0595
 2412W        W17543   3.446   0.100  14.917  0.1606  0.0940  0.1198
 2413W        W17544  12.142  17.876  14.123 -0.3095 -0.1060  0.2077
 2414W        W17545   6.096   4.864  11.363  0.0754  0.0569  0.0143
 2415W        W17546  15.022   1.164   1.019 -0.0420  0.1871  0.0150
 2416W        W17547  12.179   7.541   6.370 -0.1124 -0.2299 -0.0393
 2417W        W17548  16.961  14.200   3.788 -0.2700 -0.1826  0.2439
 2418W        W17549  14.254   2.192   1.405  0.2868 -0.2371 -0.1733
 2419W        W17550  10.519   3.443   2.280 -0.5239 -0.0195  0.0330
 2420W        W17551   8.701   9.272   3.236  0.0313  0.0547  0.0636
 2421W        W17552   2.725   7.664   3.770 -0.0290  0.0998  0.1694
 2422W        W17553   8.504   9.711  14.345  0.2567 -0.0325 -0.0850
 2423W        W17554  14.801   1.228   3.773  0.1772 -0.1926 -0.1425
 2424W        W17555  10.263  15.201   2.724 -0.0875  0.1335 -0.0546
 2425W        W17556   7.884   0.791   3.366  0.0565 -0.1265 -0.0995
 2426W        W17557   1.253   7.473  14.680 -0.2668  0.0081 -0.0144
 2427W        W17558  13.701  17.684   5.532 -0.2018  0.1678  0.1991
 2428W        W17559  10.566   5.054  13.456  0.1147  0.0394 -0.0148
 2429W        W17560  14.540   8.599  12.103  0.1321 -0.0918  0.0688
 2430W        W17561  11.439  11.928   4.709 -0.2285 -0.2283 -0.2533
 2431W        W17562   4.503   6.543   4.983  0.0730  0.1012  0.1402
 2432W        W17563   6.484  14.203  15.236  0.1869  0.0696 -0.3765
 2433W        W17564   7.666   8.186  13.846  0.3136  0.1884  0.0953
 2434W        W17565   4.263   9.506   1.446  0.1182 -0.0449  0.0939
 2435W        W17566   8.508  11.460  15.581 -0.0614  0.1055  0.1498
 2436W        W17567  10.618  13.929  13.002  0.0545  0.1293  0.1588
 2437W        W17568   5.172   7.896   4.116 -0.0216  0.0585  0.1208
 2438W        W17569  12.713  13.300   1.497 -0.0726  0.3191  0.3750
 2439W        W17570   7.719   7.322   2.574  0.1251 -0.3182 -0.0886
 2440W        W17571   1.345   3.101   1.778  0.4173 -0.2443  0.1499
 2441W        W17572  15.752  11.372  11.329 -0.0103 -0.2730  0.0826
 2442W        W17573   0.728  11.355  15.863 -0.0267 -0.0299 -0.0176
 2443W        W17574   0.301  18.082  12.249 -0.3404 -0.0421 -0.0671
 2444W        W17575   6.817   1.550   4.100 -0.2237  0.2464 -0.1610
 2445W        W17576  17.224   2.732   1.765 -0.2040 -0.1854  0.0471
 2446W        W17577   2.516   7.204  10.455  0.2732 -0.2890  0.2027
 2447W        W17578  10.036  12.334   2.378  0.1560 -0.1157  0.0355
 2448W        W17579  17.230   7.681  13.024  0.2599 -0.0806 -0.2692
 2449W        W17580   4.008  12.104   1.522  0.1395 -0.0094  0.3141
 2450W        W17581   1.142   4.405  13.753 -0.1268  0.1468  0.1263
 2451W        W17582   1.728  12.643  16.093  0.0893  0.0664  0.0758
 2452W        W17583   3.891   4.778   1.488 -0.4484  0.0906  0.0532
 2453W        W17584   0.301  16.322   1.434  0.4539 -0.0664 -0.2368
 2454W        W17585   0.278  17.371   1.198 -0.1008 -0.2855 -0.1444
 2455W        W17586   7.385   1.600   2.540  0.2396 -0.1531  0.4207
 2456W        W17587   9.126  12.618  11.319 -0.0337 -0.1142 -0.0309
 2457W        W17588   1.314   5.534  10.433 -0.3012 -0.0090  0.0937
 2458W        W17589   8.985   5.425  13.813  0.0863  0.0108  0.4017
 2459W        W17590   9.607  10.218   4.626  0.0031 -0.4002  0.3117
 2460W        W17591   4.309   7.911   9.979 -0.0358  0.2469 -0.1024
 2461W        W17592   9.768   8.150   4.161  0.2129 -0.1940  0.1222
 2462W        W17593  17.242  18.035   5.292 -0.2107  0.1023 -0.2161
 2463W        W17594   9.323  10.570  14.619 -0.1863  0.0450  0.0355
 2464W        W17595  14.548  14.428   3.216 -0.1833 -0.2313 -0.0483
 2465W        W17596  14.289   6.094   3.122 -0.0518 -0.1764 -0.0243
 2466W        W17597   0.516   2.495   4.146  0.0272 -0.2399  0.2367
 2467W        W17598  11.552  14.058   2.586  0.0872  0.0269 -0.2415
 2468W        W17599  10.666   4.073   4.182 -0.1028 -0.4445 -0.0929
 2469W        W17600   8.021   4.705   2.930 -0.0421 -0.1891 -0.0509
 2470W        W17601   8.973   2.060   3.878 -0.2090  0.0088 -0.0964
 2471W        W17602   4.387   3.702  13.035 -0.0653 -0.1727  0.2847
 2472W        W17603  13.916  13.507  15.120 -0.2067  0.2231 -0.1892
 2473W        W17604   3.136   7.597  15.746  0.0253  0.2157 -0.1619
 2474W        W17605  15.585  10.683  13.062  0.0203  0.2540  0.1385
 2475W        W17606   7.391   0.345  11.923 -0.1220  0.0963  0.0418
 2476W        W17607  18.089  12.069  10.671  0.1264 -0.0339 -0.1552
 2477W        W17608   0.643   3.735   0.667 -0.1407 -0.2536  0.1249
 2478W        W17609  14.639   8.857  12.599  0.0376  0.7022 -0.0561
 2479W        W17610  14.618   4.995  15.342  0.0861  0.1143 -0.0427
 2480W        W17611  14.635   1.471  14.824  0.0910 -0.0080 -0.2013
 2481W        W17612  13.623   1.335  13.288 -0.1172 -0.0298 -0.1421
 2482W        W17613  17.171   3.279   0.562  0.2684  0.1645  0.1579
 2483W        W17614   1.853   4.872   3.916  0.3152  0.1557  0.1401
 2484W        W17615   9.192  16.230   3.070  0.1747 -0.0704 -0.1592
 2485W        W17616  17.539   4.000  15.545  0.0922 -0.1094 -0.1938
 2486W        W17617  18.061  10.195   4.644 -0.0471  0.0083 -0.1742
 2487W        W17618   9.099  15.762   2.765 -0.0827 -0.1326 -0.0466
 2488W        W17619  17.774  11.601   2.819  0.2897  0.1092 -0.0674
 2489W        W17620   7.440   8.813   3.300  0.0413  0.3013  0.0561
 2490W        W17621   8.467   5.155  14.502 -0.0089 -0.3828  0.2649
 2491W        W17622   0.187  15.831  11.064  0.0472 -0.1855  0.1518
 2492W        W17623  16.597   2.527   0.782  0.0436  0.3704  0.3208
 2493W        W17624  10.011  13.432   2.804  0.3916  0.2310  0.0609
 2494W        W17625  12.870  14.721  12.063 -0.2839  0.1580  0.0822
 2495W        W17626  16.349   3.933  11.970 -0.1966 -0.2607  0.0438
 2496W        W17627   0.752  10.423   4.251  0.0411 -0.2379  0.1360
 2497W        W17628  16.890   7.984   0.623  0.0563  0.1805 -0.2153
 2498W        W17629   8.522  11.619   4.807 -0.1281 -0.0579  0.3216
 2499W        W17630   5.425   0.159   4.206 -0.0728  0.0413 -0.1335
 2500W        W17631   6.159   3.954  10.827 -0.1447  0.0410  0.1887
 2501W        W17632  12.431   7.078   3.196  0.0790  0.3109 -0.2883
 2502W        W17633   4.574  15.795   5.210 -0.1629  0.0651 -0.0528
 2503W        W17634   3.413   7.106   4.235 -0.1021  0.2576  0.2165
 2504W        W17635   0.715   3.648  13.444 -0.0863 -0.0020  0.1229
 2505W        W17636  16.729  11.581   1.131  0.2589  0.3207  0.0659
 2506W        W17637  15.565   4.272   1.754  0.0830  0.0200 -0.1098
 2507W        W17638   6.553   9.367  15.643  0.0659 -0.1350 -0.0379
 2508W        W17639   3.321   6.931   2.473  0.0001  0.1607 -0.0519
 2509W        W17640  17.848   1.581  12.666  0.0415  0.0563  0.1715
 2510W        W17641   9.432  11.458  13.928  0.2119  0.0800  0.0657
 2511W        W17642  15.411  14.808   5.142 -0.2832  0.2860  0.0486
 2512W        W17643   2.847   0.700   4.707  0.1781 -0.1024  0.2001
 2513W        W17644  10.892   5.492   0.876 -0.1208  0.1868  0.0421
 2514W        W17645  11.939  14.267   0.115  0.0961  0.2357 -0.3751
 2515W        W17646  16.869   2.421   0.425  0.2101 -0.0402  0.0235
 2516W        W17647  14.676  17.352   4.342 -0.0431 -0.1575 -0.1825
 2517W        W17648   8.643  12.164   0.495 -0.1006  0.1088 -0.0857
 2518W        W17649  15.563  15.300  15.895  0.3254  0.0982  0.3963
 2519W        W17650   2.749   9.692   2.194 -0.0944 -0.1038 -0.2772
 2520W        W17651   6.680  11.135   0.912  0.0558  0.1535  0.1863
 2521W        W17652  11.448  16.298  15.352 -0.0522 -0.0854  0.1459
 2522W        W17653   1.321   7.210  15.101 -0.2738  0.1290 -0.1534
 2523W        W17654   6.527   2.757   2.716 -0.0211  0.0684  0.0582
 2524W        W17655  15.490   0.789  13.948  0.1431 -0.2303 -0.0899
 2525W        W17656   3.326   5.525  12.428  0.0621 -0.0523 -0.2428
 2526W        W17657   2.415   8.856   4.097  0.2985  0.0204  0.2425
 2527W        W17658   9.081   4.014   5.672  0.1012 -0.3503  0.0111
 2528W        W17659  16.107   8.603   1.523 -0.1878  0.0912  0.0072
 2529W        W17660   8.781   4.524  11.991  0.0433 -0.3179  0.0205
 2530W        W17661   6.461   6.314   0.637 -0.1289  0.2192 -0.1672
 2531W        W17662   3.420  12.586  15.930  0.3092 -0.3619  0.2499
 2532W        W17663  15.021  12.857  14.891 -0.0393 -0.1890  0.0135
 2533W        W17664   6.869  13.236  14.071  0.0391  0.2155  0.0576
 2534W        W17665   1.728  10.798   2.104 -0.0093  0.2571 -0.1608
 2535W        W17666   7.514  14.256   3.973  0.1751  0.0423  0.1940
 2536W        W17667   4.246   9.884  12.092 -0.1493  0.0628  0.3200
 2537W        W17668  15.445  18.046  12.427 -0.2914  0.1381  0.1313
 2538W        W17669  15.049   4.034  11.665  0.2049 -0.1362 -0.0901
 2539W        W17670   0.650   3.685  15.739 -0.0682 -0.0137  0.2092
 2540W        W17671  16.804  18.043   4.983 -0.0618 -0.0897 -0.2463
 2541W        W17672  12.559  15.091   1.909  0.3725 -0.1384  0.0422
 2542W        W17673  16.641   3.684   1.093 -0.0707 -0.0058  0.1561
 2543W        W17674  17.361  17.695  10.998  0.1169 -0.1175 -0.2202
 2544W        W17675  15.564   5.410   1.730  0.1059  0.1087 -0.1786
 2545W        W17676   0.159  13.401   4.678  0.3873 -0.0162 -0.3213
 2546W        W17677  12.269  12.077   5.216 -0.1670  0.2978  0.1249
 2547W        W17678  11.550  10.846   0.137  0.0693  0.2078  0.0532
 2548W        W17679  13.493   5.480   2.918  0.1111 -0.0489 -0.2481
 2549W        W17680   7.714   8.370   0.159  0.2678 -0.3491  0.1816
 2550W        W17681   9.053  17.638   1.676  0.1241 -0.2469 -0.0245
 2551W        W17682   9.687   8.700   1.054 -0.2065  0.1504 -0.2544
 2552W        W17683  16.623   0.562   2.159 -0.2340  0.1292 -0.0011
 2553W        W17684  17.087  12.329  13.254 -0.0692  0.1783  0.2184
 2554W        W17685   0.112   5.456   4.221  0.1042  0.1101 -0.0648
 2555W        W17686  17.250  13.670  14.448  0.0602  0.1356 -0.0582
 2556W        W17687   1.186  14.987   2.338 -0.1008 -0.1585  0.0762
 2557W        W17688   8.088   8.366   4.148  0.1860 -0.0708  0.0313
 2558W        W17689   2.069   8.746   1.196 -0.0973 -0.1252 -0.2466
 2559W        W17690   4.063   8.496  13.829 -0.1481 -0.0033 -0.2650
 2560W        W17691  12.247   2.075  10.748 -0.2532 -0.2343  0.0849
 2561W        W17692  12.366   0.050   4.515  0.2262  0.2195  0.2081
 2562W        W17693   0.173   9.210  13.251 -0.1855 -0.1344 -0.2612
 2563W        W17694  13.505   6.387   1.050 -0.0475  0.2749  0.0138
 2564W        W17695  14.760   9.345  11.500 -0.1695 -0.0374  0.0235
 2565W        W17696  12.315  10.811  13.412 -0.0593 -0.1601  0.1534
 2566W        W17697   0.788  16.249  12.107 -0.2197 -0.0227  0.2122
 2567W        W17698   5.523   4.610   4.349  0.0939  0.4887 -0.1397
 2568W        W17699   9.611   2.350  14.418  0.1419 -0.0302 -0.0755
 2569W        W17700  10.901  10.467  11.671 -0.2057  0.1904  0.0213
 2570W        W17701  17.250   3.593  15.594 -0.0083  0.2841  0.1761
 2571W        W17702  12.009  12.396  12.796  0.2148 -0.0733 -0.2116
 2572W        W17703   0.657   9.666  15.839 -0.0233  0.0282 -0.0668
 2573W        W17704   2.218   7.581   4.521  0.1510 -0.1898 -0.0131
 2574W        W17705   5.513   9.417   0.752 -0.1281  0.4252 -0.3537
 2575W        W17706   1.654   1.188  10.104 -0.0983 -0.2909  0.5079
 2576W        W17707  10.625   9.368   4.519 -0.2137 -0.4596  0.0883
 2577W        W17708   5.105   3.130   0.875  0.2088 -0.1171 -0.3161
 2578W        W17709   5.306   1.162   3.471  0.0834  0.1362 -0.0117
 2579W        W17710   5.642  17.755   0.028 -0.1367  0.1725  0.1418
 2580W        W17711  16.986  15.793   2.797 -0.1793  0.2538  0.2892
 2581W        W17712  10.542  17.307  15.659 -0.2723  0.0669  0.0126
 2582W        W17713   2.518   1.250  12.519  0.0462 -0.1767  0.0026
 2583W        W17714   4.686   1.151   0.394  0.1394  0.0195 -0.0034
 2584W        W17715   6.893  12.223  11.040 -0.3197  0.1846  0.1774
 2585W        W17716  13.038  17.093  14.886  0.1929  0.1684  0.1672
 2586W        W17717   6.562  10.188   3.292 -0.1290  0.1654 -0.2534
 2587W        W17718   6.990   5.830   2.668  0.3865 -0.2949  0.0189
 2588W        W17719  17.305   9.973   4.554 -0.0231  0.1055  0.1233
 2589W        W17720  14.068  10.271   2.282 -0.0239  0.0118 -0.2651
 2590W        W17721  15.085   3.736   0.884 -0.1323  0.0550 -0.1804
 2591W        W17722  12.405  15.831   4.722 -0.0260  0.2112 -0.0347
 2592W        W17723   2.480   9.187   0.944  0.2111  0.1976  0.2310
 2593W        W17724  16.860   4.219   3.758 -0.1020  0.1852  0.0358
 2594W        W17725  17.790   7.481   5.892  0.1239  0.3446  0.0555
 2595W        W17726   7.587   9.472  14.042  0.0177  0.0818 -0.0286
 2596W        W17727   6.893   1.844  13.306 -0.0956  0.2319  0.1440
 2597W        W17728  12.608  11.887  13.565  0.0080 -0.1430 -0.1730
 2598W        W17729   2.033   8.491  14.083 -0.1950 -0.4381 -0.3025
 2599W        W17730   5.598   2.934  15.297  0.0296  0.3607  0.1550
 2600W        W17731  12.891  18.147   4.444 -0.0716 -0.1437 -0.0444
 2601W        W17732  17.362   4.721  14.593 -0.2244 -0.2349  0.0074
 2602W        W17733   9.757  15.493   3.573  0.1545 -0.0464 -0.1612
 2603W        W17734   1.119  10.245  13.080 -0.1134  0.3306 -0.1570
 2604W        W17735   8.810  17.607   9.880  0.2396  0.1378 -0.1449
 2605W        W17736   6.184   7.572  15.607  0.1530  0.3307 -0.1972
 2606W        W17737  14.478   6.285   0.960 -0.1266 -0.3178  0.1487
 2607W        W17738   3.892  13.775  11.427  0.0966  0.2939 -0.0372
 2608W        W17739   7.060  15.305  11.279 -0.1966  0.0753 -0.1990
 2609W        W17740   8.506   0.909   0.276  0.1536  0.1308  0.2106
 2610W        W17741  10.123   8.977  15.975 -0.2241 -0.1670 -0.0687
 2611W        W17742   5.462   7.609   1.341  0.2266  0.0038  0.0511
 2612W        W17743  10.811   0.930   3.673  0.0102 -0.0994  0.0073
 2613W        W17744   4.770  12.124  16.122 -0.1351  0.2458 -0.2925
 2614W        W17745  13.346   3.659   4.377  0.0871 -0.1914 -0.2626
 2615W        W17746  12.817   3.765   5.620  0.2229 -0.2021  0.0892
 2616W        W17747   4.346   8.622  13.453  0.0428  0.2009 -0.2816
 2617W        W17748  15.850  11.007  12.722  0.1701 -0.3341  0.0118
 2618W        W17749  15.309   9.570   5.978  0.2754 -0.1482 -0.1866
 2619W        W17750   1.201   5.289   3.247  0.0394  0.1521 -0.1617
 2620W        W17751  12.407  12.939   1.376  0.1079  0.0815 -0.0294
 2621W        W17752   0.784  16.481   0.763 -0.0166  0.1072  0.0135
 2622W        W17753  18.049  13.286   3.291 -0.1515  0.2797 -0.3538
 2623W        W17754  10.685   5.166   4.918 -0.3412  0.2809  0.2197
 2624W        W17755   4.619   8.337  11.838 -0.1834 -0.0650  0.0541
 2625W        W17756   2.289  11.666   1.012  0.2329 -0.1441 -0.1440
 2626W        W17757  10.018   8.364  14.859 -0.1770  0.1490  0.1341
 2627W        W17758  17.720   1.343  14.461  0.1260  0.1108  0.0093
 2628W        W17759  16.433   9.838  11.614 -0.0824 -0.3062  0.2284
 2629W        W17760   8.380   3.108  11.279  0.0910  0.0549 -0.0417
 2630W        W17761   3.392   1.975   2.431 -0.2693  0.1580 -0.1967
 2631W        W17762   4.381   4.292  15.492  0.2054  0.0879 -0.0576
 2632W        W17763  15.427   3.558  14.362  0.4306 -0.0043 -0.1513
 2633W        W17764   3.365  11.219  15.977  0.0504  0.0841 -0.1307
 2634W        W17765  13.237   6.814   0.165  0.0439 -0.1078 -0.0830
 2635W        W17766  16.831   1.108  11.067 -0.0145 -0.4017  0.0614
 2636W        W17767  10.355   2.632   0.226 -0.1830  0.1068 -0.1083
 2637W        W17768   4.326   5.643  14.277  0.1404  0.0984  0.0233
 2638W        W17769   8.415   9.783  13.831  0.0266  0.0379 -0.2374
 2639W        W17770  12.444   6.379  15.056  0.2737 -0.2587 -0.1794
 2640W        W17771  17.107   6.416   2.593  0.0250 -0.0307  0.0014
 2641W        W17772   8.328  10.085  11.674 -0.0461 -0.0151 -0.1341
 2642W        W17773   8.965   0.767   2.988  0.3401 -0.1423  0.3909
 2643W        W17774  10.986   0.042  12.621 -0.0782 -0.1120  0.0413
 2644W        W17775   3.106  12.608  14.900  0.0485  0.4369  0.2472
 2645W        W17776  11.728   3.517  15.110  0.6107  0.1180 -0.1237
 2646W        W17777  17.805   6.666   0.024 -0.1773 -0.0155 -0.0517
 2647W        W17778   8.029   1.374   0.577 -0.0725 -0.1737 -0.0350
 2648W        W17779   6.162  11.346   9.892 -0.0715  0.0037  0.2576
 2649W        W17780   1.191   0.712   5.173 -0.1089 -0.5729  0.0456
 2650W        W17781  13.895   6.122   4.038 -0.0191  0.0388  0.1335
 2651W        W17782   2.026  16.887  13.306 -0.1112 -0.1707 -0.1064
 2652W        W17783   0.234  17.708   0.773  0.0007 -0.0550  0.2273
 2653W        W17784   3.931   3.616  10.897  0.0587  0.1787  0.1454
 2654W        W17785   2.282   6.357   3.915 -0.3828  0.2814  0.0628
 2655W        W17786   8.752   2.420  15.615  0.0123  0.2067  0.0117
 2656W        W17787   1.572  17.644  11.772  0.2270 -0.0165 -0.2594
 2657W        W17788   6.950  11.925   9.589  0.4137  0.4389  0.2066
 2658W        W17789   0.634  12.656   6.387  0.2344  0.0386 -0.1019
 2659W        W17790   5.146  15.756  13.796  0.3094 -0.1351 -0.0334
 2660W        W17791   2.412   1.228  13.247  0.4137 -0.1944  0.0499
 2661W        W17792   9.778   8.197   5.647  0.3231  0.0284 -0.2182
 2662W        W17793  13.886   3.449   4.381 -0.1158  0.1135 -0.4334
 2663W        W17794  10.461   2.313   2.573 -0.0674 -0.3691 -0.0160
 2664W        W17795   5.832   9.815  14.243 -0.1141 -0.2408  0.0185
 2665W        W17796   5.937  11.298  14.790 -0.3349 -0.1509 -0.0993
 2666W        W17797  10.983  10.012   3.834 -0.0338 -0.1168 -0.0210
 2667W        W17798   4.669   7.522   3.227 -0.1498  0.2473  0.0893
 2668W        W17799   6.931   3.958   5.131 -0.1664 -0.3764 -0.0214
 2669W        W17800  16.603   9.820   2.173 -0.0274 -0.0171  0.0957
 2670W        W17801   0.946   4.907  13.873 -0.0553 -0.0552 -0.0382
 2671W        W17802  17.663  10.179   0.967  0.0197 -0.1463  0.1652
 2672W        W17803   3.766  11.521  15.973  0.0657  0.3880  0.0436
 2673W        W17804   3.029   2.448  15.562 -0.0205 -0.2110  0.1759
 2674W        W17805   2.644  16.652   0.796 -0.0565 -0.0276 -0.2536
 2675W        W17806  11.584   1.496  11.732 -0.1318  0.1335 -0.2316
 2676W        W17807   3.797  15.105   2.866  0.2623  0.1589 -0.1351
 2677W        W17808   6.128  10.182   0.384  0.1137  0.2032 -0.0622
 2678W        W17809   7.482  14.189   2.374  0.2214 -0.2084  0.3032
 2679W        W17810  17.598   8.763   0.198  0.3308 -0.0303  0.0232
 2680W        W17811  17.499  17.258   1.996  0.0834  0.3268  0.0679
 2681W        W17812   6.210  12.135   0.852  0.1521  0.1059 -0.0040
 2682W        W17813   5.426   4.772  11.570 -0.1247 -0.0663 -0.0962
 2683W        W17814  13.475   5.303  11.753  0.3251  0.0147  0.0405
 2684W        W17815  16.335  17.820   2.108 -0.1197 -0.0466 -0.1577
 2685W        W17816  16.764   6.321  13.571  0.1111  0.0281  0.0081
 2686W        W17817   9.407   5.883  13.678  0.1978 -0.0037 -0.2875
 2687W        W17818  10.440  10.075   0.052  0.0871 -0.0252  0.2437
 2688W        W17819   0.434   8.168  13.268  0.2130  0.0612  0.0283
 2689W        W17820   2.195   3.424   2.007 -0.2569  0.1591 -0.0489
 2690W        W17821   5.912   9.235   4.883 -0.0204 -0.1272 -0.1651
 2691W        W17822  11.585   7.000  15.020 -0.0128  0.0491 -0.1746
 2692W        W17823  14.960   0.160   0.000 -0.1414  0.2516  0.0430
 2693W        W17824   7.126   7.888  11.049 -0.1049  0.0547  0.1257
 2694W        W17825   2.300  12.123   3.904  0.1655 -0.3394  0.4981
 2695W        W17826   7.763  17.767  10.717 -0.1201  0.1415 -0.0298
 2696W        W17827   1.367   7.525  12.382  0.1941  0.0945 -0.1130
 2697W        W17828  12.366   3.504   5.219 -0.0160  0.0434 -0.3446
 2698W        W17829  13.620  14.015   0.000 -0.0530  0.4004 -0.1928
 2699W        W17830   4.842   0.898   5.102 -0.0386 -0.1116  0.1573
 2700W        W17831   5.270  11.364   2.092  0.0878  0.2116  0.1012
 2701W        W17832  14.136  18.047   1.269 -0.0937  0.3319 -0.0670
 2702W        W17833   2.946   5.014  14.159  0.1382  0.0039 -0.0661
 2703W        W17834   5.880   7.961   5.427  0.0413  0.2581 -0.1249
 2704W        W17835   5.750   7.418   3.038 -0.0697  0.0279 -0.0644
 2705W        W17836   7.102   1.294   3.081  0.1398 -0.3481 -0.0122
 2706W        W17837   3.886   9.331  11.489 -0.0716  0.2830 -0.0490
 2707W        W17838   1.376  15.318   3.692  0.4530 -0.0373  0.2884
 2708W        W17839   8.269   7.393   4.659 -0.0864  0.1093 -0.1022
 2709W        W17840   5.167  16.567   2.800 -0.2105  0.0364  0.0751
 2710W        W17841   4.048   0.267   1.115  0.1258 -0.0503 -0.0632
 2711W        W17842  12.187  17.940  12.673 -0.1684  0.2282  0.1077
 2712W        W17843   5.887  10.930  13.061 -0.0785 -0.1772 -0.0010
 2713W        W17844  12.979   6.470   0.422  0.0499  0.2227 -0.1154
 2714W        W17845  18.130   8.650  12.396  0.0960 -0.4456  0.3352
 2715W        W17846   8.165   6.630   4.717  0.0205 -0.2055  0.2205
 2716W        W17847   5.058   4.973  12.462  0.2265  0.2112 -0.3653
 2717W        W17848  15.398  16.451   2.458  0.1044  0.3568  0.0037
 2718W        W17849   2.127  15.988   4.364  0.0008  0.2187 -0.0639
 2719W        W17850  10.580   3.545   1.474 -0.0723  0.4200 -0.2257
 2720W        W17851   2.056   0.748  15.795 -0.0170 -0.0559 -0.2749
 2721W        W17852  15.803   2.711   1.506 -0.0544  0.2830 -0.0879
 2722W        W17853   5.528  10.663  11.757  0.0287  0.1308 -0.0056
 2723W        W17854   0.478  12.154  15.527 -0.2434  0.1963  0.3392
 2724W        W17855   7.041  10.059   0.382  0.0974  0.1196 -0.1456
 2725W        W17856   7.589  13.195  10.615 -0.1951 -0.2419  0.0382
 2726W        W17857   1.586  18.004   6.059 -0.1377  0.1132  0.0099
 2727W        W17858  14.496   7.792  11.749  0.0332  0.2351  0.0410
 2728W        W17859  17.121   5.354   4.615 -0.1671 -0.0889  0.1271
 2729W        W17860   1.133  17.928   3.514  0.1878  0.2379  0.1768
 2730W        W17861  16.468  13.264  15.178 -0.0794  0.0689 -0.0653
 2731W        W17862   7.887  17.580   1.550  0.2438  0.1134 -0.0260
 2732W        W17863   3.228   7.260  12.709 -0.0084  0.0223  0.3288
 2733W        W17864  14.257  14.315   0.044  0.3392 -0.2918  0.2383
 2734W        W17865   6.397  10.578  13.151  0.2851  0.1094  0.2519
 2735W        W17866   6.520   7.809  15.345 -0.0304 -0.1366 -0.0012
 2736W        W17867   0.418  17.485   1.807  0.0597  0.2204  0.2329
 2737W        W17868   2.151  15.207   0.469  0.0070 -0.1777  0.0135
 2738W        W17869   9.869   6.430  14.531  0.0352 -0.2782  0.1463
 2739W        W17870  10.822   5.332  11.531 -0.1725 -0.1927 -0.0922
 2740W        W17871  17.133  13.637   1.467  0.1142 -0.1798 -0.0629
 2741W        W17872   3.130  16.684   0.900 -0.0975  0.1449  0.2280
 2742W        W17873   6.583   5.022  15.701 -0.2174 -0.0693  0.2027
 2743W        W17874   1.742  14.550  15.979  0.0081 -0.1604 -0.1069
 2744W        W17875   7.696   2.384   2.309  0.1036  0.1083  0.1613
 2745W        W17876  12.910  14.226   1.784  0.0161 -0.3555 -0.0936
 2746W        W17877   4.601   4.688  11.785 -0.2100 -0.0764 -0.1304
 2747W        W17878  10.485   3.476  12.261 -0.3171 -0.4032 -0.1463
 2748W        W17879   2.961   2.291   2.619 -0.0887 -0.1813 -0.1762
 2749W        W17880   3.070   3.375  13.638  0.1442  0.2065  0.2488
 2750W        W17881   4.619  14.056   0.722 -0.1059 -0.0288 -0.0743
 2751W        W17882  16.653  14.684  15.928  0.1426 -0.3954  0.3567
 2752W        W17883  17.958  12.078   2.587  0.0970  0.4463 -0.1400
 2753W        W17884   6.024  13.489   3.375 -0.2866  0.1608 -0.0225
 2754W        W17885  12.223   1.289   5.736  0.5335 -0.0587  0.1304
 2755W        W17886   4.859  16.558   5.574 -0.1452  0.0544  0.0455
 2756W        W17887   5.678  10.122   2.010 -0.0279 -0.1170 -0.0513
 2757W        W17888  16.397   6.326   5.166 -0.0868 -0.1678  0.2767
 2758W        W17889   7.849  10.483  14.242 -0.4041  0.0380 -0.1510
 2759W        W17890   5.961   7.121   2.053  0.0379 -0.0915 -0.2957
 2760W        W17891  10.617  10.289  12.871 -0.0867  0.0807 -0.0883
 2761W        W17892   0.702  15.132  14.124  0.1303 -0.2401  0.0477
 2762W        W17893   1.713   4.877   4.369 -0.3320 -0.3375 -0.1888
 2763W        W17894  15.176   8.039  14.465  0.3971 -0.0012 -0.1909
 2764W        W17895  16.509   5.668   1.015  0.2487  0.3168  0.1125
 2765W        W17896  12.005  17.679   1.929 -0.2779  0.1758 -0.1422
 2766W        W17897  17.614  10.130   5.436 -0.2153  0.0763  0.1293
 2767W        W17898   6.353  17.359  13.119  0.0211 -0.2059  0.5033
 2768W        W17899   3.837   4.280  14.772 -0.0316  0.1788  0.1900
 2769W        W17900   5.129   9.126  15.080 -0.2097  0.0371  0.0621
 2770W        W17901   7.464  14.530   1.154 -0.3402 -0.2012 -0.1261
 2771W        W17902   7.530   7.656  15.738 -0.2005 -0.0787 -0.1817
 2772W        W17903  15.351  13.027  15.831 -0.1060 -0.0434  0.0474
 2773W        W17904   7.942   8.900  11.531  0.0343  0.0718  0.0636
 2774W        W17905  15.956   1.576  13.467  0.0842  0.1226  0.1436
 2775W        W17906  17.460   6.558   5.824  0.0801 -0.5241  0.1812
 2776W        W17907   0.558   3.990  10.382  0.3006  0.0278 -0.0186
 2777W        W17908   4.421   4.895  14.442 -0.1351 -0.2518 -0.0184
 2778W        W17909  17.136  14.246  13.662  0.0026 -0.1666  0.0290
 2779W        W17910   0.003   7.097   4.123  0.0687 -0.1613  0.0507
 2780W        W17911  12.500  16.386  15.370  0.0249  0.0093  0.0286
 2781W        W17912   8.427  15.887   1.284  0.0442 -0.1650 -0.2024
 2782W        W17913   4.290   2.681   0.608  0.3907  0.3578  0.2723
 2783W        W17914   3.378   9.471   4.347  0.1138 -0.1373  0.1381
 2784W        W17915   2.346  14.883  14.334 -0.0284 -0.0927 -0.2026
 2785W        W17916   7.010  11.325  12.251  0.0447 -0.0143 -0.1095
 2786W        W17917   9.645  10.495   2.747  0.3333 -0.1644 -0.4074
 2787W        W17918   1.532  13.909  16.215  0.3901 -0.1198 -0.0522
 2788W        W17919   6.436  17.852  13.447 -0.1607  0.1667  0.5103
 2789W        W17920   0.082  12.197  15.192 -0.1231 -0.1015  0.0157
 2790W        W17921  11.282   8.044  14.879 -0.0354  0.0851  0.1307
 2791W        W17922   1.690  13.014   0.573  0.2827 -0.2143  0.1127
 2792W        W17923  15.692   7.846  13.686 -0.2819  0.4413 -0.1239
 2793W        W17924  13.699   7.743   4.201 -0.1298  0.0406 -0.0269
 2794W        W17925  11.355   4.144   3.350 -0.1066  0.0957  0.0632
 2795W        W17926   0.397   9.077   1.389 -0.0574 -0.0503  0.4393
 2796W        W17927   7.483   5.117   2.182  0.0533  0.1317  0.1652
 2797W        W17928  15.191   4.183  14.977 -0.2820 -0.0120 -0.3623
 2798W        W17929   8.455  10.295   3.898  0.4226  0.0415  0.0166
 2799W        W17930   1.471  14.993  14.682  0.1271  0.0090  0.0614
 2800W        W17931   4.450   7.255   2.384  0.0428  0.0624 -0.2501
 2801W        W17932  11.720   1.993   3.333  0.2754 -0.0415 -0.0620
 2802W        W17933  10.095   4.458   1.375 -0.1494  0.0400  0.1604
 2803W        W17934  10.881   4.269  11.114  0.4595  0.1739  0.2422
 2804W        W17935   0.228   2.497  12.641  0.2441 -0.1904 -0.3243
 2805W        W17936   2.934  14.906   3.087  0.0648  0.2924 -0.2164
 2806W        W17937   6.497   5.253  14.157 -0.1096  0.0502 -0.0917
 2807W        W17938   1.107   4.666   3.869  0.2387  0.0314 -0.0038
 2808W        W17939  15.325  16.368  10.981 -0.0563  0.1895  0.3767
 2809W        W17940   0.067   6.637  14.255 -0.1339  0.1886 -0.0249
 2810W        W17941   0.018  10.633  11.733  0.2742  0.0731  0.1959
 2811W        W17942  17.518  11.451   1.448  0.1499  0.2831 -0.0819
 2812W        W17943   3.588  17.537   2.795  0.2309 -0.1774 -0.0771
 2813W        W17944   9.970  14.488  13.276  0.0637  0.3307 -0.1481
 2814W        W17945   4.944   9.085  15.909 -0.0233  0.1006 -0.1269
 2815W        W17946  13.659   6.309  11.773  0.0510  0.0926  0.0808
 2816W        W17947   7.991  12.555   4.755 -0.0890  0.0261  0.1870
 2817W        W17948   0.978   0.412   3.374  0.0972  0.0604  0.4796
 2818W        W17949   1.530   2.129   2.659  0.0971  0.4629 -0.0906
 2819W        W17950  15.845  11.936  14.790 -0.2692 -0.2513 -0.3820
 2820W        W17951   7.766  13.331  14.596  0.2459  0.0468  0.0108
 2821W        W17952  11.682   8.236  12.577 -0.2808  0.1177 -0.0506
 2822W        W17953   2.395   8.049   5.215  0.1396 -0.0795  0.0658
 2823W        W17954   2.735  10.528  10.719 -0.0782 -0.2197 -0.2583
 2824W        W17955  17.940  16.613   3.247  0.1234  0.0570 -0.3520
 2825W        W17956  10.032   0.599  14.925  0.0630 -0.2919 -0.1844
 2826W        W17957   6.385   8.407   0.696  0.0678 -0.1036 -0.0055
 2827W        W17958  10.777   1.519  13.700 -0.1359  0.0019  0.1653
 2828W        W17959   1.805  13.535   5.366 -0.1592  0.4034 -0.0007
 2829W        W17960   6.318  10.413   5.042 -0.3947  0.2969 -0.3075
 2830W        W17961   6.983   1.736  16.027 -0.0633  0.0232 -0.0513
 2831W        W17962   1.989   4.474   5.174  0.0417 -0.1311  0.2891
 2832W        W17963  13.783  12.092   5.669 -0.0248  0.2979  0.3787
 2833W        W17964   2.785   3.377  15.582 -0.1955 -0.2477 -0.2061
 2834W        W17965   5.363   0.205  10.618  0.0630 -0.0684 -0.2730
 2835W        W17966   1.448  11.790   0.384  0.0267  0.1684 -0.3671
 2836W        W17967   3.195  17.268   0.984 -0.0073 -0.0820 -0.4640
 2837W        W17968   4.597  12.950  13.719  0.2002  0.2587  0.0601
 2838W        W17969   7.054   4.926   0.803  0.0982  0.2171 -0.2377
 2839W        W17970   4.644   6.193  12.950 -0.0003  0.0276  0.2007
 2840W        W17971   1.630   9.415   4.332 -0.0048 -0.2330 -0.2318
 2841W        W17972   5.345  17.275   3.779 -0.1430 -0.1870  0.0235
 2842W        W17973   6.728   1.933   3.780  0.0200 -0.3003  0.1029
 2843W        W17974  15.371   3.674  11.737  0.2296  0.1033 -0.1209
 2844W        W17975  16.581   8.156   5.644 -0.0688  0.0106 -0.2398
 2845W        W17976   3.743  16.015   1.213 -0.0369 -0.2186 -0.1426
 2846W        W17977  16.638   9.356  12.604 -0.3585  0.1233  0.1631
 2847W        W17978   3.901   7.517   3.885 -0.1166 -0.0564 -0.0766
 2848W        W17979   7.807   9.907  15.072 -0.4305 -0.0401  0.0699
 2849W        W17980  13.497  18.063   0.088 -0.2259 -0.1564  0.0572
 2850W        W17981   1.055   3.582  16.075 -0.0138 -0.1790 -0.1345
 2851W        W17982  14.428   9.911  12.928 -0.1821  0.0537  0.0587
 2852W        W17983  12.215  16.687   5.793 -0.2970 -0.1041 -0.3289
 2853W        W17984   1.342  12.301   4.704 -0.0610 -0.1300  0.0157
 2854W        W17985  10.763   8.941  13.921 -0.2219  0.0925  0.2022
 2855W        W17986   7.939   8.873   2.526  0.0077 -0.2304  0.1433
 2856W        W17987   8.126   3.055  10.871  0.0295 -0.0348  0.1232
 2857W        W17988  14.432   2.584  13.335  0.0895 -0.2233 -0.2907
 2858W        W17989   2.739  12.308  13.836 -0.1249 -0.2657 -0.2899
 2859W        W17990   4.676   0.249  14.111  0.0220 -0.0946  0.1625
 2860W        W17991  14.351   9.665  15.420  0.0105 -0.1444  0.2274
 2861W        W17992   1.759   5.345   3.209 -0.0389 -0.1178 -0.2920
 2862W        W17993   4.856  11.991   9.955  0.0248  0.2210  0.0785
 2863W        W17994  11.163  12.205  15.819 -0.1350 -0.0138 -0.0414
 2864W        W17995  17.920   0.336  10.979  0.0129 -0.0322  0.1827
 2865W        W17996  17.295   9.310   0.943  0.0510  0.2314  0.1891
 2866W        W17997   7.289   8.232  12.759 -0.0520 -0.0279  0.1059
 2867W        W17998   4.819  10.432  13.376  0.1163  0.0204 -0.1447
 2868W        W17999   7.276   7.276   2.803  0.2961  0.3242 -0.0265
 2869W        W18000   6.391  17.952   2.171 -0.3120 -0.2934 -0.2093
 2870W        W18001   3.594   9.479   4.796  0.0040 -0.2474  0.1795
 2871W        W18002  16.937   8.505  13.633 -0.2470 -0.3960  0.0758
 2872W        W18003  15.827  11.155   4.442  0.0267 -0.1362  0.3966
 2873W        W18004  14.033   2.004  11.164 -0.1508 -0.2745  0.0507
 2874W        W18005   0.362   3.525  12.513 -0.2040  0.1935 -0.2381
 2875W        W18006  13.709  10.701   1.541 -0.1131  0.0935 -0.3345
 2876W        W18007  13.010   0.511  11.187 -0.3027  0.0191  0.1324
 2877W        W18008   4.204  17.044   3.746  0.0479  0.1502 -0.0559
 2878W        W18009   6.007  11.828  12.682 -0.0660 -0.0237  0.0388
 2879W        W18010   7.780   1.903   4.699  0.0676  0.2458 -0.0269
 2880W        W18011   9.075  10.694   3.621  0.2933 -0.1451 -0.0041
 2881W        W18012  11.658   9.727  16.187 -0.3508  0.2841  0.0646
 2882W        W18013   6.641   6.503   1.070 -0.2355  0.2725 -0.0250
 2883W        W18014   6.066   4.088  14.132 -0.3611 -0.3030  0.0561
 2884W        W18015   9.052  11.327  14.496  0.2912 -0.0598  0.0246
 2885W        W18016   1.362   3.829   1.504  0.2234  0.2091 -0.0543
 2886W        W18017   9.256   0.582   3.403 -0.0932 -0.0125  0.3083
 2887W        W18018   9.933   1.679   3.431 -0.0752 -0.1367  0.1739
 2888W        W18019  12.980   3.250   3.140  0.1480  0.0511  0.0657
 2889W        W18020   4.532  13.670  10.956  0.0192 -0.0050  0.0103
 2890W        W18021   9.086  11.330   3.878 -0.0479  0.3186  0.1379
 2891W        W18022   3.856  13.434   0.184  0.1054  0.0749 -0.0543
 2892W        W18023   7.572  14.748  11.788 -0.1761  0.0442  0.2843
 2893W        W18024  15.437   0.568   4.865  0.1685 -0.1249  0.2756
 2894W        W18025  15.495   3.263   4.502  0.0772  0.3972  0.2039
 2895W        W18026   6.708  11.269   4.581 -0.1839 -0.2492  0.2339
 2896W        W18027   7.195   7.408  13.342  0.0979 -0.0307  0.0916
 2897W        W18028   1.965   8.052  16.130  0.2372  0.0726  0.0008
 2898W        W18029   8.219  17.533  15.289 -0.1923  0.0843  0.0480
 2899W        W18030  15.205   0.699  14.559  0.0856 -0.1389 -0.0247
 2900W        W18031  15.135  12.306  14.307 -0.2337  0.3558  0.0455
 2901W        W18032   0.378  16.913   5.351  0.0935  0.1288 -0.0273
 2902W        W18033   7.987   3.465   0.830 -0.3230 -0.0601  0.2638
 2903W        W18034  16.468   5.829   3.090  0.0878 -0.1691  0.2820
 2904W        W18035   3.258  10.426  10.815  0.0991  0.1619  0.1581
 2905W        W18036  15.404   4.722   0.194  0.1526 -0.1133  0.1221
 2906W        W18037  13.286  14.349   0.138  0.5179  0.0675 -0.1087
 2907W        W18038  10.402  16.698   0.426  0.0661  0.2348  0.2624
 2908W        W18039  18.064  14.599   3.234  0.0798 -0.2356 -0.1581
 2909W        W18040   4.792   3.567   5.518  0.0515  0.5290 -0.0148
 2910W        W18041   2.685  13.074   4.993  0.0886 -0.0058  0.0330
 2911W        W18042  16.800  14.109  14.755  0.0443  0.0016  0.2543
 2912W        W18043   1.247   3.023   3.151  0.3696  0.3654 -0.0540
 2913W        W18044   8.383   4.566  11.608  0.0206  0.0032 -0.2965
 2914W        W18045  14.328   7.611   3.274  0.0062  0.3154  0.1353
 2915W        W18046   2.858   4.257   4.830  0.0678  0.0541  0.0992
 2916W        W18047  14.806  14.034   3.665  0.1100  0.0191 -0.3079
 2917W        W18048  11.746   3.285   0.142 -0.0598  0.1112 -0.0680
 2918W        W18049   4.049  15.744   0.901  0.0264  0.1179  0.0974
 2919W        W18050  15.940   0.967  11.605 -0.1381  0.0891 -0.0675
 2920W        W18051   4.162   5.153   2.173  0.1098  0.0163  0.2739
 2921W        W18052  16.017   5.719   0.937 -0.1221  0.1595 -0.0829
 2922W        W18053   4.307   4.089   2.531 -0.0631 -0.0876 -0.0363
 2923W        W18054   9.444  13.687   1.574 -0.1292 -0.0782 -0.1797
 2924W        W18055   4.453  17.394  14.974  0.0836 -0.1605 -0.0065
 2925W        W18056  16.418  15.623   5.352 -0.1565  0.2657 -0.1782
 2926W        W18057  16.278  17.886   6.155  0.0302 -0.0905 -0.4548
 2927W        W18058   8.307  12.940  14.947 -0.1960 -0.0545 -0.1492
 2928W        W18059   5.170   8.436   2.158  0.2890 -0.0919 -0.0140
 2929W        W18060  11.845   6.364  13.373 -0.1534 -0.1285 -0.3666
 2930W        W18061  17.018  14.118   4.736 -0.1625 -0.1682 -0.0312
 2931W        W18062   9.877  15.875   0.908 -0.1274 -0.0647  0.1098
 2932W        W18063   3.627  14.447  12.813  0.3520 -0.0152 -0.0640
 2933W        W18064   8.405   9.644  11.319 -0.0020 -0.1076 -0.0693
 2934W        W18065  13.738   4.063   4.027 -0.2450  0.2499  0.1023
 2935W        W18066   4.737   4.269   1.368  0.5109  0.1683  0.4061
 2936W        W18067  13.128  14.134  14.090 -0.1594 -0.0796  0.0888
 2937W        W18068  16.139   5.975  14.308 -0.1505 -0.0289 -0.1704
 2938W        W18069   5.674  12.382   9.629 -0.1172 -0.1069 -0.2038
 2939W        W18070   7.041  13.970  11.369  0.1554  0.0666 -0.2080
 2940W        W18071   6.242   4.224  11.228 -0.0471  0.0572 -0.3077
 2941W        W18072   1.074   0.271   2.156 -0.3353  0.3847 -0.0936
 2942W        W18073  11.371  14.278  12.309  0.1047 -0.3682 -0.3131
 2943W        W18074  17.497  14.195   3.560  0.1654 -0.0528 -0.2554
 2944W        W18075  13.916  15.600  14.914 -0.2230  0.1504  0.0033
 2945W        W18076  10.179  15.157   1.382  0.1956  0.0724 -0.0848
 2946W        W18077  11.083   2.573   1.660 -0.1016 -0.3868 -0.3094
 2947W        W18078  13.246   3.321  15.363 -0.1385 -0.0347 -0.0718
 2948W        W18079   2.362  11.139   1.288  0.0197  0.0846 -0.1247
 2949W        W18080  11.777   6.346   2.163 -0.0797  0.0909  0.0749
 2950W        W18081   7.702   1.634  10.245  0.2229 -0.0434  0.2367
 2951W        W18082   4.403   8.432   2.882 -0.4565 -0.0579 -0.0831
 2952W        W18083   5.196  17.528   3.381  0.2164 -0.0600  0.2587
 2953W        W18084  17.295   6.647   4.999  0.1083 -0.0202 -0.2560
 2954W        W18085  15.387   2.687  14.846 -0.1496 -0.3696  0.0254
 2955W        W18086   7.382  16.658  15.070  0.1220 -0.1125  0.1454
 2956W        W18087  16.995  14.359  11.146  0.1368 -0.2191  0.0083
 2957W        W18088  15.878  10.438   4.739 -0.2259  0.0588 -0.1753
 2958W        W18089   2.916   0.926  13.420  0.1345  0.1674 -0.1850
 2959W        W18090   5.268   5.828   3.407 -0.2345 -0.1220  0.0682
 2960W        W18091  15.711  11.588  12.557 -0.1073 -0.0301 -0.0453
 2961W        W18092  11.146  14.721   1.612  0.3179  0.2168  0.0345
 2962W        W18093  11.096   3.439   1.237 -0.1148 -0.0584 -0.3499
 2963W        W18094  15.515   7.070  11.254  0.1304  0.0815  0.0336
 2964W        W18095  10.706  14.412  15.345 -0.0591  0.2677 -0.0311
 2965W        W18096  16.079   7.707   0.035  0.0968  0.2285 -0.2560
 2966W        W18097   1.772   7.901  13.548  0.2062  0.0068 -0.2688
 2967W        W18098   4.396   6.117  11.952  0.1417 -0.4936  0.0728
 2968W        W18099   9.313   2.137  12.814  0.1402 -0.2577  0.0996
 2969W        W18100   8.477   1.530   3.385 -0.1929 -0.1406 -0.0974
 2970W        W18101   8.546   5.452  11.625 -0.0789  0.2326 -0.0458
 2971W        W18102   5.976   9.580  10.509  0.3438 -0.0357 -0.1867
 2972W        W18103  10.382   6.882   4.292  0.0212  0.1598  0.1995
 2973W        W18104  10.160  16.874   0.928 -0.0544 -0.2665 -0.0840
 2974W        W18105  16.241   3.376   2.399 -0.0004 -0.0035  0.0586
 2975W        W18106   6.749  11.578  14.302 -0.1886 -0.1315  0.0322
 2976W        W18107   7.528   3.546   4.568 -0.4532  0.1122 -0.0381
 2977W        W18108   0.654   8.578   0.539 -0.1320 -0.0831 -0.3095
 2978W        W18109   2.835   7.247   5.366  0.1137 -0.3660  0.0138
 2979W        W18110  16.337  15.347   3.349 -0.1021 -0.0389 -0.0558
 2980W        W18111   4.153   5.526   4.027  0.2237  0.0122  0.1443
 2981W        W18112   4.413   6.631  12.817  0.0957 -0.0042  0.1171
 2982W        W18113  14.323  10.032   2.713  0.0302  0.0506  0.1888
 2983W        W18114   3.613   2.594   5.328 -0.0155  0.2568  0.0294
 2984W        W18115   0.892  12.687  12.197  0.0173  0.4428 -0.2042
 2985W        W18116   9.540   6.582  15.674 -0.6434 -0.1896 -0.2317
 2986W        W18117   2.723   5.039  10.588  0.2259 -0.3187  0.2417
 2987W        W18118  10.045   8.899   5.166  0.0788 -0.1388  0.2742
 2988W        W18119   8.978   0.859   4.258 -0.1647 -0.2273 -0.0839
 2989W        W18120  16.126  12.276  13.398  0.0165  0.0651 -0.0580
 2990W        W18121  11.306  13.661   2.680  0.4277 -0.3081 -0.2218
 2991W        W18122  13.737   5.550  15.265  0.0149  0.2023  0.0193
 2992W        W18123   3.624  14.729   4.888 -0.1622  0.1099  0.3963
 2993W        W18124  10.212  13.539  12.971 -0.1842 -0.0416 -0.0708
 2994W        W18125   8.904   6.413  14.743  0.1390 -0.0445  0.3393
 2995W        W18126   1.269  12.097   3.687 -0.0943 -0.0577 -0.0808
 2996W        W18127   8.106  13.837   3.989 -0.2960  0.0644  0.1453
 2997W        W18128   9.176   8.024  13.306 -0.0166  0.1059  0.1811
 2998W        W18129  16.434   8.377  13.710  0.1861  0.0415 -0.0901
 2999W        W18130   5.388   9.167   3.562 -0.1086 -0.0289  0.2434
 3000W        W18131   5.584   7.277  11.735 -0.1085 -0.0298  0.0238
 3001W        W18132  12.112   4.893   3.332  0.1275 -0.1381  0.3941
 3002W        W18133   6.718  18.120   2.590  0.2150 -0.0045 -0.2041
 3003W        W18134   7.208   0.655  10.922 -0.0054 -0.1742  0.2318
 3004W        W18135   9.218  17.787  15.117 -0.4770 -0.1580 -0.1546
 3005W        W18136  11.488   8.184   0.017 -0.0446 -0.1976  0.0742
 3006W        W18137   1.705  12.758  10.878 -0.1961  0.2048  0.0708
 3007W        W18138   1.318   3.702   3.853  0.0653  0.0602  0.0929
 3008W        W18139  14.496  14.414   3.847 -0.1538  0.0222  0.0336
 3009W        W18140   1.673  10.886  13.662  0.1646  0.3382 -0.3325
 3010W        W18141   3.261   9.117   0.425  0.1378 -0.1057 -0.0396
 3011W        W18142  18.042   4.124  13.896  0.2306 -0.0016 -0.0508
 3012W        W18143  13.773   7.681  12.401  0.2706  0.1705 -0.0922
 3013W        W18144  15.178   8.183  12.611  0.0382  0.1407 -0.1904
 3014W        W18145   8.132  16.009   5.008  0.0574  0.3274 -0.0986
 3015W        W18146  13.185   6.732   1.267 -0.1394 -0.0311 -0.2111
 3016W        W18147   7.684   9.282   0.380  0.0590 -0.1763  0.1784
 3017W        W18148   1.804   9.510  15.929  0.0818 -0.0082 -0.3064
 3018W        W18149   5.166   5.596   5.172 -0.0968  0.0802  0.1167
 3019W        W18150  15.062   9.104   5.851  0.2595  0.0273  0.1689
 3020W        W18151  14.784   3.896   5.526 -0.3405  0.1023 -0.3487
 3021W        W18152  16.770  16.974   0.504  0.0045 -0.0022 -0.0364
 3022W        W18153  16.667   1.755   1.283 -0.2447 -0.0090 -0.1376
 3023W        W18154  12.973   4.304   3.769  0.0015  0.2088 -0.2842
 3024W        W18155  16.642  15.451  14.815 -0.2442 -0.2345 -0.0407
 3025W        W18156   7.501  14.762  12.289 -0.2655  0.0557  0.0017
 3026W        W18157   8.210   6.693  13.717  0.0706 -0.1805  0.0234
 3027W        W18158  16.104  13.814   4.802  0.0348 -0.1109  0.4020
 3028W        W18159  17.670   9.504   3.940 -0.0074 -0.1661  0.1047
 3029W        W18160   4.439   7.150  13.370  0.1880 -0.2345  0.2616
 3030W        W18161  16.188   9.268  12.845  0.0744 -0.1703 -0.2410
 3031W        W18162   3.641   7.811  13.549  0.0309  0.2192 -0.0073
 3032W        W18163  15.786  15.870  11.511  0.1721  0.1012  0.1049
 3033W        W18164   1.350   2.400  13.593  0.2821  0.0967  0.1309
 3034W        W18165  16.328   8.138  16.132 -0.2880 -0.2086  0.0926
 3035W        W18166  17.280   3.191  13.912 -0.0710  0.2191  0.2046
 3036W        W18167   9.404  10.379  11.123 -0.2155  0.0889 -0.2824
 3037W        W18168   5.876   3.386   3.814  0.2579  0.1764 -0.1126
 3038W        W18169   6.010   4.157  14.659 -0.0150 -0.0479 -0.0002
 3039W        W18170   2.552  17.880  11.695 -0.0559 -0.0718  0.2176
 3040W        W18171  13.535  17.460  11.359  0.2534  0.1338 -0.1001
 3041W        W18172  13.391  13.757   1.054  0.0018 -0.1933 -0.1928
 3042W        W18173   2.781   7.992  14.541  0.1079 -0.1539  0.1466
 3043W        W18174   0.020   6.926   0.124 -0.2638 -0.0873  0.2084
 3044W        W18175  13.007   9.633  13.739 -0.0696 -0.0643 -0.0299
 3045W        W18176   2.515   2.776  11.085  0.2049 -0.0118  0.1418
 3046W        W18177  13.112   3.358   3.634  0.3727 -0.1518  0.0290
 3047W        W18178   4.341   9.452   0.426 -0.1351  0.0656  0.1078
 3048W        W18179   0.768  17.642  16.160 -0.2548 -0.1930  0.1675
 3049W        W18180   4.002  11.996  14.190  0.2536  0.1170 -0.3402
 3050W        W18181   6.530  17.369  10.843  0.1451 -0.0295 -0.1295
 3051W        W18182   0.077  15.870   0.098  0.0479 -0.1255 -0.0464
 3052W        W18183   2.101   8.503   4.213  0.2348  0.4046  0.1496
 3053W        W18184   9.514  16.736   1.842 -0.0080  0.1730  0.3057
 3054W        W18185   0.291   7.627  10.975 -0.1966 -0.0129  0.2135
 3055W        W18186  12.269  11.364   2.201 -0.2337  0.3103 -0.1225
 3056W        W18187  14.212   9.716   5.077  0.3274  0.0503 -0.1397
 3057W        W18188   3.163  14.421   4.917  0.2038 -0.2350  0.0456
 3058W        W18189  13.629  10.096  12.692 -0.0943  0.0703  0.3502
 3059W        W18190   0.969   2.935   1.319  0.2317 -0.0648  0.3076
 3060W        W18191   0.146  16.602   4.889  0.2764 -0.0537  0.2969
 3061W        W18192   9.845  10.715   0.428 -0.0474  0.1101  0.2344
 3062W        W18193   1.364  15.011  13.370  0.2052 -0.2061 -0.3564
 3063W        W18194  15.370  14.958   4.366  0.0695 -0.1686 -0.0375
 3064W        W18195  16.893  11.800  15.172  0.0016  0.1692  0.0960
 3065W        W18196  18.174  12.957  11.638 -0.3311 -0.4108 -0.0287
 3066W        W18197  14.510  12.604   3.562 -0.0905  0.2253 -0.2330
 3067W        W18198  13.087   9.186  11.492 -0.2105 -0.1047  0.1608
 3068W        W18199  14.192   2.013   2.466  0.0163  0.0789  0.0662
 3069W        W18200   6.014  13.627   2.861  0.0008  0.0385 -0.1175
 3070W        W18201  15.605  16.170   2.124 -0.3323 -0.0606 -0.0155
 3071W        W18202  16.570   8.232   3.369  0.1460  0.0572  0.0315
 3072W        W18203  15.946   8.883  14.882  0.0181 -0.1928 -0.0042
 3073W        W18204   8.920   1.569   3.138  0.2792  0.0711  0.3676
 3074W        W18205  18.070   7.983   1.992  0.0173 -0.0534  0.1311
 3075W        W18206   8.517   6.199   6.271  0.2329  0.1940 -0.1690
 3076W        W18207   6.714   5.879   0.844  0.2684  0.0240 -0.3048
 3077W        W18208  15.335   1.432   4.518  0.0984  0.1497  0.0567
 3078W        W18209   9.835   7.615  14.087 -0.0298 -0.1947 -0.0923
 3079W        W18210  13.288  11.178  15.497 -0.1453 -0.1450 -0.1314
 3080W        W18211  17.567  12.274  13.084 -0.2151 -0.1333 -0.0409
 3081W        W18212  11.405  14.530  11.445  0.1459 -0.1476 -0.1225
 3082W        W18213  18.026   4.402   3.119 -0.1579 -0.2697  0.2301
 3083W        W18214   3.798   1.101  14.680 -0.1348  0.0230  0.1852
 3084W        W18215  10.539   5.727   3.443  0.0910  0.3763  0.1732
 3085W        W18216   3.524   7.940  14.035  0.0977 -0.1668 -0.0590
 3086W        W18217  16.249  18.103  12.902 -0.0675  0.0380  0.0179
 3087W        W18218   0.920   7.943  13.415 -0.2581  0.0269 -0.3379
 3088W        W18219   8.989   0.320   0.869  0.3046  0.3650  0.4563
 3089W        W18220   6.624   0.083   0.671  0.1344 -0.1673 -0.1716
 3090W        W18221   8.359  17.507  14.237 -0.0377  0.0220  0.2060
 3091W        W18222   7.657  14.151   4.982  0.0725 -0.1617  0.3067
 3092W        W18223   5.441  17.376   2.073  0.1750  0.1424 -0.0462
 3093W        W18224   7.264   0.353   0.071 -0.0932  0.1398 -0.1252
 3094W        W18225  13.023   9.810   0.818 -0.0288  0.0510 -0.1718
 3095W        W18226   2.462   4.326   4.536 -0.0319 -0.1600  0.1206
 3096W        W18227   3.468   1.449   4.435 -0.0212  0.0936 -0.3441
 3097W        W18228  11.225   0.882  12.209  0.3121  0.0684  0.2151
 3098W        W18229   1.835   9.844  14.659  0.0359  0.0508 -0.2905
 3099W        W18230   1.093  15.861  11.999  0.2631 -0.0548 -0.0460
 3100W        W18231  13.308   8.368   3.811 -0.0037 -0.1210 -0.1251
 3101W        W18232  10.160  16.520  14.052 -0.1217  0.3323  0.2258
 3102W        W18233  13.471   8.853   2.973 -0.0276 -0.0185  0.0269
 3103W        W18234   4.377   3.547  11.586  0.0645  0.1268 -0.0165
 3104W        W18235   7.079   3.962  12.618  0.0144  0.0959 -0.1338
 3105W        W18236   4.955   8.497   4.096  0.1195 -0.0724 -0.1444
 3106W        W18237  13.712   3.929  12.055 -0.0162  0.4226  0.1789
 3107W        W18238   1.463  10.595  13.272  0.1014 -0.2251  0.2056
 3108W        W18239  12.082  13.255   2.657  0.0505 -0.1441 -0.0098
 3109W        W18240  12.299   4.510  13.922 -0.0861 -0.3884  0.0540
 3110W        W18241  16.611  13.143  13.164 -0.4993  0.1523  0.3794
 3111W        W18242   2.286   4.235   5.466 -0.2304 -0.2344  0.0992
 3112W        W18243  13.364   3.296  11.276  0.0362  0.1467 -0.2094
 3113W        W18244  15.528  14.352  13.185  0.0326 -0.4791  0.1869
 3114W        W18245   5.413  14.620  10.869  0.0483 -0.1383  0.0196
 3115W        W18246   8.027   1.828   3.057 -0.1514 -0.1245  0.3336
 3116W        W18247   6.037  10.898  14.027 -0.0904  0.0658 -0.0577
 3117W        W18248  16.249  17.049   4.279  0.0079  0.1287  0.3220
 3118W        W18249   4.800   0.351   5.138  0.1057 -0.3543  0.0026
 3119W        W18250  18.095  11.176   2.799 -0.1574 -0.1898  0.1413
 3120W        W18251   8.348  16.068   4.481  0.2224 -0.1266 -0.0504
 3121W        W18252   5.676  16.422   4.033  0.1054  0.2309 -0.0619
 3122W        W18253  11.842  16.328   9.876 -0.2332 -0.0931  0.1544
 3123W        W18254  10.309  15.278   4.525  0.0664 -0.2488  0.2459
 3124W        W18255   7.202  11.575   2.610  0.3600  0.0132  0.3293
 3125W        W18256  16.690  15.972  13.355 -0.2648  0.0050 -0.0235
 3126W        W18257  14.417   3.447   4.351  0.1413  0.0026 -0.2539
 3127W        W18258  12.200   0.506   1.007 -0.4465  0.2312  0.4855
 3128W        W18259   3.676   0.014  15.898 -0.0363  0.1515  0.2170
 3129W        W18260  17.151   5.938  12.967 -0.0071 -0.2633 -0.1360
 3130W        W18261  11.867  12.882   3.007  0.0191  0.1350  0.1322
 3131W        W18262   8.808   4.989   1.623 -0.3915 -0.3741  0.1101
 3132W        W18263   9.049   5.781   4.018  0.0905 -0.1977 -0.2079
 3133W        W18264   0.088  17.306   5.283 -0.0283 -0.1381  0.2533
 3134W        W18265   6.110   8.114  15.588 -0.1103  0.0339 -0.0360
 3135W        W18266  12.242   1.250   3.158  0.2902  0.1657 -0.1054
 3136W        W18267  12.618  12.168   1.850  0.2364 -0.0780 -0.0834
 3137W        W18268   6.392   1.500  14.843  0.0419  0.0577 -0.0762
 3138W        W18269  16.076   9.013  11.378  0.0723  0.1617 -0.2597
 3139W        W18270  13.619  13.714   1.530  0.1594  0.0014  0.2786
 3140W        W18271   3.208  15.696  14.907  0.2260 -0.1055 -0.1652
 3141W        W18272   7.673   5.489  15.035 -0.4082  0.2196  0.0530
 3142W        W18273   1.592   2.175  10.921  0.0572  0.1464 -0.1025
 3143W        W18274  11.396  12.600   2.198 -0.2095  0.0162 -0.2309
 3144W        W18275  15.411  10.515  11.669  0.2567 -0.0549  0.0318
 3145W        W18276  15.853  15.676   5.854 -0.1813 -0.3187 -0.0462
 3146W        W18277  15.814  11.087   3.617  0.0644 -0.4425 -0.1201
 3147W        W18278  12.620  14.779   1.076 -0.0682  0.2671 -0.1381
 3148W        W18279   1.277   7.628  15.565  0.1462  0.1149 -0.2856
 3149W        W18280   8.205  13.791   0.193  0.1525  0.1502 -0.1274
 3150W        W18281   3.576   9.313   0.979 -0.0497  0.0721 -0.1496
 3151W        W18282   3.887  12.704   3.316  0.2539  0.1190 -0.0561
 3152W        W18283  17.716  12.144   1.026  0.2622  0.0920 -0.1616
 3153W        W18284   3.934   2.691   1.075  0.1507 -0.1757  0.1993
 3154W        W18285  13.602   6.908  13.494  0.2425 -0.0764 -0.2910
 3155W        W18286   0.310  11.788  14.393  0.0814 -0.1384  0.0864
 3156W        W18287   1.847   1.843  11.245  0.0131  0.3151  0.0464
 3157W        W18288   6.374   5.102   3.186 -0.1217  0.2399 -0.0039
 3158W        W18289  10.411   5.491  16.121 -0.0659  0.1258  0.0751
 3159W        W18290  16.806   4.082   5.161 -0.0687 -0.2026  0.0511
 3160W        W18291   1.896   6.306  12.828 -0.2551  0.0449 -0.0569
 3161W        W18292  13.189   8.603   2.046  0.3106 -0.3936  0.1606
 3162W        W18293   8.024   3.047   5.357 -0.1863  0.0346  0.2078
 3163W        W18294   7.855  13.723   3.504 -0.1653  0.1171  0.2293
 3164W        W18295  12.795  13.148  14.972 -0.1457  0.3823 -0.1315
 3165W        W18296  10.048   3.980  15.191  0.0587 -0.1235  0.2427
 3166W        W18297  10.507   2.714  15.434 -0.1989  0.1546  0.0711
 3167W        W18298   6.915   6.137  13.742  0.2451 -0.0708  0.0525
 3168W        W18299   0.659  16.016  14.538 -0.0617 -0.0517  0.0137
 3169W        W18300  11.496  14.661  13.108 -0.1351 -0.0737  0.3153
 3170W        W18301  12.448   4.349  15.470  0.1983 -0.0925  0.4668
 3171W        W18302  17.537   8.749   3.166 -0.1651 -0.2475  0.3823
 3172W        W18303   6.116  12.206   0.324  0.5135 -0.0547  0.0554
 3173W        W18304  15.180   7.697   2.094  0.0096 -0.0229 -0.2759
 3174W        W18305   6.096   6.830  10.906 -0.0873 -0.0048 -0.0845
 3175W        W18306   6.682  16.339  15.678 -0.0199  0.0351 -0.1044
 3176W        W18307   6.792   2.910   4.947  0.2335  0.2241  0.2323
 3177W        W18308  16.003  10.878   4.842  0.0854  0.0575 -0.1066
 3178W        W18309  12.884  11.577   5.240 -0.0443 -0.1628  0.2310
 3179W        W18310  15.904  12.277   5.849  0.2576 -0.0824  0.0152
 3180W        W18311  10.637   7.586   4.913 -0.2197  0.2010  0.3225
 3181W        W18312  16.617   1.830  15.771  0.4305 -0.3779  0.1381
 3182W        W18313  15.375   7.318  15.974 -0.2022 -0.2602 -0.2008
 3183W        W18314   1.032  13.310   0.030  0.0083 -0.2640 -0.0855
 3184W        W18315   2.365   0.659   2.734 -0.2381 -0.2329  0.1479
 3185W        W18316  17.437   8.287   3.438 -0.5150  0.1782  0.0751
 3186W        W18317  15.576  16.448   1.540 -0.0415  0.0441 -0.0590
 3187W        W18318  11.415  17.536   3.093 -0.1884 -0.1544  0.0514
 3188W        W18319   8.887   9.027   1.507  0.2082 -0.1224 -0.1794
 3189W        W18320   4.104  13.140  15.515  0.3166 -0.1319 -0.1271
 3190W        W18321   5.119   5.509   3.069 -0.3592 -0.0095  0.2225
 3191W        W18322  15.124   9.269   0.917 -0.1572  0.1121  0.1329
 3192W        W18323  17.950   2.002   3.799  0.1789  0.0373 -0.2883
 3193W        W18324   5.297   9.694   4.670  0.2041  0.1423 -0.0615
 3194W        W18325   2.776   7.149   2.578 -0.1758  0.0156  0.0798
 3195W        W18326   1.773  15.126  15.076  0.1277 -0.2533 -0.2039
 3196W        W18327  10.518   1.338   5.335 -0.1627 -0.1500 -0.3928
 3197W        W18328   7.162   0.798   4.060  0.0426 -0.0005 -0.1357
 3198W        W18329  16.562  10.175   2.631 -0.1366  0.0598  0.1540
 3199W        W18330   6.132   5.489   2.963 -0.1005 -0.1195  0.1202
 3200W        W18331  13.609  18.057   3.826  0.0301 -0.0342 -0.0874
 3201W        W18332  16.439   9.138  13.799 -0.2397  0.1564  0.1257
 3202W        W18333   4.550  13.850  15.629 -0.2436 -0.2072  0.0358
 3203W        W18334   4.532   3.030  11.071 -0.0716  0.0332  0.2072
 3204W        W18335  15.903  13.951  14.073  0.1885 -0.1613 -0.0721
 3205W        W18336  12.594   9.457  13.400 -0.0694  0.0409 -0.0410
 3206W        W18337   2.618  18.130   5.728 -0.1189 -0.1863  0.1753
 3207W        W18338  10.479  13.692   1.568  0.1032 -0.2188 -0.2919
 3208W        W18339  11.435  15.231   3.486 -0.0214  0.0708  0.2187
 3209W        W18340   3.313   1.336   0.788  0.1657  0.0261  0.1182
 3210W        W18341   3.738  15.008  14.225  0.1010  0.1622  0.2775
 3211W        W18342   1.475   9.578   0.183 -0.3282  0.1335  0.1611
 3212W        W18343   6.648   1.367  14.285  0.0113 -0.2170  0.2239
 3213W        W18344  11.225   2.913   5.165  0.0525  0.0765  0.2035
 3214W        W18345  16.687  15.598  13.659 -0.1515  0.0813 -0.3727
 3215W        W18346  15.525  15.761   4.113  0.0770  0.0271 -0.1865
 3216W        W18347   9.903  12.269  13.459 -0.0038  0.0663  0.2081
 3217W        W18348  14.015   2.701  15.093 -0.3425  0.3242  0.0473
 3218W        W18349   2.257   7.681  13.545 -0.0115  0.0253  0.0629
 3219W        W18350  10.655  10.417   3.738 -0.1813  0.1260 -0.1104
 3220W        W18351   6.481  17.291   5.658  0.0720 -0.0457 -0.2180
 3221W        W18352   6.762   1.501  11.368  0.1153 -0.0111  0.0331
 3222W        W18353   0.783  16.398   4.427 -0.0120 -0.0988 -0.1992
 3223W        W18354  11.879  16.817  11.358  0.2186  0.1371  0.0493
 3224W        W18355   4.311   6.805   2.272 -0.2538 -0.0083  0.0811
 3225W        W18356   9.897  12.660  14.946 -0.1675  0.0683  0.0767
 3226W        W18357   8.139   3.815   2.860  0.3071 -0.1871  0.0022
 3227W        W18358   9.081   4.120  13.722 -0.3062  0.3978  0.1801
 3228W        W18359   4.802  15.876  12.358 -0.1341  0.2023 -0.1036
 3229W        W18360  17.570   5.564  14.720 -0.0632 -0.1039  0.6165
 3230W        W18361  13.337   4.704  14.914  0.0899 -0.1629 -0.0619
 3231W        W18362   2.425  13.081  11.996  0.0706  0.0860  0.1049
 3232W        W18363  10.209  14.458   1.488  0.0444  0.1480  0.2177
 3233W        W18364   4.355  10.712   5.039 -0.0493  0.1068  0.1373
 3234W        W18365  14.055   3.948  10.059 -0.1617 -0.1558  0.0441
 3235W        W18366   8.636   7.909  14.090 -0.2899 -0.0063  0.0811
 3236W        W18367   5.160   6.408  11.200  0.2661 -0.2312 -0.1232
 3237W        W18368  16.570  10.961   3.134 -0.1856 -0.0396 -0.3508
 3238W        W18369   2.980   8.123   5.427 -0.2545 -0.0744 -0.0680
 3239W        W18370   4.508  11.271  12.136  0.0398 -0.0637  0.3319
 3240W        W18371   3.805  13.132   1.489  0.0699  0.0501 -0.1077
 3241W        W18372   1.806   3.615  14.508  0.1949 -0.0744 -0.1452
 3242W        W18373   8.983  12.465   1.707  0.0232 -0.2363  0.2136
 3243W        W18374  17.050   3.243   5.371 -0.2246  0.1065  0.0595
 3244W        W18375   8.059   0.140  10.262  0.1040 -0.3202  0.1828
 3245W        W18376   6.510   0.543  12.321 -0.2028  0.1578  0.2056
 3246W        W18377   4.591  11.139  11.158 -0.4333 -0.0519  0.1803
 3247W        W18378  10.665   3.605   5.707 -0.3002  0.1199 -0.1691
 3248W        W18379   3.189  12.034  13.674 -0.0144 -0.1634  0.1507
 3249W        W18380  13.783  10.621  14.313  0.1159 -0.1558 -0.1983
 3250W        W18381  18.050  16.017   0.650  0.1701 -0.2907  0.1606
 3251W        W18382   9.000  15.819   0.912  0.0271 -0.1347 -0.3526
 3252W        W18383   5.937  16.937  10.394 -0.2121  0.4689  0.0228
 3253W        W18384  11.312   1.473   5.572  0.2614  0.1890  0.0574
 3254W        W18385  10.501   1.366  11.062  0.2728  0.3277  0.0856
 3255W        W18386   4.535   7.259   3.685 -0.2354 -0.1747 -0.1136
 3256W        W18387  12.829   1.300   2.258  0.2510  0.2051  0.2528
 3257W        W18388  17.750  16.202   4.779  0.0873  0.0886  0.1068
 3258W        W18389  16.307  17.394   6.153 -0.3360 -0.0224 -0.0224
 3259W        W18390  13.621   3.155   3.509 -0.0156  0.1929 -0.0612
 3260W        W18391  13.139   9.673   5.422  0.0120  0.1197 -0.2113
 3261W        W18392   5.060   6.270  15.395  0.2221  0.2942  0.1578
 3262W        W18393   0.603  14.981  15.250  0.1432 -0.1662 -0.1290
 3263W        W18394  17.000  14.895  16.229  0.1260  0.2635  0.0587
 3264W        W18395   1.350  16.855  12.616  0.0280  0.2267  0.1660
 3265W        W18396   7.182  12.677  11.043  0.0975 -0.0428  0.1331
 3266W        W18397  16.966  13.110   5.404  0.0208 -0.0046 -0.1236
 3267W        W18398   2.079   7.373  14.840  0.0164  0.1323 -0.3507
 3268W        W18399   7.199  17.409   5.267  0.4708  0.2298 -0.0400
 3269W        W18400   2.541   6.701   3.633  0.2306 -0.5633 -0.0990
 3270W        W18401   1.307  13.417  14.836 -0.0206 -0.0320  0.0957
 3271W        W18402   2.526   5.444   3.619 -0.0561  0.1690 -0.0046
 3272W        W18403   3.128  14.133  15.986  0.2838 -0.1266 -0.2633
 3273W        W18404   1.407  14.937  10.352 -0.0356  0.0120 -0.4438
 3274W        W18405  13.296   2.431  11.361  0.0325  0.1402  0.0336
 3275W        W18406  15.413   2.225  14.843  0.0811 -0.0012 -0.3187
 3276W        W18407   0.981   2.516   0.215  0.1709  0.1498  0.0798
 3277W        W18408   6.186   0.035  13.844 -0.0449  0.1558 -0.0942
 3278W        W18409  11.600  16.652   2.299  0.5187 -0.1593 -0.2739
 3279W        W18410   4.489  13.196  10.772 -0.1440 -0.3602  0.0021
 3280W        W18411  12.678  17.161   5.287  0.2331 -0.0083  0.1414
 3281W        W18412  14.618   0.227  14.679 -0.0012  0.0225  0.1562
 3282W        W18413   3.785   2.668  15.494  0.0192  0.2638 -0.1716
 3283W        W18414   9.476  14.435   2.861 -0.0205 -0.0443 -0.1628
 3284W        W18415  13.101   2.367  14.722 -0.0222 -0.1573 -0.1949
 3285W        W18416  14.657  11.404   2.277  0.1289 -0.2934  0.1643
 3286W        W18417   7.697   3.490   0.319 -0.1506  0.0301  0.1855
 3287W        W18418   9.479   7.479  12.266 -0.3245 -0.1765  0.1180
 3288W        W18419   4.581   5.776   3.979  0.0418 -0.1806 -0.0027
 3289W        W18420   9.376  13.463  14.824  0.0803  0.3463  0.1079
 3290W        W18421  15.020  14.417   6.025 -0.0376  0.0982 -0.1920
 3291W        W18422   0.808  17.204   1.862 -0.2765  0.0093 -0.1492
 3292W        W18423   8.885   5.798   4.805 -0.1444  0.0001  0.1040
 3293W        W18424  12.849   4.373   3.205  0.3716 -0.2439  0.2362
 3294W        W18425  11.961   3.541   5.575  0.2440  0.3838  0.0786
 3295W        W18426   5.218  12.816   1.851  0.1648  0.1435 -0.2698
 3296W        W18427  11.360   7.766  13.912  0.1125  0.2368  0.1104
 3297W        W18428  12.447   0.539  13.629 -0.0718  0.1977 -0.3013
 3298W        W18429  13.596  13.867   3.470  0.1571  0.0011 -0.0640
 3299W        W18430   5.599  12.582   2.184 -0.0648  0.1190  0.1044
 3300W        W18431   3.366   5.864  13.933 -0.0375  0.1307  0.1005
 3301W        W18432   1.867   2.798   5.878  0.0240  0.0132  0.2120
 3302W        W18433  16.181   0.964  14.636  0.2440  0.4608  0.0270
 3303W        W18434   9.932   7.630   4.269  0.0404 -0.0052 -0.1853
 3304W        W18435  16.003  13.809   2.569  0.0746 -0.1559 -0.0283
 3305W        W18436  10.246   5.865   4.339 -0.2720  0.2286 -0.0075
 3306W        W18437   1.015   9.354   0.738  0.2680  0.3495  0.1685
 3307W        W18438   9.081   9.157  10.917  0.1297 -0.0299 -0.0430
 3308W        W18439   6.140   8.959  12.537 -0.1202  0.0123  0.2904
 3309W        W18440   6.533  14.266   3.417  0.0986  0.0081  0.1913
 3310W        W18441   4.857  18.010  14.352 -0.4673  0.2680 -0.0496
 3311W        W18442   1.792   1.886   3.354  0.0564 -0.2731  0.1536
 3312W        W18443  14.338   8.874   4.177  0.0780 -0.4507  0.0129
 3313W        W18444   8.226   1.889   3.940  0.1096  0.3032 -0.1879
 3314W        W18445  13.011  17.826   4.111  0.4099  0.0565  0.1841
 3315W        W18446  14.462   6.863   6.669  0.0619 -0.0434  0.1311
 3316W        W18447  11.115   2.878  13.755  0.0791 -0.0690  0.1522
 3317W        W18448  17.214   8.048   4.662  0.4258  0.2340  0.4390
 3318W        W18449   7.602  17.768  15.991  0.0362  0.0357 -0.0698
 3319W        W18450   3.237   3.260   4.323  0.0860  0.2615  0.0587
 3320W        W18451   0.331  10.106   3.127 -0.1939  0.1271 -0.0437
 3321W        W18452   3.677  17.049   2.222  0.0448 -0.1686 -0.1788
 3322W        W18453   6.354   5.990   1.185  0.0014 -0.0354 -0.4106
 3323W        W18454   8.253   1.264  14.174 -0.2002 -0.1311  0.0307
 3324W        W18455   1.381   4.595   5.567  0.0181 -0.1745  0.0687
 3325W        W18456   3.617  15.074  15.618  0.0780  0.0912  0.0720
 3326W        W18457   2.939  15.810  13.945 -0.1814 -0.0369 -0.0482
 3327W        W18458  13.427   7.499   3.774  0.0312 -0.0210  0.1688
 3328W        W18459   9.444   2.818   2.696  0.0210 -0.2265  0.0336
 3329W        W18460   9.948   3.282   3.463  0.0811 -0.1447  0.2138
 3330W        W18461   8.583   5.622   2.691 -0.1449 -0.0113 -0.3365
 3331W        W18462   5.539  12.203   3.694 -0.0324  0.0051  0.0670
 3332W        W18463   5.130   7.784  15.203 -0.1056  0.2432 -0.1000
 3333W        W18464   8.210   9.013  13.581  0.0674  0.0504 -0.0469
 3334W        W18465   1.884   4.001  14.155 -0.2361  0.1271 -0.0615
 3335W        W18466  17.344   8.494  15.089 -0.2205  0.2252 -0.1119
 3336W        W18467   4.898  16.380   5.149  0.0361 -0.2091 -0.0893
 3337W        W18468  12.382  16.078  12.280  0.0961  0.0333 -0.0716
 3338W        W18469  12.492   5.207  15.751  0.2155 -0.0557  0.1720
 3339W        W18470   8.929   9.383   0.576  0.0458  0.0523  0.1254
 3340W        W18471   7.059  17.058   3.399 -0.1040  0.0865  0.0257
 3341W        W18472  15.853   2.329  15.315  0.0188 -0.0326 -0.0964
 3342W        W18473   6.296  17.209   9.964  0.0457  0.1410 -0.2178
 3343W        W18474   9.119   5.850  11.615 -0.2911  0.1360  0.0105
 3344W        W18475  15.473  11.439  13.555 -0.1336 -0.1058 -0.0040
 3345W        W18476   1.483   8.977  11.119 -0.1971 -0.2986 -0.1787
 3346W        W18477   6.817  16.705   1.118  0.1770  0.2730 -0.2780
 3347W        W18478   6.146   2.905  13.347  0.0955  0.1676  0.1653
 3348W        W18479  11.046  13.232   2.763  0.0786 -0.0066  0.0589
 3349W        W18480   0.712   8.086  12.847  0.0477 -0.2084 -0.2566
 3350W        W18481   3.268  10.406   2.338 -0.0450  0.3294 -0.0314
 3351W        W18482  10.285  13.777   2.534 -0.0024  0.1579 -0.0723
 3352W        W18483  12.689  13.636  14.962  0.1008  0.0036 -0.1202
 3353W        W18484   9.589   7.182  13.231 -0.0735 -0.2232  0.3818
 3354W        W18485   8.156   0.370   4.109 -0.0026  0.0128  0.2389
 3355W        W18486  14.449  17.471  13.333 -0.0110  0.0170 -0.0278
 3356W        W18487   0.051   7.045   1.576  0.2226  0.1087 -0.1281
 3357W        W18488  13.554   1.296   5.318 -0.0932  0.1360 -0.2450
 3358W        W18489  14.490  16.049  16.157 -0.3506  0.3525 -0.1340
 3359W        W18490   6.177   8.475  15.956  0.2618 -0.1091 -0.0482
 3360W        W18491  10.927  10.609   2.921  0.2769 -0.1672  0.0649
 3361W        W18492  14.900   5.880   2.459  0.1581  0.0312 -0.1015
 3362W        W18493   6.957   3.329   4.835 -0.2085 -0.1049  0.0156
 3363W        W18494   6.162   0.822  13.974 -0.2587  0.0726 -0.1387
 3364W        W18495  14.990   4.540   3.408  0.0151 -0.1113 -0.0621
 3365W        W18496  12.075   5.071  15.573 -0.2631  0.1280  0.0902
 3366W        W18497  12.528   8.413  14.395  0.0176 -0.2443  0.1663
 3367W        W18498  17.691   5.752   0.331  0.1931 -0.1009  0.1596
 3368W        W18499   8.654  17.168  15.366  0.1214 -0.1880 -0.1751
 3369W        W18500   7.781   0.810   2.411 -0.0776 -0.1209 -0.1631
 3370W        W18501   1.285  11.088  13.370 -0.2613 -0.1412 -0.0921
 3371W        W18502   9.604   2.018   3.190 -0.2363 -0.2376 -0.2053
 3372W        W18503  14.608  17.891   4.438 -0.2597 -0.2506 -0.1343
 3373W        W18504  16.058   8.171  11.050  0.0641 -0.3176 -0.0714
 3374W        W18505   3.043   4.308   1.840  0.1744 -0.0207  0.3732
 3375W        W18506   2.225  14.525  13.808 -0.1152  0.1346 -0.0777
 3376W        W18507  13.377   6.947  15.818  0.2669 -0.2078 -0.0725
 3377W        W18508   0.899  10.407  15.319 -0.2081 -0.1976 -0.1778
 3378W        W18509   2.814  17.082   0.666  0.1906  0.2792 -0.1597
 3379W        W18510   6.457  12.573  10.791  0.0370  0.0347 -0.1935
 3380W        W18511  16.101  15.186   0.457  0.2590  0.0219 -0.0449
 3381W        W18512  16.144  15.956   2.086 -0.1719 -0.1091  0.2847
 3382W        W18513  11.655  16.465  14.413  0.1078  0.1262 -0.0084
 3383W        W18514  12.916  16.396   5.097 -0.2722  0.1521  0.3636
 3384W        W18515  12.389   8.119   0.370  0.1342 -0.0395 -0.0058
 3385W        W18516   8.093   4.621  12.350  0.0357  0.0534 -0.0607
 3386W        W18517  12.687  14.880   2.354  0.1071  0.0676 -0.2137
 3387W        W18518  12.738  12.846   0.573 -0.1073  0.0600  0.1156
 3388W        W18519   4.872  13.646   0.402 -0.0669  0.0946  0.4893
 3389W        W18520   3.595   4.685  11.581  0.0008 -0.0314  0.0823
 3390W        W18521  15.784  15.317   2.534 -0.1897 -0.1494 -0.2176
 3391W        W18522  12.684  15.595   1.277  0.0662  0.2695  0.0748
 3392W        W18523   3.589   5.016   3.280  0.1149  0.2121 -0.1453
 3393W        W18524  11.346   1.877   4.193  0.1135  0.0312  0.1543
 3394W        W18525  11.330   7.852  12.725 -0.0755 -0.0856  0.0996
 3395W        W18526   4.470   3.664   1.853 -0.3923  0.1249  0.1836
 3396W        W18527  14.994   1.964   2.805 -0.1787 -0.0455 -0.1344
 3397W        W18528   0.683  17.494  13.103  0.3038  0.2413  0.2978
 3398W        W18529   3.184   0.388   2.693  0.2734 -0.1420  0.1782
 3399W        W18530   7.503  10.165   5.225 -0.1156 -0.1583 -0.2734
 3400W        W18531   8.930  17.243   1.407  0.0577  0.2433 -0.1185
 3401W        W18532  10.367  14.945  14.881  0.2017 -0.0835  0.1174
 3402W        W18533  12.417   2.419   4.468 -0.0444  0.0064  0.1351
 3403W        W18534  16.218  16.738  13.975 -0.3394  0.3575 -0.4328
 3404W        W18535  15.141   1.908   2.214  0.1712 -0.0829  0.1563
 3405W        W18536   8.074   2.016   2.221 -0.0127 -0.0619  0.0027
 3406W        W18537   2.152   0.064  11.045  0.0777  0.0263  0.1267
 3407W        W18538   0.546  11.932  13.993 -0.3352  0.1192  0.0194
 3408W        W18539   2.074   9.777  11.874 -0.3445  0.1653 -0.2086
 3409W        W18540   9.016   3.624   2.249  0.0010 -0.0717 -0.2532
 3410W        W18541  10.562   6.595   6.135  0.0869  0.2680 -0.0009
 3411W        W18542   8.734  14.509  13.395  0.0410  0.2907 -0.0653
 3412W        W18543  12.182   3.385   1.957 -0.0393  0.2152 -0.0625
 3413W        W18544   5.100  13.572  12.676  0.0332  0.0188  0.0969
 3414W        W18545   2.099  12.152  15.872 -0.1509 -0.0216 -0.0522
 3415W        W18546   9.994  15.996  14.081  0.0228 -0.1326 -0.1436
 3416W        W18547  16.151   5.103  10.442  0.1534 -0.2486 -0.2623
 3417W        W18548  15.180  16.517  14.427 -0.1507 -0.1656  0.1117
 3418W        W18549  16.432   9.436   3.720  0.3777  0.2030  0.0259
 3419W        W18550   7.901  15.939   1.505 -0.1026  0.0682  0.1602
 3420W        W18551  13.200   8.300  13.652 -0.1267 -0.0449 -0.0171
 3421W        W18552   7.639  16.226  13.465  0.3666 -0.2442 -0.1500
 3422W        W18553  13.201   3.011  14.086 -0.0115  0.0341 -0.1234
 3423W        W18554  10.175  14.869   4.724 -0.0179  0.0109 -0.2442
 3424W        W18555   9.376  16.847  15.502 -0.1345  0.0673 -0.0013
 3425W        W18556  10.748   3.618  13.678  0.0792 -0.2121  0.0968
 3426W        W18557   0.039   7.023  13.081  0.0493 -0.1502  0.0072
 3427W        W18558   7.758   2.143   5.711 -0.0691 -0.4514 -0.1132
 3428W        W18559   0.364   4.671  12.017  0.0401  0.0331 -0.0206
 3429W        W18560  17.565   3.864   2.099  0.4786 -0.1210 -0.0277
 3430W        W18561  11.788   4.403   3.252 -0.1321  0.0585  0.0976
 3431W        W18562  16.392  16.410   0.889 -0.0212  0.1044 -0.3266
 3432W        W18563  15.550   2.211   1.352  0.1252 -0.0337 -0.1322
 3433W        W18564  17.304   9.849   0.807  0.2694  0.0152 -0.1250
 3434W        W18565   8.801   0.765   6.084 -0.2212 -0.3262 -0.0434
 3435W        W18566   3.283  14.041   1.295  0.0227  0.0279  0.0929
 3436W        W18567   0.907   3.063   0.760 -0.0755  0.4924 -0.1890
 3437W        W18568   6.327   1.291   4.155 -0.0171 -0.0962 -0.1283
 3438W        W18569   7.151  12.849  14.076 -0.0105  0.2139 -0.1557
 3439W        W18570   1.570   6.888   6.145 -0.0680 -0.1163  0.2114
 3440W        W18571  13.670   3.071  14.438 -0.2052 -0.0772  0.0819
 3441W        W18572   1.305   5.671   4.675  0.1363 -0.0429 -0.0227
 3442W        W18573   7.893   1.635  10.682  0.2728  0.0366  0.2058
 3443W        W18574   9.289   1.322   5.784 -0.2119 -0.3397  0.0533
 3444W        W18575  10.112  11.067   4.612 -0.2440  0.0656  0.0417
 3445W        W18576  17.312   5.589   3.415 -0.2166 -0.3303  0.0238
 3446W        W18577   1.368   2.857   1.066 -0.1157 -0.0033 -0.0305
 3447W        W18578  17.908  10.089   1.933  0.0562  0.0207 -0.1903
 3448W        W18579  11.981  17.588   0.649 -0.0734  0.0480  0.2527
 3449W        W18580  14.438  14.095   1.403  0.0647  0.2424 -0.0775
 3450W        W18581  14.323   8.114   1.978  0.1551 -0.1356 -0.2991
 3451W        W18582   1.077   3.284  13.597 -0.1842 -0.1744 -0.1434
 3452W        W18583  13.708   4.868   3.474 -0.2653 -0.1313 -0.1819
 3453W        W18584  16.753   2.766   1.620 -0.1210  0.2277  0.2965
 3454W        W18585   5.510   1.695  14.416  0.1416  0.0343 -0.0663
 3455W        W18586   8.548   4.010   5.458 -0.2733  0.1463  0.3121
 3456W        W18587  11.411  10.430   1.698  0.2239  0.0651  0.0366
 3457W        W18588  12.795   0.428   2.277  0.0541  0.0483 -0.0452
 3458W        W18589  13.754   7.371   5.101 -0.0482  0.0716  0.2801
 3459W        W18590   6.925   5.415  12.365  0.1336 -0.0933  0.0150
 3460W        W18591  16.070   7.089   1.942 -0.0318  0.0817  0.2694
 3461W        W18592   1.131  14.320   3.484 -0.1071 -0.0793  0.0076
 3462W        W18593   0.631   0.170  12.600  0.3109 -0.0875  0.1675
 3463W        W18594   6.079   4.154   1.883 -0.0099  0.5137  0.1002
 3464W        W18595   2.489  11.515   4.294  0.0837 -0.2647  0.2086
 3465W        W18596  17.505  15.120   3.804 -0.0578 -0.0831 -0.0707
 3466W        W18597   3.363  15.398  11.176 -0.0243  0.3187  0.3482
 3467W        W18598  15.693   6.509   0.571  0.0615 -0.3922 -0.1742
 3468W        W18599  15.137  13.563   5.916  0.0293 -0.2175  0.1989
 3469W        W18600   1.880   0.296  12.163 -0.1163 -0.3076  0.1133
 3470W        W18601   8.996   6.647   3.202 -0.1782  0.2773  0.0136
 3471W        W18602   1.523   0.699  15.843 -0.2837  0.0323 -0.0320
 3472W        W18603   5.192  12.502   0.024  0.0534  0.0549 -0.1175
 3473W        W18604   3.477   4.353   2.725  0.4739 -0.3005  0.1248
 3474W        W18605   5.770  12.921  15.796  0.1639  0.0302 -0.1458
 3475W        W18606   5.861  10.339   2.850 -0.0116 -0.0660  0.1166
 3476W        W18607  11.596  15.538  11.019  0.3062 -0.1174  0.1854
 3477W        W18608  12.021  11.485  14.595  0.2124  0.4471  0.2685
 3478W        W18609   6.610  13.470  14.819  0.1319 -0.1392  0.0915
 3479W        W18610   0.926  17.717   5.766  0.1469  0.0256  0.1453
 3480W        W18611   6.508  12.909  12.108  0.1933  0.4444  0.1538
 3481W        W18612   9.017  11.474  12.100  0.0188  0.2288  0.1620
 3482W        W18613   5.028   1.478   4.377  0.1890  0.1964  0.0850
 3483W        W18614  14.004   0.768  15.324 -0.2804  0.1003 -0.2720
 3484W        W18615   2.071   6.945  15.164 -0.1161  0.6269 -0.3586
 3485W        W18616   2.984  12.835  16.090 -0.1723  0.0660 -0.3705
 3486W        W18617  15.422   6.242  11.713 -0.1368  0.0483 -0.1176
 3487W        W18618  17.543   6.131  14.759  0.2700  0.3067  0.5466
 3488W        W18619   6.144   7.429  11.964 -0.3279  0.0211  0.2323
 3489W        W18620  14.331   1.099   1.541  0.0459 -0.0238  0.0998
 3490W        W18621   6.297  17.139   4.186  0.2669  0.1390 -0.2480
 3491W        W18622   0.218  10.911   1.345 -0.1724 -0.2401  0.1949
 3492W        W18623  13.960   1.706  14.381  0.3632 -0.0166 -0.0376
 3493W        W18624  15.172  12.794   3.742 -0.1521 -0.1604 -0.2244
 3494W        W18625  13.192   8.967  14.381  0.0329 -0.0227  0.0030
 3495W        W18626  10.408  17.903   2.362 -0.1349 -0.1832  0.1213
 3496W        W18627   5.155   8.540  14.706 -0.1845  0.1299  0.0718
 3497W        W18628  13.690   2.276  13.714 -0.2499  0.0210  0.0738
 3498W        W18629   2.174  15.779   3.552  0.1575 -0.0077  0.1769
 3499W        W18630   8.199   0.411  11.737  0.0903  0.2926  0.0033
 3500W        W18631   1.063  12.373   2.355 -0.1908  0.0892 -0.0736
 3501W        W18632   0.987   3.161  12.587 -0.1563 -0.0982 -0.2132
 3502W        W18633   8.798  14.810   3.505 -0.0685  0.1939  0.1096
 3503W        W18634   0.472   1.346  15.094 -0.1733 -0.0949 -0.0269
 3504W        W18635  13.341   0.337   1.221  0.0218  0.1522  0.3216
 3505W        W18636   9.753   8.707  15.075  0.4144  0.1899  0.1529
 3506W        W18637  11.044   7.514  13.527  0.0095 -0.2587  0.1475
 3507W        W18638   3.701   8.989   4.087  0.0120 -0.3443  0.1447
 3508W        W18639   6.369   4.772  12.113 -0.0662 -0.0875 -0.2480
 3509W        W18640  13.087   5.559   2.496  0.1305 -0.0710  0.2474
 3510W        W18641   5.400   6.062   2.392 -0.0562  0.1211 -0.0231
 3511W        W18642   5.577   6.624   2.181  0.3755  0.2533  0.3022
 3512W        W18643  14.308   9.852  14.927  0.1283  0.1065 -0.1706
 3513W        W18644  14.999  15.380  12.920 -0.0745  0.2746  0.2590
 3514W        W18645  10.213   3.411  11.292 -0.3023 -0.2975  0.1553
 3515W        W18646   5.352  10.152  14.394  0.0269 -0.2246  0.0535
 3516W        W18647   4.543   8.397   1.112  0.1239 -0.0555  0.4029
 3517W        W18648   3.450  12.450  11.082  0.3294 -0.1798 -0.0090
 3518W        W18649   4.591  12.558  11.672 -0.2880 -0.2210  0.2110
 3519W        W18650  13.891   3.273  11.398  0.1928  0.0042  0.0465
 3520W        W18651  15.544  14.651   0.891  0.1068  0.1754  0.2005
 3521W        W18652   5.516  17.696   1.651 -0.2501  0.0192 -0.1505
 3522W        W18653   9.463  17.922   1.551 -0.2059  0.0789  0.0833
 3523W        W18654  16.765  10.557  15.708 -0.0900  0.2195 -0.3366
 3524W        W18655   6.075   6.691   3.532 -0.0617 -0.0003  0.1055
 3525W        W18656   3.686   4.019  12.346 -0.2091  0.0992 -0.2042
 3526W        W18657  11.961   6.084   0.426 -0.0016 -0.0969  0.0513
 3527W        W18658  10.811   8.563   3.778 -0.1169 -0.0605  0.0355
 3528W        W18659   9.693   3.764   1.727 -0.0116 -0.0299 -0.0987
 3529W        W18660   0.145   5.754   1.881  0.0563 -0.2932 -0.0233
 3530W        W18661  16.783   2.819  12.075 -0.0255 -0.0888 -0.0271
 3531W        W18662   7.892  13.567  12.409  0.0998  0.4756 -0.2389
 3532W        W18663   6.250   8.348   1.824  0.2333  0.2040 -0.0226
 3533W        W18664  12.986  12.876  16.039 -0.0294  0.1626 -0.1637
 3534W        W18665  10.704  11.472  13.720  0.2499 -0.0381 -0.2622
 3535W        W18666  14.792  10.247   6.271  0.4164 -0.2133 -0.0614
 3536W        W18667  13.731  16.906   0.657  0.1811  0.0614  0.2001
 3537W        W18668   1.137   0.558  14.108 -0.0030  0.0353 -0.0635
 3538W        W18669  10.675   6.444   2.960  0.2427  0.3176  0.2816
 3539W        W18670  10.673   8.009  11.218  0.1970  0.3113  0.1128
 3540W        W18671  15.120   0.531  12.984 -0.3500  0.0470  0.2525
 3541W        W18672  13.801   3.732  10.450  0.1317 -0.0531 -0.0093
 3542W        W18673  16.888   1.860   2.119  0.1587 -0.0074 -0.1465
 3543W        W18674  11.980  15.361   2.048  0.0602  0.0125  0.2482
 3544W        W18675   7.769  17.486   4.558  0.1051 -0.3121 -0.1175
 3545W        W18676  10.524   1.364   3.270  0.2645  0.0908  0.1779
 3546W        W18677   1.695  15.316   4.113 -0.1402  0.1079  0.1922
 3547W        W18678  13.682  14.050  14.081 -0.1196 -0.0033  0.3410
 3548W        W18679   7.230   9.208   4.956 -0.1842  0.0421 -0.0943
 3549W        W18680  13.931   7.599   1.456  0.0275 -0.0359 -0.0262
 3550W        W18681   9.181   3.487   0.018 -0.0413  0.0565  0.0727
 3551W        W18682   4.390  14.052  15.221  0.0665 -0.0665 -0.0424
 3552W        W18683   0.300  14.706   0.873  0.3739  0.1171 -0.0570
 3553W        W18684   0.714   2.673  12.460 -0.0580 -0.1569 -0.0698
 3554W        W18685   8.491  12.785  11.225 -0.0327 -0.3203 -0.0758
 3555W        W18686  13.854   7.046   1.559  0.2265 -0.2618 -0.1540
 3556W        W18687   4.977  15.489  10.860 -0.1252  0.1398  0.2941
 3557W        W18688  14.150   5.574   5.442 -0.1909  0.0659 -0.2523
 3558W        W18689  12.152   9.307   3.506 -0.1674  0.0431 -0.0487
 3559W        W18690   0.151  17.535  11.833  0.1212  0.0515 -0.2372
 3560W        W18691   1.058   4.155   3.906 -0.0341 -0.2594 -0.3090
 3561W        W18692  10.438   6.258   2.556  0.2918  0.1359 -0.2108
 3562W        W18693  14.476   7.316  15.793 -0.0498  0.2956 -0.0980
 3563W        W18694   0.914   8.476  11.448 -0.2618  0.2380 -0.2396
 3564W        W18695   7.955   4.799   0.992 -0.0684 -0.0334 -0.2942
 3565W        W18696  16.354  17.280   0.515  0.0686 -0.1085  0.1517
 3566W        W18697   4.862   6.801  16.199  0.0034  0.2412  0.2091
 3567W        W18698   8.035   3.404   3.587 -0.0107 -0.3120 -0.3345
 3568W        W18699   3.635   0.863   1.306  0.1921  0.0026  0.0577
 3569W        W18700  10.939   9.333  12.002  0.4298  0.2189  0.1066
 3570W        W18701  16.851   3.150  12.670 -0.1164  0.2016  0.0375
 3571W        W18702   2.761  13.308  13.395 -0.4335 -0.1181 -0.0343
 3572W        W18703   8.748  14.806  15.099  0.0022 -0.1643 -0.1793
 3573W        W18704  13.763   4.626   2.049  0.2965 -0.4504 -0.1835
 3574W        W18705   4.751   5.242  12.018 -0.2359 -0.1039 -0.0001
 3575W        W18706   4.458  13.904  11.412  0.0991 -0.0885 -0.3858
 3576W        W18707  11.721   1.593   1.524  0.1467  0.1271  0.0254
 3577W        W18708   9.555  13.276  12.257 -0.3817 -0.3085 -0.2875
 3578W        W18709   9.341   7.161   4.970 -0.1752  0.1792 -0.0107
 3579W        W18710  16.677  17.267  13.837 -0.0168  0.1695  0.3103
 3580W        W18711   3.888   9.362  13.847  0.1153  0.0419  0.2861
 3581W        W18712  16.729  12.906   6.757 -0.0092  0.2100  0.0994
 3582W        W18713   2.440   8.585  11.594 -0.1534  0.0222 -0.0315
 3583W        W18714   4.884   5.553   0.707 -0.2350 -0.1571 -0.1885
 3584W        W18715   8.160  10.523  10.531  0.1502  0.0144 -0.1576
 3585W        W18716  16.440   6.946   3.839  0.0529 -0.1803 -0.1242
 3586W        W18717  10.796  16.985   3.902 -0.3739 -0.1032 -0.2280
 3587W        W18718   6.064  12.623   2.963  0.1733  0.2357 -0.0221
 3588W        W18719  13.977   8.890   1.378  0.1656  0.0201  0.0431
 3589W        W18720  13.542  12.701   3.456 -0.1109  0.1449 -0.1917
 3590W        W18721   6.309  14.717   2.546 -0.1074  0.2469 -0.2930
 3591W        W18722   0.706  15.862  13.346  0.1600 -0.0731 -0.2320
 3592W        W18723  11.217   7.296   1.241 -0.2008  0.0596  0.0230
 3593W        W18724   1.201   6.066  12.539  0.1204  0.0466 -0.0060
 3594W        W18725   8.860  15.642  11.775  0.3677  0.0267  0.1019
 3595W        W18726   7.582   5.094  11.302  0.1024  0.1840 -0.0913
 3596W        W18727  11.448  16.692  12.928  0.2716  0.2116  0.1600
 3597W        W18728  17.430  10.631  11.003  0.0893  0.1180  0.2975
 3598W        W18729   2.549   9.832  14.308  0.1310  0.3143  0.1549
 3599W        W18730   2.422   3.931  14.321  0.1482  0.2801 -0.0076
 3600W        W18731  14.673   8.980   5.434 -0.1809  0.0585  0.1256
 3601W        W18732   4.381   6.699   5.548 -0.1476  0.0040  0.0150
 3602W        W18733  14.289   3.218  14.557 -0.0953 -0.1447  0.1236
 3603W        W18734  14.472   2.012   5.578  0.1540 -0.0860  0.0216
 3604W        W18735   2.189  15.680   2.254  0.1543  0.2940  0.2393
 3605W        W18736   2.571   7.636  11.931 -0.0934  0.0380 -0.2549
 3606W        W18737   3.476   7.727   5.245 -0.3292 -0.1937  0.1535
 3607W        W18738   2.032   3.669   4.033  0.2388  0.0678 -0.0498
 3608W        W18739   8.285  18.055  11.485  0.1875 -0.1679  0.0124
 3609W        W18740   5.767   1.604  12.494 -0.0257 -0.0100  0.0978
 3610W        W18741   8.452  17.022   1.642 -0.2789  0.1192 -0.0001
 3611W        W18742  15.760   3.702  10.250 -0.1119  0.1488 -0.2671
 3612W        W18743   6.880   0.297   1.444  0.0224 -0.2928  0.0465
 3613W        W18744  12.805   5.359  12.977  0.1007  0.1164 -0.0555
 3614W        W18745   0.420  14.611  11.773 -0.1336 -0.1456  0.1537
 3615W        W18746  16.970   6.799  12.438 -0.1086  0.1843  0.0744
 3616W        W18747   1.412  14.352   5.824 -0.0329 -0.0022  0.1563
 3617W        W18748   9.436  16.583  14.632  0.1979 -0.4268  0.2406
 3618W        W18749   7.222   6.509  15.786 -0.1227 -0.2110 -0.0996
 3619W        W18750  17.250  14.668   2.585 -0.0311 -0.5172  0.0841
 3620W        W18751   2.509  16.227   0.391 -0.3175  0.0823 -0.0175
 3621W        W18752   7.210   4.782  14.848 -0.1662 -0.1645  0.6648
 3622W        W18753  11.016  10.570  11.095 -0.0587 -0.2678 -0.1567
 3623W        W18754  17.658   7.514   0.199  0.0860  0.0418 -0.0164
 3624W        W18755   3.372   1.541   2.739  0.0415  0.0656 -0.2233
 3625W        W18756  11.657  13.756   0.566  0.0378 -0.2742 -0.0912
 3626W        W18757  16.784   5.208   1.033 -0.2876  0.1125 -0.0029
 3627W        W18758  15.247  13.066  15.394 -0.0270 -0.0379 -0.0501
 3628W        W18759   9.607   8.749  12.606 -0.0095  0.0540 -0.0748
 3629W        W18760   2.175   0.260  15.300  0.0911 -0.0011  0.0884
 3630W        W18761  16.960  16.706   0.077  0.0684  0.3759 -0.2635
 3631W        W18762   3.209  14.401  10.101  0.0817 -0.3232 -0.2413
 3632W        W18763   2.465  11.592   1.484 -0.1411  0.2233 -0.0268
 3633W        W18764   1.394  16.059   3.874 -0.2534 -0.1545  0.0026
 3634W        W18765   7.666  10.716  12.561 -0.1100  0.0762 -0.1301
 3635W        W18766  12.986   7.941   3.012  0.1813  0.1551  0.1669
 3636W        W18767   9.560   0.290  11.956  0.1272  0.0455  0.0245
 3637W        W18768   6.318  13.315  11.776  0.2960 -0.0499  0.1858
 3638W        W18769  15.644   6.209  13.859 -0.1589 -0.3415  0.0012
 3639W        W18770  17.377  12.089  14.155  0.1939 -0.0423  0.0379
 3640W        W18771  17.991  16.729   5.231 -0.0252 -0.0971  0.0130
 3641W        W18772   6.707   5.967  11.073  0.1940  0.3349 -0.0021
 3642W        W18773  14.886   1.525  11.304 -0.0278  0.3593  0.2619
 3643W        W18774  17.009   5.464  16.016  0.1196  0.2048 -0.0213
 3644W        W18775  15.516  14.976   0.545  0.2392 -0.3217  0.1255
 3645W        W18776   1.747  18.154   2.881  0.1952 -0.0579 -0.0514
 3646W        W18777   1.501   4.954   0.660 -0.0727  0.2640 -0.2433
 3647W        W18778   1.497  17.227  15.869  0.1444  0.0525 -0.0721
 3648W        W18779   5.446  14.882  13.919 -0.1116 -0.1776 -0.0275
 3649W        W18780   9.124   2.805  11.601 -0.1672  0.3415 -0.2989
 3650W        W18781   9.248   1.300   0.927 -0.1251  0.0281  0.0847
 3651W        W18782   6.632  14.704   3.707  0.0673  0.0530  0.0122
 3652W        W18783   8.480   7.351   1.947 -0.1977  0.1522 -0.1009
 3653W        W18784   8.261  11.277  11.132 -0.0471  0.4624  0.3105
 3654W        W18785   5.853  13.136   0.131 -0.0563  0.1920 -0.0737
 3655W        W18786   9.290   4.570  13.693 -0.2706  0.0892 -0.1238
 3656W        W18787  12.947  14.999   3.210 -0.1709  0.2426  0.0351
 3657W        W18788   2.104  17.693   2.297  0.0403 -0.1657 -0.0466
 3658W        W18789   3.936  13.106  11.956  0.0532 -0.2480  0.2453
 3659W        W18790   7.860  12.250   3.258 -0.1612  0.1394  0.1007
 3660W        W18791  16.553   5.812   5.078  0.2356  0.2002  0.0829
 3661W        W18792  12.815   6.728   5.373  0.0664 -0.1096  0.0589
 3662W        W18793   5.516   0.212  11.109  0.0613  0.2028  0.1734
 3663W        W18794  15.515  10.244  14.834  0.0445 -0.0255 -0.0372
 3664W        W18795  10.138   5.453  12.402 -0.0993  0.1483 -0.0117
 3665W        W18796  17.814   9.358   0.899  0.0797  0.0778  0.2777
 3666W        W18797  14.196   9.050   5.660 -0.0001  0.0829  0.0180
 3667W        W18798   1.868  14.677  15.434 -0.0318 -0.0127 -0.1071
 3668W        W18799  18.173   4.976  16.032 -0.0142  0.1993  0.1078
 3669W        W18800  12.681   0.160   0.412  0.0258  0.0641 -0.0216
 3670W        W18801   4.142   9.075  14.365  0.0485  0.0164 -0.3043
 3671W        W18802  13.068   5.742   6.240  0.0984 -0.0203  0.1908
 3672W        W18803  11.253  12.569   3.664 -0.1233 -0.1374  0.0386
 3673W        W18804   4.354  18.061  14.310  0.0864  0.2560 -0.0892
 3674W        W18805  14.023   0.679  13.297  0.1425 -0.0058 -0.3377
 3675W        W18806   2.902  16.381   5.128  0.4469  0.0406  0.4435
 3676W        W18807  17.234   9.452  11.557  0.0705  0.2407  0.0006
 3677W        W18808  15.949   9.345  14.758  0.0127 -0.0224  0.2275
 3678W        W18809   0.730  10.079   1.282 -0.0544  0.1306  0.2630
 3679W        W18810  16.497   6.756  16.050 -0.2554 -0.1405 -0.0437
 3680W        W18811   8.866  11.800   1.988 -0.2400  0.1851 -0.0950
 3681W        W18812  11.587   4.575  15.797  0.0389 -0.0272 -0.0975
 3682W        W18813  16.919   2.533   3.804  0.0754  0.0307  0.1889
 3683W        W18814   1.735   0.373  11.130  0.1053  0.2213 -0.0694
 3684W        W18815  12.654  13.910  15.850  0.0442 -0.0511  0.2487
 3685W        W18816  16.908   6.937   3.520 -0.3019  0.2491  0.0489
 3686W        W18817  15.581   0.997  14.505  0.1383  0.1480  0.0571
 3687W        W18818  10.230   3.192   4.911  0.0836 -0.1066 -0.0911
 3688W        W18819   3.824   3.504  15.395 -0.0074  0.2133 -0.0176
 3689W        W18820  15.087   9.342   3.198 -0.2251  0.0535 -0.1602
 3690W        W18821  14.627  10.640  13.668  0.2915  0.0783 -0.0981
 3691W        W18822  10.345   3.871  12.691 -0.1702  0.2364 -0.2452
 3692W        W18823   2.980  15.195   0.141  0.0767 -0.0086 -0.1142
 3693W        W18824   3.628   2.105   0.541  0.0156  0.2273  0.1408
 3694W        W18825   5.929  14.407  10.716 -0.0143  0.2254  0.4199
 3695W        W18826  10.933  14.798   4.633  0.5143 -0.1465 -0.2970
 3696W        W18827   2.584  13.512   4.178 -0.3079  0.0667  0.3153
 3697W        W18828  13.536  16.536  11.287  0.0978  0.1412 -0.1116
 3698W        W18829  13.649   7.241   6.434 -0.0048  0.1379 -0.4368
 3699W        W18830  12.955   5.188   2.172 -0.2843  0.0203 -0.4616
 3700W        W18831  15.768  17.773  11.038 -0.1184 -0.1232 -0.2725
 3701W        W18832  16.957  13.454  15.048  0.0826 -0.0462  0.0702
 3702W        W18833   7.429  14.984   4.010 -0.0580 -0.5907 -0.0218
 3703W        W18834   4.437  10.888   1.196 -0.1220 -0.0591  0.2439
 3704W        W18835  15.497  13.519  14.335  0.1452 -0.0692 -0.1114
 3705W        W18836  10.344   8.335  10.971 -0.4336 -0.2552  0.4520
 3706W        W18837  10.720   4.772  12.401 -0.4677 -0.1378  0.0086
 3707W        W18838   4.578   2.253   4.733  0.0552 -0.0232  0.2683
 3708W        W18839   6.262   3.290  12.646  0.0579 -0.0140 -0.1569
 3709W        W18840   4.777   0.222   0.751 -0.1843  0.0837  0.0603
 3710W        W18841  12.659  17.749  14.198 -0.1127 -0.2415 -0.0967
 3711W        W18842   2.506   2.045  15.834  0.0474 -0.0937  0.0088
 3712W        W18843   0.057   7.649  13.233 -0.1788  0.1141 -0.1734
 3713W        W18844  11.424   4.241   2.857 -0.0491 -0.1051  0.1204
 3714W        W18845  11.529   7.098   2.791 -0.0058 -0.0792  0.1966
 3715W        W18846   6.789  16.908  13.949  0.0311  0.2388  0.2433
 3716W        W18847  13.192   1.170  15.262  0.0180 -0.0448 -0.2004
 3717W        W18848   7.315  13.297   4.699  0.0030  0.0954  0.1888
 3718W        W18849  16.091  14.867  15.802  0.1603 -0.2312 -0.1385
 3719W        W18850   8.028  11.730   4.876  0.1086  0.0407 -0.2582
 3720W        W18851  11.540  13.031   3.583  0.0357  0.1979 -0.1612
 3721W        W18852   3.992   5.791   1.882  0.1525 -0.0550  0.2882
 3722W        W18853   9.126   2.223   2.477  0.0792  0.0042  0.0623
 3723W        W18854   7.907  18.012  15.493  0.0285  0.1053  0.1967
 3724W        W18855  12.561  11.827  15.287 -0.0930 -0.3287  0.0888
 3725W        W18856   8.279   5.170   2.888 -0.0064  0.0647  0.2786
 3726W        W18857  11.234  11.321   3.897 -0.0855  0.1968 -0.0847
 3727W        W18858  14.482   1.493  10.194  0.1527  0.1592  0.1424
 3728W        W18859   5.281   3.104   2.696 -0.1331  0.0436  0.0328
 3729W        W18860  11.052  13.412   1.424 -0.3946  0.0663  0.0771
 3730W        W18861  14.425  10.614  11.839  0.0298 -0.1565 -0.0024
 3731W        W18862   9.588  13.499   3.136  0.3358  0.0991 -0.0720
 3732W        W18863   1.797  13.623  15.636 -0.3532  0.1797  0.0732
 3733W        W18864  17.021   2.224  12.858  0.2273  0.0959 -0.4138
 3734W        W18865   0.689  13.994   5.070  0.1621  0.0452 -0.1130
 3735W        W18866   5.080   6.184   2.765  0.5516  0.1397  0.1442
 3736W        W18867   5.783   4.931   1.485 -0.0458 -0.0202  0.2900
 3737W        W18868   7.185  18.037  13.158  0.0976  0.2435  0.1060
 3738W        W18869  10.506   7.466   0.623  0.2401 -0.1792  0.1595
 3739W        W18870  17.217  10.709  12.143 -0.1126  0.1323  0.0001
 3740W        W18871   9.176   9.479   3.191  0.1025 -0.1308 -0.0215
 3741W        W18872  14.693   6.298  14.395 -0.1497  0.0684 -0.0714
 3742W        W18873   4.399  11.381  13.778  0.1371 -0.0564 -0.1519
 3743W        W18874  13.224  11.965  11.898 -0.3227 -0.1739 -0.1597
 3744W        W18875   4.634  16.230   3.265  0.0732  0.0194  0.1289
 3745W        W18876   8.267   2.788   0.231  0.0569 -0.0422  0.1030
 3746W        W18877   5.482   5.241  12.700 -0.0376  0.1905  0.0107
 3747W        W18878  16.528  14.450  12.813  0.2731 -0.0397 -0.1538
 3748W        W18879  14.317   7.515   2.198 -0.0318  0.0337  0.0884
 3749W        W18880  18.004   5.632   1.460  0.1252 -0.1620  0.0553
 3750W        W18881   8.806  16.446   0.276  0.1057  0.2981  0.1741
 3751W        W18882  10.495  11.011   4.863 -0.0083 -0.0236 -0.3759
 3752W        W18883   3.117   3.758   1.875  0.1981  0.0817  0.4243
 3753W        W18884  13.998   4.434   3.635 -0.1088  0.2588 -0.3662
 3754W        W18885  16.144  12.612  10.339 -0.0769 -0.2257  0.1675
 3755W        W18886   4.622   8.989   5.367 -0.1005  0.1724  0.1729
 3756W        W18887   8.731   2.624   0.794  0.0840 -0.0308 -0.0245
 3757W        W18888  11.977   7.372  13.592  0.0176  0.1772  0.1449
 3758W        W18889   1.703   6.467   4.583 -0.0941 -0.1127 -0.1665
 3759W        W18890   3.795   9.224  12.299 -0.1464 -0.1361  0.0321
 3760W        W18891   7.495   6.238   6.110  0.0096  0.0508  0.2951
 3761W        W18892   7.748   9.249  13.083 -0.2871 -0.1015  0.5071
 3762W        W18893   9.326   0.102  12.930 -0.3204 -0.1156 -0.1356
 3763W        W18894  12.148   5.096   5.848  0.2412 -0.1698  0.1475
 3764W        W18895   8.437   3.210   5.582  0.1062  0.1339 -0.1146
 3765W        W18896  15.410  13.396   4.457  0.1423  0.0866 -0.0549
 3766W        W18897   3.813  17.613   4.939  0.1496 -0.2506 -0.1657
 3767W        W18898   2.745   9.367   3.887 -0.0465 -0.2313 -0.0228
 3768W        W18899  17.957  16.975  15.420 -0.0982  0.2483  0.2160
 3769W        W18900  17.469   1.493  14.980 -0.1055  0.1465 -0.1605
 3770W        W18901   1.339   3.721  14.689  0.2731 -0.4259 -0.3502
 3771W        W18902   3.636  12.416  14.952 -0.1292  0.2417 -0.0811
 3772W        W18903  16.472  14.724  15.430 -0.0760  0.2326 -0.1016
 3773W        W18904  14.319   4.526   2.768 -0.1456  0.1278  0.2278
 3774W        W18905   4.647   4.871  12.262  0.2761  0.2026 -0.0525
 3775W        W18906  10.558   9.982  14.559  0.1273  0.1702  0.0992
 3776W        W18907   4.053   6.067  13.953 -0.0875 -0.3059 -0.0493
 3777W        W18908   5.804  14.836  11.043 -0.3599 -0.0062 -0.0089
 3778W        W18909  13.316   9.351  12.623  0.0955  0.0586 -0.1414
 3779W        W18910   7.880   6.814  13.368 -0.4867 -0.0745  0.2551
 3780W        W18911   4.703   8.168   3.794 -0.1558  0.1691  0.1053
 3781W        W18912  11.591   0.911   2.703  0.1440 -0.2383  0.0225
 3782W        W18913  13.094  14.054  14.943 -0.0576  0.0165  0.0245
 3783W        W18914  11.294   8.566  10.650  0.0778 -0.0305 -0.1153
 3784W        W18915  10.750  11.062   5.344  0.2367  0.1034  0.0453
 3785W        W18916   6.799   3.182  13.938  0.0325  0.0880  0.0740
 3786W        W18917  11.779   9.522   3.984 -0.2821  0.0263  0.0484
 3787W        W18918   7.514   8.103  11.325 -0.1228 -0.0402  0.0849
 3788W        W18919  11.422   6.705  15.594 -0.1099  0.0221  0.1769
 3789W        W18920   0.706   3.460   1.242 -0.0143  0.0320 -0.2307
 3790W        W18921  15.071  15.047  13.373 -0.0741 -0.1449 -0.0406
 3791W        W18922   3.924  15.285   4.123  0.0803 -0.2360  0.1451
 3792W        W18923   9.315   3.143  13.446  0.1674  0.0802  0.0017
 3793W        W18924   5.972  14.088  12.555 -0.4548  0.2446 -0.1533
 3794W        W18925   3.783   2.520   3.675  0.1127  0.1335 -0.2229
 3795W        W18926  13.872  16.076   6.473  0.2130 -0.2598 -0.1198
 3796W        W18927   4.343  16.043  11.784 -0.0208 -0.0754  0.1384
 3797W        W18928   9.415   6.394   0.421 -0.1323  0.2202  0.0726
 3798W        W18929  15.308  13.229   3.550 -0.2152 -0.0010 -0.1499
 3799W        W18930   7.480  14.857   4.495  0.2274  0.0854 -0.4365
 3800W        W18931  12.609  10.762   3.672 -0.0456  0.0386  0.0126
 3801W        W18932   5.845   4.031  13.242 -0.0084 -0.4755 -0.4557
 3802W        W18933  14.376  15.052  11.835 -0.2852  0.1328  0.1072
 3803W        W18934  10.328   0.078  12.840 -0.0718 -0.0686  0.0137
 3804W        W18935  12.419  12.306  11.786  0.0617 -0.1791  0.1869
 3805W        W18936  17.240   0.284  11.718  0.2386 -0.2004  0.1141
 3806W        W18937   0.831   4.709   5.478 -0.4353 -0.0612  0.0710
 3807W        W18938   9.306  15.342  12.630  0.0294  0.4939  0.0064
 3808W        W18939  11.604   3.933   1.621 -0.0005 -0.0513  0.0167
 3809W        W18940  13.512   7.249   0.633  0.1826 -0.0872 -0.0637
 3810W        W18941   8.696  15.391   5.459 -0.0964 -0.0197  0.2336
 3811W        W18942   7.583  14.242  13.717  0.0492  0.2609 -0.0304
 3812W        W18943   1.439   6.531   1.713  0.1949  0.1359  0.0423
 3813W        W18944  10.701  13.833  13.500  0.0338  0.1574 -0.4013
 3814W        W18945  17.422   6.853  15.138 -0.0432 -0.0182 -0.0291
 3815W        W18946  18.028   6.748  11.117  0.2308 -0.0445  0.0939
 3816W        W18947   2.532  11.088  13.022  0.0855  0.4411 -0.0788
 3817W        W18948   8.332  18.096  14.982 -0.3581 -0.3271 -0.2064
 3818W        W18949  15.715  15.177   4.887  0.0074  0.1557 -0.0261
 3819W        W18950  13.939   1.706   0.255 -0.0927  0.4024  0.1944
 3820W        W18951   5.038   4.521  13.978 -0.1183  0.2003  0.4122
 3821W        W18952   0.401   1.400   5.548  0.1280 -0.0735 -0.2300
 3822W        W18953   9.652   9.991  11.906  0.0605 -0.0326 -0.0605
 3823W        W18954   3.748  12.371   1.985 -0.1078  0.1184 -0.1680
 3824W        W18955   5.572   9.797   9.858  0.4931  0.1918  0.2386
 3825W        W18956   6.856  17.048  12.498 -0.2654 -0.0994 -0.2793
 3826W        W18957   7.553   4.754  15.174 -0.3574  0.0255 -0.0583
 3827W        W18958  11.220  13.960   4.074  0.0632  0.2224  0.4225
 3828W        W18959   0.098   0.010   0.506  0.0587 -0.1891 -0.3957
 3829W        W18960  14.917   6.459   3.947 -0.1626 -0.0461 -0.0059
 3830W        W18961  13.066  15.373   4.421  0.0746  0.3059  0.3115
 3831W        W18962  15.892  14.308   2.681  0.0709 -0.0076 -0.2042
 3832W        W18963   0.256  12.889   5.123  0.0562  0.0343  0.1528
 3833W        W18964   6.849  10.304  12.574  0.3396  0.1258 -0.1217
 3834W        W18965   1.990   6.700   4.953 -0.0919 -0.2324 -0.2264
 3835W        W18966  11.778  12.826   0.611 -0.0233  0.1254 -0.2253
 3836W        W18967   4.472   3.160  13.049  0.0885  0.0935 -0.1390
 3837W        W18968  11.583   3.925   4.235 -0.0610 -0.0314 -0.2266
 3838W        W18969  11.332   4.647   5.335  0.0961  0.3174 -0.0502
 3839W        W18970   9.236   2.147   6.024 -0.0202 -0.3175  0.1595
 3840W        W18971  11.781   2.523   2.178 -0.0411  0.2407 -0.0179
 3841W        W18972  17.181  13.143  13.183 -0.2553  0.0808 -0.1643
 3842W        W18973   3.206   0.133   3.212 -0.0055  0.0717  0.4276
 3843W        W18974  16.479  16.636   3.218 -0.0931  0.1817 -0.1178
 3844W        W18975  16.177  11.412  12.537 -0.0176  0.0482 -0.0350
 3845W        W18976   3.287   3.775  15.236 -0.1094 -0.1060  0.2003
 3846W        W18977   1.393  13.552   6.107  0.1469  0.0002 -0.1190
 3847W        W18978  13.778   8.635  14.103 -0.3748  0.0706 -0.0123
 3848W        W18979  11.563  15.996  14.114  0.1728  0.0159 -0.2187
 3849W        W18980   0.669   4.903   4.513  0.0056 -0.0570 -0.0998
 3850W        W18981   6.478   8.122  13.958 -0.1253  0.1279  0.2594
 3851W        W18982  15.659  16.772   0.240  0.1066 -0.0944  0.2970
 3852W        W18983   9.760   8.322  14.428 -0.0914 -0.0707 -0.1605
 3853W        W18984   2.563   0.041  13.501  0.1330 -0.0076  0.1275
 3854W        W18985   5.187   9.221  13.545 -0.2273  0.0385 -0.2071
 3855W        W18986  15.590  16.107  13.702 -0.0770  0.2368  0.1050
 3856W        W18987  10.696   8.292   5.369 -0.0573  0.1407 -0.0912
 3857W        W18988  11.815   0.150  14.341 -0.2047  0.0278  0.0647
 3858W        W18989   5.219   3.215  13.475  0.2362 -0.0778  0.0214
 3859W        W18990  16.227   8.304   1.093  0.2136 -0.1753 -0.0439
 3860W        W18991   6.581  10.814   4.312 -0.1576  0.0740 -0.0459
 3861W        W18992  14.870  15.540   5.080  0.1039 -0.2000  0.3309
 3862W        W18993  17.374  13.653  13.373  0.1026  0.0517 -0.2708
 3863W        W18994  12.654   4.345   2.217  0.0739 -0.0926 -0.1218
 3864W        W18995  15.512   2.814  13.763  0.2693 -0.1141  0.0822
 3865W        W18996  14.773  17.000   3.516  0.0411  0.0195  0.0572
 3866W        W18997   2.763   5.071  15.562  0.2761  0.3036  0.6933
 3867W        W18998  10.671  16.471  15.448  0.0861  0.1141  0.0757
 3868W        W18999  14.641   8.354  12.714  0.0092  0.0617  0.1876
 3869W        W19000  15.102   4.963   3.191 -0.0242  0.1299 -0.0186
 3870W        W19001  12.162   5.548  11.073  0.0887 -0.0317  0.4946
 3871W        W19002   7.949   1.459  15.013  0.1050 -0.0725 -0.3123
 3872W        W19003   0.711  16.843   4.133 -0.0616 -0.0021 -0.1594
 3873W        W19004   9.354   1.435  11.724 -0.2813 -0.0071  0.2794
 3874W        W19005   5.617  15.156   4.482  0.1602  0.1994 -0.0778
 3875W        W19006  10.025   7.503  16.036 -0.2643 -0.2718  0.1010
 3876W        W19007   5.033   6.071   1.962  0.3830  0.0755  0.0906
 3877W        W19008  14.593  17.919   3.365 -0.2301  0.2161  0.0515
 3878W        W19009   5.381   9.655   2.246  0.2131  0.0301  0.1743
 3879W        W19010   6.907   6.904  11.179 -0.2169  0.0777  0.1176
 3880W        W19011  17.003  16.378   3.941  0.2738 -0.0853  0.3039
 3881W        W19012   5.242   4.770  12.894  0.1747 -0.1409  0.1328
 3882W        W19013   5.962   9.550  12.305 -0.2241  0.4084  0.2452
 3883W        W19014   1.528   8.205   2.797 -0.1755  0.3109 -0.2311
 3884W        W19015  16.134  15.686   0.341  0.0776 -0.1294  0.1359
 3885W        W19016  16.548   4.061  15.074  0.0025  0.1479 -0.1126
 3886W        W19017   4.639   1.324   3.763  0.1519 -0.1048 -0.0560
 3887W        W19018  17.362  11.710   1.860 -0.0829  0.2473 -0.2445
 3888W        W19019  16.706  18.127  12.720  0.0042  0.0939 -0.0725
 3889W        W19020   6.798   7.863   4.862  0.2021 -0.1547 -0.0323
 3890W        W19021  12.426   1.836  12.847  0.0599  0.2004  0.1914
 3891W        W19022   5.305   3.026   3.245  0.0026 -0.0283  0.0309
 3892W        W19023  11.429   8.795  16.228 -0.1138 -0.1158 -0.3415
 3893W        W19024  15.774   9.400  12.322  0.2375 -0.1923  0.0453
 3894W        W19025  15.043  10.125   5.263 -0.0025 -0.1821  0.2338
 3895W        W19026   9.175  13.608  15.223  0.1698  0.0802 -0.1502
 3896W        W19027  11.752   5.285   2.652 -0.1897  0.0294 -0.0310
 3897W        W19028   3.681   9.348  15.350  0.1103 -0.0186  0.0369
 3898W        W19029   3.019  13.274  10.734  0.1091  0.0055  0.0372
 3899W        W19030   5.431  16.906   4.611  0.2841 -0.0100  0.1979
 3900W        W19031  14.704  10.051   2.336 -0.2383 -0.0306 -0.1511
 3901W        W19032   2.028  10.957  15.904  0.1165  0.2461 -0.1411
 3902W        W19033   0.638  12.446  11.718 -0.2497 -0.0565 -0.0994
 3903W        W19034   1.422   6.169   4.928  0.1680  0.2080 -0.1932
 3904W        W19035  16.236   1.585   4.335 -0.1977  0.2769 -0.2988
 3905W        W19036   5.870  10.126  14.761  0.1882  0.1554 -0.0186
 3906W        W19037   9.230   6.980  15.601  0.1597  0.1665 -0.0826
 3907W        W19038   2.809  13.381   3.767  0.0531 -0.0533 -0.0081
 3908W        W19039  10.522   5.737   2.895 -0.2553  0.1485 -0.0924
 3909W        W19040  12.531   1.259   5.298  0.1903 -0.1673 -0.2954
 3910W        W19041  14.141   9.034   0.918  0.0964 -0.0485  0.0200
 3911W        W19042  15.287  17.604  15.021 -0.0926  0.2577 -0.1084
 3912W        W19043  16.249   2.541  13.700  0.0158 -0.1214 -0.3355
 3913W        W19044  14.144   8.756  11.827  0.0092 -0.0982 -0.0973
 3914W        W19045   8.984  16.921  11.400  0.1918  0.2138  0.1528
 3915W        W19046   4.405  12.278   3.918  0.2624  0.1559  0.0212
 3916W        W19047   9.938  14.879  15.593 -0.3807 -0.1045  0.3902
 3917W        W19048   8.792  12.807   3.084 -0.0768 -0.0079  0.0592
 3918W        W19049  10.509   8.641  11.400  0.2407 -0.1215 -0.0043
 3919W        W19050  17.161  14.849  12.072  0.4158 -0.1780 -0.5497
 3920W        W19051   6.338  10.332   3.791  0.2757  0.2223 -0.3617
 3921W        W19052  13.409   1.948   5.539  0.1435  0.0361 -0.0786
 3922W        W19053   7.073   3.988   0.806 -0.3692  0.0626 -0.0083
 3923W        W19054  17.674   6.380  11.081  0.3052 -0.0508  0.0039
 3924W        W19055   6.578  15.295   3.406 -0.1931 -0.0277 -0.2492
 3925W        W19056  14.822  14.479   5.543 -0.2269 -0.1826  0.1720
 3926W        W19057  13.754   9.237   0.646 -0.0002 -0.0517  0.3128
 3927W        W19058   4.438   5.197  11.662 -0.3052  0.1629 -0.0781
 3928W        W19059  15.550   1.825  11.758 -0.0358 -0.1679 -0.1066
 3929W        W19060  13.923  15.911  10.870  0.0150 -0.0694 -0.1141
 3930W        W19061   9.962  14.800   2.836 -0.0375  0.2624 -0.1713
 3931W        W19062   2.089  15.567  13.608  0.0618 -0.0630 -0.0487
 3932W        W19063   4.791   1.558  15.448  0.3110 -0.1026 -0.0463
 3933W        W19064   2.634  10.526  14.991 -0.1112  0.1985 -0.2416
 3934W        W19065   9.665   9.300   3.783  0.2220 -0.1969 -0.1948
 3935W        W19066   6.628  12.637  14.713  0.0511  0.0926  0.0993
 3936W        W19067  10.974  17.899   1.087  0.1233  0.0212 -0.1506
 3937W        W19068  12.105  17.171  15.300 -0.2009 -0.1115 -0.1037
 3938W        W19069   9.423  17.414  12.550 -0.0376  0.1082  0.2281
 3939W        W19070   3.470  14.469   3.218  0.0359 -0.3172  0.3866
 3940W        W19071   0.801   4.357  14.852  0.2453  0.0244  0.2923
 3941W        W19072  15.110   3.555   4.834 -0.2083  0.3477  0.0100
 3942W        W19073   4.081   5.405   2.749  0.1629  0.0131  0.2929
 3943W        W19074   4.619  11.143  14.236  0.0697 -0.0500 -0.2727
 3944W        W19075   3.864   2.474  14.222  0.2310 -0.1777  0.0737
 3945W        W19076  11.004   7.556   1.642  0.3032 -0.2319 -0.0289
 3946W        W19077  10.984   7.923   5.639 -0.1094 -0.0236 -0.0290
 3947W        W19078   4.795   5.286   3.477  0.3318 -0.0485  0.1567
 3948W        W19079  13.524  11.518   1.005 -0.1537 -0.0290 -0.0423
 3949W        W19080   2.244  10.197   4.035 -0.0677  0.2540 -0.0576
 3950W        W19081  13.372   9.890  13.978 -0.1097 -0.5299 -0.0114
 3951W        W19082  14.823   2.754   3.203  0.3308 -0.1313 -0.0060
 3952W        W19083   6.130   0.772   5.347 -0.2816  0.2359  0.1448
 3953W        W19084   8.078   2.270   3.609  0.0431  0.2528 -0.0613
 3954W        W19085   7.245   3.043  11.026 -0.3746 -0.1103 -0.0882
 3955W        W19086   5.458  15.685   4.649  0.0048 -0.1080 -0.0120
 3956W        W19087   0.713  10.822  15.022 -0.1205 -0.3642 -0.0437
 3957W        W19088   4.310  12.881  14.447 -0.1995  0.0116  0.2987
 3958W        W19089  16.498  15.164   2.225 -0.1722  0.0675  0.0135
 3959W        W19090   8.766   5.124   3.984  0.1241  0.1131  0.0470
 3960W        W19091   3.998  16.902   1.406  0.1285  0.1574 -0.1134
 3961W        W19092   1.131   5.996  13.142  0.0078 -0.1973 -0.1180
 3962W        W19093   4.295  13.172  11.591  0.0225 -0.1019  0.1162
 3963W        W19094  10.175   6.338  13.476  0.0557  0.0008 -0.3229
 3964W        W19095   3.420   0.344   4.027 -0.0027 -0.0965  0.0880
 3965W        W19096   5.384   1.414  14.037  0.1544  0.1230  0.0037
 3966W        W19097   1.332  10.835   2.530  0.1891  0.1129 -0.2041
 3967W        W19098   3.689   9.556   3.915  0.2493 -0.1241 -0.0879
 3968W        W19099   7.850   1.664   1.832 -0.0241 -0.0707 -0.1547
 3969W        W19100  10.671  15.663   3.935  0.0603  0.4660 -0.3356
 3970W        W19101  12.945   7.166   3.019 -0.1333  0.0206 -0.1041
 3971W        W19102  16.189   2.109   5.930  0.1001  0.0531  0.0755
 3972W        W19103   1.237   8.467   1.717 -0.0113  0.0154 -0.1669
 3973W        W19104  10.333  13.444  11.518  0.1122  0.0129 -0.0216
 3974W        W19105   5.317  11.930   4.356  0.1662  0.0829 -0.3272
 3975W        W19106   3.302   6.543  15.589  0.0315  0.0607  0.1024
 3976W        W19107   2.237  12.112  12.146 -0.0684 -0.0805 -0.1062
 3977W        W19108   1.682   7.126  14.657 -0.1258  0.0041  0.3572
 3978W        W19109  17.669   0.615   3.893  0.3384 -0.0070 -0.2052
 3979W        W19110   0.590   2.053   4.736 -0.3539  0.2202  0.0762
 3980W        W19111   0.544   6.214   4.395  0.0494  0.1046 -0.0956
 3981W        W19112   3.471  14.770  12.511 -0.1412  0.0312  0.2401
 3982W        W19113   2.037   6.788   3.729  0.0655  0.0503  0.0130
 3983W        W19114   6.629   2.284   6.067 -0.2218 -0.0452  0.1146
 3984W        W19115   9.958  15.841  15.577  0.1118 -0.1404  0.1112
 3985W        W19116  11.394  11.474  14.968  0.0026 -0.4372  0.0368
 3986W        W19117   9.371  12.419  14.626  0.1849 -0.1464 -0.1451
 3987W        W19118   3.912  12.477  15.995  0.0224  0.1097 -0.0818
 3988W        W19119  13.802   3.881   5.128 -0.1906  0.2189  0.1507
 3989W        W19120   8.310  10.422  14.549 -0.2388 -0.1251  0.1986
 3990W        W19121  11.438   2.387   0.396 -0.0491 -0.2533 -0.0454
 3991W        W19122   8.858  12.883   0.193  0.0475 -0.0267 -0.2530
 3992W        W19123   5.315  15.630   4.135 -0.0482 -0.0296 -0.1541
 3993W        W19124  12.174   7.877   1.166 -0.2276  0.1633 -0.1007
 3994W        W19125   2.136   7.392   0.405 -0.2732  0.3219  0.0083
 3995W        W19126  10.820   3.154   1.646 -0.2261  0.0968 -0.0195
 3996W        W19127   0.285  15.823   0.545 -0.1940 -0.0848  0.2937
 3997W        W19128   1.351   3.923   0.103  0.0586  0.0904 -0.0423
 3998W        W19129   0.423   7.124  10.692 -0.0405 -0.2155 -0.1979
 3999W        W19130  16.355   2.257   4.783 -0.1178 -0.0021  0.0786
 4000W        W19131   2.035   6.254   3.536 -0.0798  0.0017  0.0023
 4001W        W19132   8.964   4.687   1.285  0.3326 -0.0889 -0.3540
 4002W        W19133   7.369   2.495  14.690 -0.1176  0.0926  0.0095
 4003W        W19134  15.781  11.232   1.419  0.0433 -0.0888  0.2011
 4004W        W19135   1.999   1.969  12.120 -0.0524  0.0398  0.0239
 4005W        W19136   0.625  15.610  10.820 -0.0443 -0.0550 -0.1971
 4006W        W19137   4.316  12.014   3.091  0.0949  0.1439  0.3087
 4007W        W19138  12.083   3.885  14.721 -0.2559  0.0547 -0.0794
 4008W        W19139  17.975  14.019   4.292 -0.2342 -0.0249  0.0847
 4009W        W19140   6.063  12.426   1.888  0.0438 -0.0019  0.1051
 4010W        W19141  12.643  10.558  11.855 -0.0963  0.0263 -0.3763
 4011W        W19142   8.537  12.763   1.509  0.1848 -0.0650  0.1386
 4012W        W19143  15.355   8.273  13.473 -0.0921  0.0309  0.1768
 4013W        W19144   4.997  16.678  13.912 -0.0050 -0.2831  0.2222
 4014W        W19145  16.765   0.794  12.534  0.1770  0.2217 -0.1346
 4015W        W19146   8.795  11.758   2.653  0.2293 -0.1677 -0.1148
 4016W        W19147   3.153   6.642   2.946  0.0308 -0.0230 -0.2049
 4017W        W19148   7.219   5.056  12.229 -0.2067 -0.1947 -0.1195
 4018W        W19149   6.679  11.132  11.953  0.0205 -0.1594  0.1006
 4019W        W19150  15.914   4.634   2.837  0.1123  0.1173  0.1169
 4020W        W19151  18.128  16.078   2.641 -0.1961 -0.1589  0.0094
 4021W        W19152   0.956  17.556   3.908  0.0873  0.0593 -0.0117
 4022W        W19153   6.834   3.851  15.116 -0.0133  0.0612  0.3365
 4023W        W19154   0.086   0.131  13.360 -0.0181 -0.2683  0.1146
 4024W        W19155  14.222   1.581   5.608  0.0953 -0.2450  0.0973
 4025W        W19156   3.358  12.981  14.939  0.0845 -0.3298 -0.0768
 4026W        W19157  16.701  17.169   3.914  0.0217  0.2434 -0.1892
 4027W        W19158   5.144   8.703  13.404  0.0216  0.2411  0.1596
 4028W        W19159   4.853  13.147   3.555 -0.1389  0.0460  0.2617
 4029W        W19160  16.470  16.101   5.351  0.0859  0.0080  0.0995
 4030W        W19161  16.359  17.491   2.801  0.1340  0.0254  0.3243
 4031W        W19162  11.907  17.388   4.494  0.1786  0.2736 -0.3285
 4032W        W19163   4.093   6.998  11.767  0.1829  0.5051 -0.3556
 4033W        W19164   6.868   0.696  13.568  0.1968 -0.2304 -0.1110
 4034W        W19165  18.115   3.168   5.245 -0.0570 -0.1144 -0.3582
 4035W        W19166   8.449  10.893   3.005 -0.1322 -0.3969  0.1561
 4036W        W19167   9.555   5.162   3.308 -0.1236  0.0940  0.2288
 4037W        W19168  12.792   4.908  13.268 -0.2306  0.1910  0.1461
 4038W        W19169   2.725   1.297  11.953 -0.2642  0.1621  0.1016
 4039W        W19170   5.423   5.462   4.184 -0.0850 -0.1356 -0.1661
 4040W        W19171  10.562   7.813   0.993 -0.0482  0.1225 -0.2184
 4041W        W19172  14.112  13.884  13.845  0.2089  0.1403  0.3509
 4042W        W19173  15.456  15.076  14.159  0.2393 -0.1103  0.0280
 4043W        W19174   7.992   7.945  15.678  0.1222  0.0841 -0.1113
 4044W        W19175   5.033  16.774   2.202 -0.0421 -0.0321 -0.1076
 4045W        W19176  14.111   6.167   4.530  0.1847 -0.0870 -0.1347
 4046W        W19177   0.823   1.716  14.924 -0.0684 -0.1945 -0.0211
 4047W        W19178   4.075   2.789  10.826 -0.0033  0.1089 -0.1088
 4048W        W19179  13.287   0.187  14.920 -0.1110 -0.4804 -0.0144
 4049W        W19180   6.278   9.080  13.538 -0.3310 -0.1484 -0.0662
 4050W        W19181   3.857   4.289   1.561 -0.0290 -0.1398 -0.0298
 4051W        W19182  14.759  17.602   1.467  0.2172 -0.0207 -0.0917
 4052W        W19183   6.517  13.070   2.281 -0.1201 -0.1790  0.0885
 4053W        W19184  16.254   7.952  12.431 -0.1027 -0.2779 -0.1000
 4054W        W19185   6.347  11.248  13.703 -0.1411  0.0569 -0.1741
 4055W        W19186   5.283   8.709  16.034 -0.0847  0.2953 -0.4183
 4056W        W19187   9.050   8.132   1.667  0.1376  0.2657 -0.0886
 4057W        W19188   9.564  12.099   4.353 -0.1192  0.1817  0.1274
 4058W        W19189   3.307   8.080  10.554  0.1099  0.0548 -0.0745
 4059W        W19190   8.637   0.970  10.447 -0.0203 -0.0795 -0.2741
 4060W        W19191  10.022   7.811   3.815 -0.2377  0.1567  0.0483
 4061W        W19192  12.838   0.532   0.980  0.1241 -0.1231  0.0993
 4062W        W19193  16.783   0.244   4.625  0.1320  0.1783  0.0618
 4063W        W19194  15.108  12.891  14.351 -0.0328  0.2262 -0.0313
 4064W        W19195   2.986  12.728   1.190 -0.1237  0.1915  0.1155
 4065W        W19196   5.322   2.743  13.739 -0.1225 -0.2214 -0.3177
 4066W        W19197   3.200   6.294  14.753 -0.0464  0.3657 -0.0643
 4067W        W19198   4.315  12.454  12.510 -0.1722  0.0426 -0.2358
 4068W        W19199  17.172  18.101  12.445 -0.1011  0.0291  0.2447
 4069W        W19200   8.993  10.065   1.036 -0.0441  0.1872  0.0604
 4070W        W19201   3.509   6.296   2.986 -0.0529  0.2004  0.1302
 4071W        W19202  12.991  13.223   0.215  0.0563 -0.0842 -0.1657
 4072W        W19203   3.175   4.031  12.608 -0.3899  0.0631 -0.2125
 4073W        W19204   5.592   2.119  15.689  0.2365 -0.0179 -0.1141
 4074W        W19205   1.981  17.823   5.080 -0.1229  0.0444  0.0303
 4075W        W19206  13.528   9.257  13.260  0.0336  0.1215  0.1896
 4076W        W19207   5.311  11.679  15.486 -0.0830  0.3042 -0.3087
 4077W        W19208   4.832   3.738  11.626 -0.1597 -0.0077  0.0696
 4078W        W19209   8.484   1.901  13.038  0.1061  0.2584  0.0865
 4079W        W19210   5.528   9.505  10.838  0.1567 -0.1431 -0.1592
 4080W        W19211  10.262  11.165  15.898  0.1878  0.2152 -0.0168
 4081W        W19212   8.712   2.155  16.006  0.0118  0.4820  0.1717
 4082W        W19213  17.645   2.990  11.414 -0.1908 -0.2047  0.1610
 4083W        W19214   9.696   5.257   3.772  0.1562  0.1212 -0.0815
 4084W        W19215   9.321   4.046   1.393  0.0356  0.1131  0.1491
 4085W        W19216  13.929   0.384   5.592 -0.0678 -0.1601 -0.4497
 4086W        W19217   0.474   7.733   3.343 -0.1612  0.1082 -0.0994
 4087W        W19218  14.825   9.438   1.477  0.3715  0.1352  0.0268
 4088W        W19219  16.931   8.556   0.491  0.2351  0.2055  0.0644
 4089W        W19220  15.863   0.055   3.634  0.2624  0.0985  0.2650
 4090W        W19221   5.496  13.083   2.178  0.1041  0.3197  0.0172
 4091W        W19222  12.966   6.927  14.031  0.0728 -0.0523 -0.3217
 4092W        W19223   5.910   6.101   2.218 -0.1944  0.3289  0.2950
 4093W        W19224   7.445  11.859   2.189  0.1072  0.0290 -0.0164
 4094W        W19225   4.412  10.242  15.815  0.1276  0.2488  0.0508
 4095W        W19226   3.715   8.570  11.296 -0.0416  0.0482  0.1089
 4096W        W19227   1.169   7.924  12.035  0.0176 -0.0027 -0.1061
 4097W        W19228   1.333  11.771  15.403  0.0772  0.0470  0.0834
 4098W        W19229   2.576  15.938  12.638 -0.2713  0.1396 -0.0436
 4099W        W19230   4.811  13.732  14.295 -0.0018 -0.1398 -0.2646
 4100W        W19231   0.488   6.492   4.868 -0.1855 -0.4065 -0.0970
 4101W        W19232   5.185   4.621   3.969 -0.1753  0.0550  0.2664
 4102W        W19233  16.502  12.172   2.716  0.3746  0.0839 -0.1433
 4103W        W19234  10.920   7.839  11.922 -0.2771 -0.0252 -0.0555
 4104W        W19235  18.057   8.921   3.120  0.0988  0.1537 -0.1098
 4105W        W19236  16.146   0.998   0.389 -0.1969  0.1235 -0.0754
 4106W        W19237  10.399  11.282  12.487  0.1418 -0.0110  0.0038
 4107W        W19238   3.054  18.124  13.574  0.0631  0.2607  0.2017
 4108W        W19239   4.267   0.705   1.941 -0.0591  0.2347  0.1322
 4109W        W19240   6.568   1.404   3.191 -0.3533 -0.1747 -0.0369
 4110W        W19241   8.253  18.016  10.597  0.2270 -0.0219 -0.0791
 4111W        W19242   0.716   0.255   0.409 -0.3215 -0.0754  0.1897
 4112W        W19243  13.550  13.365   2.320  0.1522 -0.0290 -0.3638
 4113W        W19244   4.117   3.882   4.189  0.1165  0.1541  0.1402
 4114W        W19245   9.689   5.854   1.055 -0.0638  0.0014  0.1244
 4115W        W19246  13.514  17.054   3.710  0.0255  0.2512 -0.2424
 4116W        W19247  12.678   7.614   2.862  0.2051  0.0845  0.1050
 4117W        W19248  14.165   7.038   3.962 -0.2043  0.1734 -0.0007
 4118W        W19249  10.641  16.292   5.180  0.0898  0.3725 -0.0845
 4119W        W19250   4.781   2.487  14.263 -0.1475  0.2894 -0.0540
 4120W        W19251  15.484   0.784  11.509 -0.0241  0.2456 -0.2882
 4121W        W19252   3.174  11.169  13.032 -0.1108 -0.0060 -0.2533
 4122W        W19253   8.806   7.342  15.261 -0.1562 -0.1465 -0.0232
 4123W        W19254  17.994   0.636  15.316 -0.0448  0.1231  0.0640
 4124W        W19255  13.288   6.629   2.180  0.0900  0.0598 -0.0011
 4125W        W19256  10.821  11.400   2.516  0.0523  0.1830  0.1271
 4126W        W19257  10.952   3.791   3.563 -0.0070  0.1215 -0.1193
 4127W        W19258   4.015  16.186  13.667 -0.5435 -0.2403  0.0300
 4128W        W19259  15.534  14.693  15.057  0.4086 -0.1444  0.1298
 4129W        W19260   1.364   2.960   4.877 -0.0243 -0.0451  0.3486
 4130W        W19261  13.548  12.961  14.422 -0.2097 -0.1678 -0.0021
 4131W        W19262  11.383  12.959  15.091 -0.1371  0.0044 -0.1560
 4132W        W19263   8.572  15.229  14.744 -0.2588  0.1774  0.2300
 4133W        W19264   6.042  17.017   5.772  0.1135  0.1352  0.1951
 4134W        W19265   8.961  18.175   4.017 -0.1470  0.2889  0.1560
 4135W        W19266  11.169  11.284   0.654  0.2589  0.2993  0.2668
 4136W        W19267   2.620  16.927   1.937  0.1887  0.1631 -0.0187
 4137W        W19268  12.917   5.669  15.013 -0.1635  0.2602  0.1557
 4138W        W19269  15.735   6.421   3.166  0.0009  0.0662  0.1652
 4139W        W19270   1.642  14.773   2.230 -0.1481 -0.3041 -0.0833
 4140W        W19271  15.629   2.642  14.426  0.2780  0.0181  0.1325
 4141W        W19272  12.046  10.281   3.134 -0.0366 -0.1958 -0.0703
 4142W        W19273  15.187  10.578   5.244  0.0470  0.2923  0.0284
 4143W        W19274  12.808   4.769   1.938 -0.0704 -0.2530 -0.0613
 4144W        W19275   7.497  13.980   5.451 -0.1705 -0.0440 -0.0311
 4145W        W19276   1.773  17.508  13.038  0.1895 -0.0024  0.0708
 4146W        W19277   0.390  12.825  10.287  0.0093 -0.1043  0.0235
 4147W        W19278  13.894   8.223   3.237  0.1562 -0.3267 -0.3075
 4148W        W19279  15.699  16.836  12.673 -0.3139  0.2703 -0.2565
 4149W        W19280   0.379  14.517  13.839 -0.0682 -0.3053  0.2041
 4150W        W19281  11.921   6.339  12.900 -0.1180  0.0103 -0.2291
 4151W        W19282   1.910   9.563  12.814  0.1730 -0.1364 -0.1395
 4152W        W19283   9.205   9.550  12.497  0.0337  0.3264  0.1513
 4153W        W19284   3.942   3.789  11.863  0.1886  0.0733 -0.4029
 4154W        W19285  14.588  12.219   0.325 -0.0190  0.3349  0.0649
 4155W        W19286   6.391   2.106  15.522  0.3335  0.1159 -0.1435
 4156W        W19287  10.291  14.884  13.924  0.2035  0.1004 -0.1168
 4157W        W19288   7.268   1.923   4.934 -0.0017 -0.2101  0.2495
 4158W        W19289  16.420   9.767   0.288 -0.0664 -0.1063  0.0003
 4159W        W19290   3.198   6.399   4.604 -0.0681  0.3504 -0.0189
 4160W        W19291   1.764  10.307  11.419  0.2643  0.1808 -0.1464
 4161W        W19292   5.560   0.606  13.176  0.3174  0.2499  0.0243
 4162W        W19293   7.789  17.629   2.550  0.2007 -0.0764 -0.1391
 4163W        W19294   9.946  14.328   1.052 -0.1634  0.2226 -0.0784
 4164W        W19295   0.207  10.920   0.149  0.0917  0.2805  0.3820
 4165W        W19296   7.293  10.965  13.030 -0.5281 -0.0697 -0.0353
 4166W        W19297  17.828   2.913  15.535 -0.0026  0.1737 -0.0286
 4167W        W19298   0.969   7.491   2.536  0.1449 -0.0314  0.0928
 4168W        W19299   1.654  13.809   1.874 -0.0010  0.0445  0.2363
 4169W        W19300  11.023   6.285  16.197  0.1138  0.0463  0.0910
 4170W        W19301  11.688   7.341   0.500  0.2009  0.2343  0.3754
 4171W        W19302   0.572   7.063   5.576 -0.3100 -0.4008  0.3487
 4172W        W19303   9.151   2.864  15.073 -0.0057  0.1609 -0.1031
 4173W        W19304  13.472   1.730   3.983 -0.0297 -0.3904 -0.0955
 4174W        W19305  15.580   4.309   2.552  0.2631 -0.1481 -0.0372
 4175W        W19306   3.909   0.590   4.010 -0.0116  0.0139 -0.0807
 4176W        W19307  14.014  17.949   2.585 -0.0059  0.1946  0.0211
 4177W        W19308   5.250   7.935   2.273 -0.0414  0.0392 -0.2849
 4178W        W19309   4.346  14.935   2.565 -0.0951 -0.0298  0.1502
 4179W        W19310  16.032   3.758   6.542 -0.1421 -0.2031  0.2540
 4180W        W19311   8.746   5.562   0.869  0.1152 -0.2675  0.0737
 4181W        W19312   9.621   7.180   4.030 -0.1228 -0.0955  0.0374
 4182W        W19313   2.573  13.891  10.847  0.3993 -0.0277  0.0179
 4183W        W19314  10.582   8.279   2.424  0.3941 -0.1483 -0.0306
 4184W        W19315   9.904  14.135  14.183  0.1238 -0.1141 -0.0463
 4185W        W19316   5.036   8.398  12.099 -0.1298  0.1600 -0.2795
 4186W        W19317  13.588   5.193   2.399 -0.0303 -0.0597  0.1048
 4187W        W19318  17.964  12.796  12.287 -0.0503  0.0091  0.0181
 4188W        W19319  12.767   5.644  14.462 -0.1123 -0.1248  0.2669
 4189W        W19320   1.361  13.990  15.677 -0.0187 -0.2276 -0.3609
 4190W        W19321  14.010   1.521   2.993  0.0595 -0.1479  0.0845
 4191W        W19322   0.018  10.190  13.775 -0.1658  0.2221  0.1396
 4192W        W19323  10.181  14.179   2.276  0.0580 -0.0601 -0.1239
 4193W        W19324  17.106   3.095   3.475 -0.2173 -0.0076  0.0346
 4194W        W19325   8.503  11.547  12.018 -0.1057  0.0831 -0.0268
 4195W        W19326   0.588   5.528   2.596 -0.0942  0.1180  0.0115
 4196W        W19327  12.979  11.160  14.167 -0.1366 -0.2566  0.0596
 4197W        W19328   9.812   5.750  15.422  0.0681  0.1851 -0.1666
 4198W        W19329   8.716   9.221   2.398 -0.0050  0.0691  0.2723
 4199W        W19330   8.076  18.024  13.039 -0.0826 -0.3726  0.1876
 4200W        W19331  10.797  13.368   1.858  0.1715 -0.1733  0.0378
 4201W        W19332   0.892   9.665   2.545  0.5435  0.0583 -0.0516
 4202W        W19333  16.179  18.080   0.786 -0.0152 -0.0204  0.2106
 4203W        W19334   7.589   3.692   3.682 -0.0061 -0.0701  0.1593
 4204W        W19335   8.454   8.422  14.896 -0.2690 -0.0606  0.1261
 4205W        W19336   9.871   5.251   2.492 -0.3015  0.2103 -0.1139
 4206W        W19337   4.289  17.826   3.400 -0.1429  0.0014  0.1719
 4207W        W19338   3.950  11.421  13.635 -0.0593  0.0457 -0.0630
 4208W        W19339  14.803  10.831  15.488 -0.1028 -0.0645 -0.0744
 4209W        W19340  12.965  14.351   4.735  0.0787  0.1724  0.1456
 4210W        W19341   5.923   9.916  13.393 -0.0530  0.1969 -0.0910
 4211W        W19342   4.939   5.722   2.528  0.2984  0.0036 -0.0221
 4212W        W19343  13.990  11.320   0.292 -0.0078 -0.1849  0.3912
 4213W        W19344  16.302  14.916  13.051 -0.4372  0.1450 -0.1438
 4214W        W19345  11.536   4.835  11.363  0.1536  0.0077  0.2761
 4215W        W19346   2.847   6.687   2.329  0.0237  0.1010 -0.0645
 4216W        W19347  10.996  18.010   4.923  0.1281 -0.2671 -0.3925
 4217W        W19348  14.430  16.734   3.268  0.0341 -0.4570 -0.0936
 4218W        W19349   8.652  16.786  11.026  0.4577 -0.2936 -0.0052
 4219W        W19350   2.665  10.580  12.575 -0.2697  0.1914  0.2405
 4220W        W19351  11.780  16.991   5.745 -0.1507 -0.5045 -0.0802
 4221W        W19352   9.696   6.785   0.361 -0.1787 -0.2217 -0.2609
 4222W        W19353  15.715   5.214  13.924 -0.0650  0.3798  0.0913
 4223W        W19354   9.965   7.478  15.524  0.0940 -0.1876  0.0579
 4224W        W19355   7.332   8.355  10.912 -0.1223  0.2306  0.1351
 4225W        W19356  14.299   0.342  12.015 -0.0768 -0.0883  0.1980
 4226W        W19357   8.839   4.027   0.866  0.0889 -0.1802 -0.4640
 4227W        W19358   7.729   5.126   3.704  0.0546  0.0199  0.1267
 4228W        W19359   7.527   1.188   0.249  0.1546 -0.1906  0.2493
 4229W        W19360   2.070   2.434   1.203  0.1033 -0.1263 -0.2595
 4230W        W19361   6.416   8.096  14.881 -0.0768  0.2076  0.2100
 4231W        W19362   2.069   6.690   5.920  0.1169  0.0719 -0.1107
 4232W        W19363   4.881  17.062   5.759  0.0407 -0.0460 -0.1418
 4233W        W19364  17.531  10.247  14.341 -0.1638 -0.2237 -0.3573
 4234W        W19365  12.361  13.948   0.065 -0.1545  0.1382 -0.0525
 4235W        W19366   9.142  13.885   0.401 -0.1219 -0.1002  0.0629
 4236W        W19367  12.007  17.973  14.671  0.2118  0.1772 -0.1408
 4237W        W19368   9.586   7.720  15.046 -0.4636  0.2672 -0.0259
 4238W        W19369   4.107  17.396  13.932 -0.3291  0.1181 -0.0368
 4239W        W19370   1.133  15.449  14.059  0.2268 -0.0590  0.2004
 4240W        W19371  10.747   8.002   1.514  0.0010 -0.0800  0.0503
 4241W        W19372   7.101  15.783   1.912  0.1443  0.1359 -0.0296
 4242W        W19373   3.506   0.757   0.151 -0.0397  0.2019 -0.0614
 4243W        W19374   7.019  12.656   0.568  0.0926  0.2647 -0.0284
 4244W        W19375  12.073   0.836   2.954  0.2581  0.0531  0.0374
 4245W        W19376  14.917  17.579  11.381  0.3302 -0.4146  0.1677
 4246W        W19377  16.594  11.866   0.127 -0.1076 -0.0836  0.3007
 4247W        W19378  16.944   1.022   2.151  0.2824 -0.0864 -0.2907
 4248W        W19379   6.349   4.600  10.237  0.0758 -0.0018 -0.1190
 4249W        W19380   5.620  16.289   0.924 -0.2706  0.1993 -0.2049
 4250W        W19381   2.892   1.819   2.737  0.1804  0.2384 -0.2291
 4251W        W19382   8.333   1.051   3.537  0.0513 -0.0761 -0.0284
 4252W        W19383  15.267   5.561   3.082 -0.1672  0.0254  0.1026
 4253W        W19384  10.004   7.051  10.947  0.2591 -0.1739 -0.2458
 4254W        W19385   5.968  16.685   0.035 -0.0020 -0.1258 -0.0365
 4255W        W19386   6.831   1.801  15.535  0.0882 -0.2807 -0.0067
 4256W        W19387  11.586   9.435   4.897 -0.0872  0.1648 -0.1587
 4257W        W19388   5.062   8.659   4.563  0.2171  0.0033  0.2209
 4258W        W19389   5.254  15.420   5.401  0.1068  0.3114  0.0877
 4259W        W19390   4.236   8.677  12.152  0.0121 -0.3035 -0.1251
 4260W        W19391  17.790   2.766   4.208  0.0631  0.0256  0.0276
 4261W        W19392   7.159  11.308   1.137  0.0535 -0.1361  0.3125
 4262W        W19393  11.151   1.293  13.901 -0.1769  0.0122  0.2713
 4263W        W19394   1.160   0.378  14.733 -0.0659 -0.2164 -0.2013
 4264W        W19395   5.126  11.219  15.349  0.1166 -0.1927 -0.0110
 4265W        W19396   0.433  17.873  10.672 -0.1599  0.0628  0.1515
 4266W        W19397  15.934   0.507   4.893 -0.2263  0.0179  0.2157
 4267W        W19398  12.821   7.150   4.296  0.0031  0.0434  0.1273
 4268W        W19399   3.352  18.006  14.075  0.2265  0.2161 -0.1453
 4269W        W19400  12.657   4.852   3.199 -0.3792  0.0926  0.0628
 4270W        W19401  17.853  11.086   3.219  0.1197  0.1616 -0.4329
 4271W        W19402   2.333   9.639   1.073 -0.4705  0.0242 -0.0709
 4272W        W19403   3.439  15.323  14.029 -0.2876 -0.1165 -0.0117
 4273W        W19404   4.812   9.790   0.335  0.2077  0.0510 -0.0985
 4274W        W19405  16.094   8.669   4.365  0.0954 -0.0294  0.0394
 4275W        W19406  12.395   4.448  12.140  0.0493  0.0135  0.2140
 4276W        W19407  12.336  12.998   4.936 -0.0756  0.1117 -0.0383
 4277W        W19408  10.732  12.974   5.442  0.1130 -0.1053  0.0732
 4278W        W19409   7.533  12.368   0.600  0.1046 -0.0386 -0.1706
 4279W        W19410   4.519  11.824  15.049 -0.2597 -0.0395  0.0069
 4280W        W19411   7.164  15.487   1.015 -0.1490  0.1253 -0.0258
 4281W        W19412   5.229   3.339   5.479 -0.1735  0.0673 -0.1250
 4282W        W19413  13.890   0.812  14.827 -0.0325 -0.0325  0.0640
 4283W        W19414   2.851   7.746  16.219  0.1875  0.0232  0.1169
 4284W        W19415  10.163  10.102  11.717  0.1396 -0.2471 -0.1589
 4285W        W19416   4.060  15.494   0.102  0.4083  0.1519 -0.1650
 4286W        W19417   9.696   4.461  11.520  0.1659 -0.0223 -0.3368
 4287W        W19418  17.360   3.967   5.217 -0.3402 -0.1141  0.0556
 4288W        W19419  15.825   6.040   5.710  0.4974 -0.1076  0.0610
 4289W        W19420   4.257  15.257  15.861 -0.0593  0.0318  0.2102
 4290W        W19421   8.949  18.112  15.699  0.1136  0.3478 -0.2262
 4291W        W19422  16.224   3.316   3.015 -0.1891  0.0740 -0.1350
 4292W        W19423  11.136  11.687   5.188  0.0078 -0.1197 -0.0070
 4293W        W19424  15.568  12.802  15.070 -0.2199  0.3338 -0.1346
 4294W        W19425   5.171   1.322   3.949  0.0425 -0.1906  0.2843
 4295W        W19426   1.609   2.994  12.138  0.2174 -0.2408 -0.0411
 4296W        W19427  13.381  16.312   2.036 -0.0680 -0.2447 -0.1905
 4297W        W19428   9.006   0.592  10.460  0.1272 -0.2756 -0.1892
 4298W        W19429  13.114  16.080   2.407  0.0660 -0.1633  0.1711
 4299W        W19430   9.917   1.936  15.890 -0.1017 -0.2687 -0.3670
 4300W        W19431  13.479   9.300  11.759 -0.0222 -0.2879  0.1874
 4301W        W19432   7.319  15.567  14.490  0.1387  0.0407  0.0133
 4302W        W19433  15.519   7.603   5.772 -0.1048  0.1127 -0.1021
 4303W        W19434  15.423   4.790   1.731  0.2995 -0.1192  0.2381
 4304W        W19435  12.056  14.350   3.991  0.1171  0.0150 -0.0784
 4305W        W19436  11.913  14.832  16.150 -0.1654  0.1309 -0.1064
 4306W        W19437   0.845  17.067   3.233  0.0766 -0.0773  0.2456
 4307W        W19438   9.514   2.288  13.866  0.0166 -0.2679 -0.0218
 4308W        W19439  15.136   7.077  12.979 -0.0928  0.0216 -0.0492
 4309W        W19440  11.794   4.584   0.989 -0.0787  0.0145  0.3438
 4310W        W19441   3.326  11.852   2.859  0.4574 -0.1751  0.2539
 4311W        W19442   6.928  12.115   1.518 -0.0353 -0.0131 -0.0128
 4312W        W19443   0.604  10.595   2.227  0.0558 -0.0001 -0.1521
 4313W        W19444   8.352   5.335   1.853  0.0561  0.1322  0.1111
 4314W        W19445   6.823  15.233  15.152  0.0479  0.2362  0.1159
 4315W        W19446   7.739  17.499  12.227 -0.2920 -0.0632 -0.2289
 4316W        W19447   7.371  13.358   1.174  0.1009 -0.0004  0.2218
 4317W        W19448   6.972   5.612  12.863 -0.2378 -0.2812  0.0369
 4318W        W19449  15.601  10.988  13.666 -0.1247  0.1173  0.0253
 4319W        W19450   0.504  17.562   4.588  0.0848  0.3415  0.3527
 4320W        W19451  11.318   5.543   4.978 -0.3580 -0.0264  0.1747
 4321W        W19452  14.739  16.001   1.391  0.0769 -0.1269 -0.1445
 4322W        W19453  15.507   6.925  13.262  0.0203 -0.3915  0.2761
 4323W        W19454   3.921   2.576   2.832  0.1810  0.0688 -0.0295
 4324W        W19455   4.209  10.322  13.010 -0.1010  0.0306  0.1012
 4325W        W19456   7.830   4.633   0.561  0.3453 -0.0124 -0.3975
 4326W        W19457  13.655  10.689   0.254  0.0080 -0.1012  0.1533
 4327W        W19458  16.365   7.948   3.936  0.1707  0.0289 -0.0457
 4328W        W19459   0.769  10.651   5.302  0.1531 -0.1113 -0.1798
 4329W        W19460  15.616   8.650   1.544  0.2907 -0.2147  0.2940
 4330W        W19461  15.576   5.556  13.508 -0.1890 -0.2342  0.1491
 4331W        W19462   8.536  14.589   1.504 -0.0533 -0.4790  0.3082
 4332W        W19463   3.052   2.674   3.066  0.0342  0.1297 -0.0245
 4333W        W19464   3.152  16.199  14.814  0.2029 -0.0974  0.2614
 4334W        W19465  18.138  13.261  13.578 -0.1450 -0.2106  0.3979
 4335W        W19466   2.184   8.814  15.319 -0.0051 -0.0878  0.2846
 4336W        W19467  16.014   2.899   0.204 -0.3708  0.2177 -0.0472
 4337W        W19468   8.273  12.034  10.454 -0.3042 -0.0496  0.1069
 4338W        W19469  13.549  13.312   1.845  0.3047  0.2458  0.2450
 4339W        W19470   1.891   7.624  10.267 -0.0576  0.1420 -0.0638
 4340W        W19471   7.785  10.209  13.321 -0.0627  0.1597 -0.1832
 4341W        W19472   0.443  12.171   4.905 -0.1451  0.1548  0.0701
 4342W        W19473  16.014   2.153   1.719  0.2269  0.1572 -0.0067
 4343W        W19474   5.401  17.166  12.789 -0.0039  0.0298  0.3368
 4344W        W19475  12.108   1.755   1.253 -0.1697  0.0708 -0.0438
 4345W        W19476  15.848   6.046  12.194  0.1180  0.0077  0.1767
 4346W        W19477  16.609   0.336   5.090 -0.0286 -0.4441 -0.1975
 4347W        W19478   8.521   1.488   0.527  0.1125  0.3510 -0.3676
 4348W        W19479   1.250   4.829   0.164  0.1130  0.1257  0.0431
 4349W        W19480   6.195   1.303  16.129  0.0912 -0.0721  0.0657
 4350W        W19481  13.983  12.523  16.066 -0.0853 -0.2055 -0.2351
 4351W        W19482  12.382   7.687   0.674  0.0145  0.3252 -0.0180
 4352W        W19483  16.287   4.181  13.357  0.2969 -0.0406 -0.1191
 4353W        W19484  12.544   7.546   4.897  0.2029  0.1596  0.2882
 4354W        W19485  13.874  13.957  14.847  0.1017  0.3510  0.1689
 4355W        W19486   1.496   7.567  13.910  0.2029 -0.1685 -0.2269
 4356W        W19487  16.155   4.235   2.531 -0.1328 -0.5604 -0.0007
 4357W        W19488  10.211  12.571  12.309 -0.2236  0.0661  0.0243
 4358W        W19489  18.004   5.063   5.218 -0.2289  0.2579 -0.2768
 4359W        W19490   6.085  13.522   1.050 -0.0688  0.1221 -0.0844
 4360W        W19491  11.523   4.759  14.454 -0.3218  0.1342  0.0534
 4361W        W19492   8.750  14.727   0.250  0.2699  0.0546  0.0054
 4362W        W19493   4.643  17.398  13.112  0.0818 -0.3670  0.2529
 4363W        W19494   6.586   1.709  11.934  0.1412 -0.0280  0.0754
 4364W        W19495  11.360   4.278   1.875 -0.1216  0.2395 -0.1945
 4365W        W19496  11.651   1.146  12.089 -0.1408  0.1277  0.0526
 4366W        W19497  15.384   3.503  15.793 -0.1437  0.2816  0.0314
 4367W        W19498   6.979  16.885   0.706  0.1003  0.2594  0.0435
 4368W        W19499  17.253  16.453  14.044  0.0033  0.0756  0.1173
 4369W        W19500   2.480  11.436   2.326 -0.1691  0.0831 -0.3944
 4370W        W19501  16.566   6.741   2.560  0.0068  0.1751  0.2525
 4371W        W19502   5.521  10.120   2.534  0.0578  0.2010  0.2566
 4372W        W19503   1.594   1.645   1.482 -0.3373  0.1654  0.0288
 4373W        W19504  11.523  17.422   1.055  0.5650  0.0746  0.0276
 4374W        W19505  16.736   6.117  13.147 -0.0532  0.0716  0.1766
 4375W        W19506  10.683   3.540   2.761  0.0992 -0.1203 -0.0431
 4376W        W19507   5.806   6.250   0.047 -0.0855 -0.0211  0.0914
 4377W        W19508   7.601   6.650  12.488  0.0643  0.0733  0.2300
 4378W        W19509  10.154   3.121   0.197 -0.0265 -0.0869 -0.2047
 4379W        W19510  13.832  16.260  11.882  0.1695  0.3807  0.0976
 4380W        W19511  10.746  15.977   3.588  0.2728 -0.0165  0.1500
 4381W        W19512  15.338   5.965  13.093 -0.1342 -0.1873  0.3579
 4382W        W19513   2.500  10.985  14.921  0.0151  0.2122 -0.1160
 4383W        W19514   4.340   8.392  15.166  0.1652 -0.1619 -0.4746
 4384W        W19515   0.814   1.603  11.075  0.2032 -0.2144 -0.1632
 4385W        W19516  12.957   8.176  11.400  0.1036  0.1883  0.2553
 4386W        W19517  11.039  15.784   2.464 -0.0089  0.2541 -0.0208
 4387W        W19518   5.556  15.774   0.998  0.0622 -0.0306  0.3239
 4388W        W19519   7.919   9.339  11.328  0.1990 -0.0926 -0.2805
 4389W        W19520   5.923   3.031   4.745 -0.0209  0.0010  0.1021
 4390W        W19521   5.846   5.557   0.878  0.1789 -0.0413 -0.2013
 4391W        W19522  11.195  10.883  13.378  0.0495 -0.0198  0.0923
 4392W        W19523  17.331   8.300   0.509 -0.1242  0.1843  0.4757
 4393W        W19524  12.383  17.334  15.982  0.0195  0.0783  0.2087
 4394W        W19525   6.718   2.109   1.078 -0.0111  0.2065 -0.2142
 4395W        W19526   6.912   9.720   4.853 -0.0032  0.2942 -0.0918
 4396W        W19527   1.809   5.198  13.998  0.1121  0.1386 -0.2816
 4397W        W19528   1.990   1.187   5.614  0.0536  0.0954 -0.1001
 4398W        W19529  12.472   1.030  13.473 -0.0595 -0.0916 -0.1290
 4399W        W19530   2.977  12.550  15.662  0.0156 -0.0590 -0.2011
 4400W        W19531   4.441   4.122   2.064 -0.0620 -0.1287 -0.0159
 4401W        W19532  16.214   1.931   3.546  0.1034 -0.1880 -0.0390
 4402W        W19533   1.767   9.296   3.882 -0.0703 -0.0132  0.1261
 4403W        W19534   3.139   3.963   3.050 -0.4113  0.0053  0.1301
 4404W        W19535   2.639   7.544  15.765  0.0426  0.3142  0.0882
 4405W        W19536  13.756   8.226   0.327 -0.0258  0.5300  0.0017
 4406W        W19537   4.099   6.352   3.063  0.0249 -0.0401 -0.1603
 4407W        W19538   8.940  16.568   4.680 -0.2812 -0.1111 -0.0997
 4408W        W19539  14.889   8.680   2.480 -0.0114 -0.1316  0.1040
 4409W        W19540   0.175  14.919   2.122  0.0739  0.2034  0.0067
 4410W        W19541   0.255   9.316   2.380 -0.0421 -0.1363  0.0254
 4411W        W19542   0.039   7.540  10.452  0.1602  0.3678  0.1281
 4412W        W19543  13.553   2.806   2.097  0.1228 -0.0751  0.2306
 4413W        W19544  15.839   4.527  13.209 -0.0397 -0.1535 -0.0660
 4414W        W19545   1.510  11.035   5.360  0.0593  0.0711 -0.0717
 4415W        W19546   7.765   9.061  15.346  0.0252 -0.2441  0.1807
 4416W        W19547  13.815   7.559   5.876  0.0547 -0.0882  0.1828
 4417W        W19548  15.237  10.128  12.008  0.1690 -0.1012 -0.0083
 4418W        W19549  15.721  15.916  12.038  0.0670 -0.2227  0.1539
 4419W        W19550  17.754   3.798  14.595  0.1252 -0.3209 -0.2528
 4420W        W19551  12.751   3.877   2.014 -0.2496  0.1350  0.0663
 4421W        W19552   2.572  14.086  14.631  0.2330 -0.3260  0.0200
 4422W        W19553   0.524   3.368  16.090 -0.0747  0.0702 -0.0270
 4423W        W19554  17.713   8.134  10.322  0.1346  0.3428 -0.0938
 4424W        W19555   9.196   9.199  11.943  0.0200  0.1471 -0.0252
 4425W        W19556  14.978  14.849  13.916  0.0634 -0.1121  0.3245
 4426W        W19557   5.885  13.793  15.254 -0.1969 -0.0252 -0.0541
 4427W        W19558  14.919   2.521  13.508  0.0292 -0.0551 -0.1078
 4428W        W19559  17.721  12.021   4.464 -0.0764  0.0253  0.0931
 4429W        W19560  18.182  11.373  15.109  0.2566 -0.0660 -0.0137
 4430W        W19561   1.554  11.368   2.828 -0.0440  0.3176 -0.0818
 4431W        W19562  17.766   2.008   1.307 -0.0300 -0.0808  0.3187
 4432W        W19563   2.490   3.206  14.907  0.0678 -0.0483  0.1262
 4433W        W19564  10.925  12.887   1.473 -0.2820 -0.0099  0.0603
 4434W        W19565  11.520   8.616  11.833  0.3264  0.0457  0.0086
 4435W        W19566  10.770  14.077  14.005 -0.1358  0.0889  0.1275
 4436W        W19567  11.499  12.900  11.116  0.0701 -0.0051 -0.0604
 4437W        W19568   2.347   0.478  13.605  0.1261 -0.1390 -0.3222
 4438W        W19569   7.064  16.796   3.876  0.0300  0.0275  0.0122
 4439W        W19570  14.798  15.740  15.152 -0.1150 -0.0086 -0.1323
 4440W        W19571   0.132  11.557  13.245 -0.1180  0.0415  0.0525
 4441W        W19572   2.264  14.345   3.718 -0.1150 -0.0102 -0.0535
 4442W        W19573   5.946   2.193   3.294 -0.0233 -0.2107  0.1216
 4443W        W19574   2.518   5.329  13.964  0.0406  0.4208 -0.1647
 4444W        W19575   4.732   0.608   4.679 -0.1303 -0.0244 -0.2576
 4445W        W19576   3.499   3.833   2.733 -0.0208  0.1671  0.0706
 4446W        W19577  13.660   1.285   2.517 -0.0445 -0.0028 -0.2919
 4447W        W19578   5.771   7.728  11.815  0.0564 -0.0338 -0.2031
 4448W        W19579   2.789  17.855   0.285 -0.2311 -0.1236 -0.0560
 4449W        W19580  10.398  10.547  14.588  0.1861  0.1130  0.3315
 4450W        W19581  10.103  17.319  11.804  0.1387 -0.4364  0.1079
 4451W        W19582  16.655   2.807   5.498  0.0891 -0.0479 -0.0847
 4452W        W19583  11.274   0.598   6.100  0.1849  0.0737  0.1790
 4453W        W19584   5.383   1.722  15.343  0.0824 -0.2833  0.2326
 4454W        W19585  12.917   1.172   1.184 -0.1564 -0.1378 -0.0496
 4455W        W19586  13.858   7.589  11.522  0.0908 -0.4121 -0.1290
 4456W        W19587  13.926   5.483  11.327 -0.1754 -0.0640  0.0137
 4457W        W19588   4.649  13.363  15.614 -0.0604  0.0809 -0.1738
 4458W        W19589  10.845   0.959   6.149  0.0726 -0.1005 -0.3670
 4459W        W19590   4.116   7.592   5.506 -0.1163  0.1090  0.1852
 4460W        W19591   6.909   3.539   0.467 -0.1093 -0.0571 -0.2495
 4461W        W19592  13.126   8.922  14.912  0.0957 -0.0866  0.0928
 4462W        W19593   0.411  13.549   2.953  0.1250 -0.0702 -0.0316
 4463W        W19594  13.465  15.251   2.010  0.0080  0.0746 -0.0600
 4464W        W19595   1.357  18.052  13.728 -0.2507 -0.4924 -0.0254
 4465W        W19596   7.353   9.980   4.738 -0.2819  0.0977  0.0321
 4466W        W19597   4.738   9.237  13.992  0.0765  0.0765 -0.3732
 4467W        W19598   0.910   6.322  12.854 -0.1582  0.0208 -0.2223
 4468W        W19599   8.519  11.616  14.886  0.3005 -0.0308  0.0396
 4469W        W19600  15.877   4.799  13.755  0.0237  0.0278  0.1832
 4470W        W19601   7.565   1.679   0.237  0.5587 -0.0225  0.0929
 4471W        W19602   8.851   0.153   3.434 -0.2569  0.2339  0.0977
 4472W        W19603   2.509  17.884   0.918  0.1892  0.1994  0.1624
 4473W        W19604  17.980  14.344   2.809  0.1873  0.2613  0.0347
 4474W        W19605   7.923   9.822  12.527 -0.2755  0.0827  0.0121
 4475W        W19606  10.691  14.751   3.823  0.0815  0.0508 -0.1206
 4476W        W19607  13.696   6.614   5.792 -0.3208  0.0953  0.0838
 4477W        W19608  14.651   3.857   4.619  0.0482 -0.1523 -0.0787
 4478W        W19609   7.318   7.764   3.179 -0.1630  0.2374 -0.3151
 4479W        W19610   4.410  17.074   0.479 -0.0133 -0.0972 -0.1303
 4480W        W19611  15.613  10.631   3.771  0.1265  0.0573 -0.1067
 4481W        W19612   0.922   0.946   4.842  0.0434 -0.1790 -0.1232
 4482W        W19613   0.890   9.127  14.333 -0.2944 -0.1272  0.1003
 4483W        W19614   2.838   6.990  11.454  0.1995 -0.0607 -0.3446
 4484W        W19615   1.200   9.017   2.502 -0.0552 -0.0052 -0.0694
 4485W        W19616  17.566  17.666  11.970  0.1533 -0.0186 -0.1760
 4486W        W19617   7.971   0.203  11.307  0.1341 -0.2473  0.1903
 4487W        W19618  16.188  16.067   2.710  0.1974  0.0986  0.3174
 4488W        W19619  17.748   2.250  11.196  0.1869 -0.1105 -0.1740
 4489W        W19620  15.408   3.957   2.178 -0.2862 -0.0423 -0.0730
 4490W        W19621  13.748   9.431   4.829 -0.3254 -0.0565  0.0634
 4491W        W19622   9.557   1.340   4.124 -0.0048 -0.3401  0.2199
 4492W        W19623   1.794   0.325  15.655 -0.2633  0.1158 -0.1912
 4493W        W19624   7.023  17.323   0.916  0.0644  0.2613 -0.2153
 4494W        W19625   8.183  10.922   5.255 -0.0686 -0.0881  0.1595
 4495W        W19626  10.452  13.409   0.412  0.1607  0.1360  0.1525
 4496W        W19627   2.193  10.625  11.094 -0.1062 -0.0209 -0.1415
 4497W        W19628  12.161  16.295  13.413 -0.0511 -0.1351  0.3371
 4498W        W19629  15.599  12.228   3.784 -0.3827  0.0731  0.0827
 4499W        W19630  17.914  16.480   4.340  0.1228  0.0572  0.3372
 4500W        W19631  15.534  12.831  12.889  0.1593  0.0506  0.1130
 4501W        W19632   9.777  16.167  15.887  0.0767  0.0217  0.2418
 4502W        W19633  12.623  15.317  11.293 -0.1445 -0.1267 -0.1135
 4503W        W19634  16.340  13.918   5.803 -0.2927  0.0825 -0.0909
 4504W        W19635   9.532  17.584   4.464 -0.0554 -0.0941 -0.5079
 4505W        W19636  11.533   7.712  11.171  0.0845 -0.0452 -0.1831
 4506W        W19637   9.981  15.389  15.437 -0.1899  0.2169  0.2605
 4507W        W19638   0.818   1.664  12.399 -0.0550  0.0192 -0.0939
 4508W        W19639   7.719   8.628  13.658  0.2486 -0.2459  0.0757
 4509W        W19640  11.938   9.294  12.265 -0.0082  0.0856 -0.1460
 4510W        W19641   5.814   5.973  11.974  0.1856 -0.0686 -0.1962
 4511W        W19642  15.112   7.550  14.293  0.1188 -0.1278  0.0725
 4512W        W19643  10.330   5.881  13.782 -0.3058  0.0862 -0.0401
 4513W        W19644   0.210  12.971   5.628 -0.0276  0.1076 -0.2213
 4514W        W19645   6.330  14.142   2.484  0.1052  0.2324  0.1419
 4515W        W19646  15.139   0.687  11.137 -0.0078 -0.1289 -0.4171
 4516W        W19647   4.561   8.510   6.102  0.1475  0.3607 -0.0017
 4517W        W19648   4.364   8.493   0.577  0.1773  0.1349 -0.0552
 4518W        W19649  16.462   2.460   3.488  0.0034 -0.1222 -0.0990
 4519W        W19650  16.332   4.530   5.480 -0.3262  0.1205  0.2137
 4520W        W19651   9.507  14.979   2.966 -0.1340  0.1732  0.0783
 4521W        W19652   4.409  10.520   3.384  0.1550  0.1160  0.0459
 4522W        W19653  13.269  16.518   5.447 -0.2433 -0.0065  0.0868
 4523W        W19654   9.497  12.639  14.162  0.2079 -0.0570  0.0583
 4524W        W19655   7.517  14.033   3.124 -0.3378  0.0576  0.0252
 4525W        W19656   2.909  11.551  12.837  0.0130 -0.1524 -0.2416
 4526W        W19657   4.300   2.455   2.369 -0.0779  0.1606 -0.4241
 4527W        W19658  14.287   1.858   4.229 -0.0948  0.1366 -0.1774
 4528W        W19659   5.038   8.480  14.246 -0.0971 -0.0034  0.0181
 4529W        W19660  16.598  17.510   3.509 -0.0105 -0.2345  0.0485
 4530W        W19661   3.446  15.818   2.021 -0.2944  0.0542  0.0722
 4531W        W19662  11.901  16.499   1.193  0.0023 -0.0034 -0.3293
 4532W        W19663  13.780   9.678   3.023  0.0492 -0.2275 -0.0735
 4533W        W19664  11.604   7.241  15.489 -0.0294 -0.2645 -0.2380
 4534W        W19665   2.890   4.549  15.557 -0.1525 -0.3037  0.2005
 4535W        W19666   7.573   3.058   5.596 -0.0509 -0.1877 -0.0374
 4536W        W19667   4.885  14.488   4.904  0.1249  0.2268  0.3763
 4537W        W19668   9.088  16.019  13.138  0.2849 -0.1428  0.0070
 4538W        W19669  13.237   4.324   0.282 -0.1820 -0.1412  0.0752
 4539W        W19670   0.337  13.331   0.722  0.0138  0.0257  0.1392
 4540W        W19671   8.545   7.880   1.765 -0.3104  0.0296 -0.0925
 4541W        W19672  16.078   2.011  14.839  0.1526  0.0943 -0.0793
 4542W        W19673   1.051   2.113  15.144  0.1290  0.1782  0.3839
 4543W        W19674  15.970   1.789  12.673 -0.2161  0.1288  0.0210
 4544W        W19675   1.409   9.824   6.030  0.0115  0.1192 -0.0435
 4545W        W19676   8.481   1.378   1.474 -0.1507  0.1714 -0.2496
 4546W        W19677   8.179   3.241   4.441  0.3280  0.0640  0.0421
 4547W        W19678  17.658   9.077  14.362 -0.0912 -0.0670  0.3270
 4548W        W19679   6.210  15.928  12.007 -0.2765  0.0103 -0.2369
 4549W        W19680   4.144  13.410  11.128  0.2177  0.5008  0.0143
 4550W        W19681   8.444  10.033   0.952 -0.1784  0.3138 -0.1993
 4551W        W19682   1.528  10.404  13.828  0.0211 -0.3038 -0.5099
 4552W        W19683  17.967  13.621  12.491  0.4807  0.0028 -0.3315
 4553W        W19684  12.786  17.822   3.197  0.0496 -0.2322 -0.1324
 4554W        W19685  12.444   8.506   4.447  0.0967 -0.0444  0.0323
 4555W        W19686   2.474   3.863   1.212  0.0907 -0.2390  0.0823
 4556W        W19687   2.295  17.030   1.492  0.0664 -0.1985  0.1303
 4557W        W19688   2.125  12.751   0.508  0.1534  0.0471 -0.0302
 4558W        W19689  17.248  13.761   3.538 -0.1248  0.1250  0.0854
 4559W        W19690  12.064  17.847   2.707 -0.0088 -0.0803 -0.0851
 4560W        W19691   1.303   3.654   1.960  0.2582  0.3525 -0.0143
 4561W        W19692   0.883  14.123   2.513 -0.1570  0.3353 -0.0400
 4562W        W19693  14.997   4.478   2.572  0.0450 -0.0721  0.4005
 4563W        W19694   0.043   3.097  15.728  0.3164  0.0891 -0.1355
 4564W        W19695  13.223   8.421  14.143  0.1683  0.1338 -0.3891
 4565W        W19696  12.610   7.925   3.346  0.0852  0.1037  0.3394
 4566W        W19697   3.924   6.915   1.853 -0.1208 -0.0975 -0.1440
 4567W        W19698   5.106  14.428   3.833  0.0600 -0.2110  0.1993
 4568W        W19699   7.482   6.497   0.627 -0.0816 -0.0444 -0.1080
 4569W        W19700  10.544   8.162  15.027  0.2745  0.1322  0.2275
 4570W        W19701   6.637   5.526   2.866  0.2854  0.0728  0.2178
 4571W        W19702  13.701  11.502  14.863 -0.2603 -0.0494  0.1022
 4572W        W19703   4.038   9.746   3.507  0.0185  0.0077  0.0983
 4573W        W19704   6.010   9.443   9.704 -0.1451 -0.0103 -0.0707
 4574W        W19705   9.984   5.329   4.216 -0.1696  0.2075  0.4146
 4575W        W19706  16.014   2.971  14.617 -0.3618 -0.0362 -0.2187
 4576W        W19707   4.431  13.982  12.669  0.1681  0.0041 -0.1272
 4577W        W19708  17.663  16.808  13.096  0.0834  0.1629  0.3482
 4578W        W19709  11.092   7.447   4.476  0.1459  0.1195 -0.0880
 4579W        W19710   7.931  15.132  15.643  0.0284  0.1119  0.0441
 4580W        W19711   7.187  10.943  16.118  0.0928 -0.1213 -0.0981
 4581W        W19712  14.926  17.600   5.655  0.3045 -0.1037 -0.1516
 4582W        W19713  10.662  14.119   1.933 -0.1466  0.0850 -0.1769
 4583W        W19714  16.926  10.214  15.264  0.0323  0.0881 -0.1264
 4584W        W19715   3.262  17.253   4.100 -0.0754 -0.3426  0.0729
 4585W        W19716   7.176   1.157   4.408 -0.0632 -0.0916  0.5239
 4586W        W19717  16.219   6.426  15.373 -0.1372  0.3260  0.0169
 4587W        W19718   5.174  17.590  10.708  0.0524  0.2758  0.2280
 4588W        W19719   5.514  18.145  14.992  0.0250  0.1972  0.2774
 4589W        W19720   9.174  10.914   3.052 -0.0992 -0.1055  0.2087
 4590W        W19721   7.774  11.824  11.988 -0.0282 -0.0084 -0.2929
 4591W        W19722   9.079  14.222  11.646 -0.0555  0.2040  0.0952
 4592W        W19723   2.305   9.520   0.511 -0.0522 -0.1495  0.3202
 4593W        W19724  17.369   7.325  15.331  0.2604 -0.0031 -0.1626
 4594W        W19725   3.713   5.469  11.293  0.2462 -0.5841 -0.2555
 4595W        W19726   8.850  12.136   5.200  0.3230 -0.1518  0.3128
 4596W        W19727   3.289  12.456  10.383  0.2928 -0.1158 -0.2342
 4597W        W19728  16.616  18.107   4.271 -0.1047 -0.2601 -0.0816
 4598W        W19729   3.077   0.673   0.345  0.1597  0.0043 -0.0134
 4599W        W19730   8.007  12.167  15.918  0.2385 -0.0246 -0.2774
 4600W        W19731   2.826  13.137   3.206  0.4949 -0.3164  0.2388
 4601W        W19732   7.398   8.802  10.796 -0.0106 -0.1099  0.0653
 4602W        W19733   8.535   3.899   4.006  0.3322  0.0443 -0.1624
 4603W        W19734   3.887  13.261   4.602  0.0710 -0.1491 -0.1889
 4604W        W19735   5.671   7.636   5.013 -0.1327 -0.2840 -0.3045
 4605W        W19736   7.291   3.365  14.823  0.0875  0.3422  0.0049
 4606W        W19737  15.059   5.817   3.499  0.2282  0.2835  0.3114
 4607W        W19738  13.078   5.226   3.167  0.0899 -0.0770  0.1126
 4608W        W19739   1.876   9.828   5.061  0.2490 -0.1497 -0.0125
 4609W        W19740  10.297   7.479   4.572  0.0090 -0.0082 -0.0480
 4610W        W19741   1.555  12.724  15.297  0.2399 -0.0804 -0.0787
 4611W        W19742   8.320   0.492   6.067  0.3243  0.3636  0.3539
 4612W        W19743   4.742   3.893  13.856  0.0140  0.0285  0.0849
 4613W        W19744   5.755   4.988   3.157  0.0638  0.1778 -0.0750
 4614W        W19745  16.433   1.024   5.583  0.1173  0.1635  0.0740
 4615W        W19746   7.774   3.920   5.040 -0.0378 -0.0780  0.1379
 4616W        W19747   4.380   8.924   2.088 -0.1665 -0.0789  0.1342
 4617W        W19748  10.620  12.830  10.400 -0.0609 -0.0011  0.0493
 4618W        W19749   9.186  17.173   1.939  0.1039  0.4628 -0.0198
 4619W        W19750   4.922  14.042  11.897  0.1946 -0.2567  0.0858
 4620W        W19751  13.671   7.977  14.368  0.2666 -0.0776 -0.4287
 4621W        W19752   2.716   7.257  12.935 -0.1181  0.0563 -0.1633
 4622W        W19753   0.417  13.183  13.213 -0.0106 -0.2908  0.0255
 4623W        W19754   1.032   9.804   3.808 -0.0548  0.1916  0.2341
 4624W        W19755  13.947   9.983  13.200  0.1993  0.0790  0.0811
 4625W        W19756   3.676  12.797  13.542  0.0725 -0.0141 -0.1685
 4626W        W19757  16.676   2.256  15.465 -0.0104  0.2617  0.0591
 4627W        W19758   5.137  12.245   2.517 -0.0669 -0.1283 -0.1988
 4628W        W19759  12.316   3.094   3.223  0.0180 -0.1651  0.2680
 4629W        W19760   3.431  13.951  11.743  0.1104  0.2772 -0.1649
 4630W        W19761   7.707  12.385  13.619 -0.1974  0.1642 -0.4166
 4631W        W19762  12.984   0.585   3.005  0.1031  0.1065  0.1033
 4632W        W19763   7.621   6.913  13.733 -0.2006  0.3180  0.2925
 4633W        W19764  15.324  12.788  13.390 -0.2020 -0.1329  0.0252
 4634W        W19765   8.064   7.598   1.743 -0.1201 -0.1583  0.2585
 4635W        W19766   3.369   6.961   3.393 -0.1535 -0.3102  0.1644
 4636W        W19767  14.207   0.394  11.547 -0.1433 -0.1134  0.1426
 4637W        W19768  13.222   8.923   3.449  0.0907 -0.2161 -0.2224
 4638W        W19769   1.418  16.083  13.879  0.1563  0.2179  0.1016
 4639W        W19770  15.601   3.975   3.806 -0.0206  0.1525  0.3138
 4640W        W19771   0.220  14.625  15.492  0.1261  0.1194 -0.0127
 4641W        W19772  14.335   8.532   3.534  0.0472  0.2134  0.1788
 4642W        W19773   5.137  15.337   2.720  0.4442  0.1234  0.2792
 4643W        W19774   3.366   6.485  12.116 -0.1773 -0.1417 -0.1339
 4644W        W19775  10.731  12.886  16.140 -0.0720  0.0091 -0.1748
 4645W        W19776  12.825   9.460  15.518  0.3595  0.1807  0.4365
 4646W        W19777   1.104  15.809  12.996 -0.5328 -0.0224 -0.2830
 4647W        W19778  13.171   3.282  13.388 -0.0423 -0.1655 -0.0529
 4648W        W19779   8.524   4.241  16.169  0.0623 -0.1602  0.1336
 4649W        W19780   1.697  15.807   3.461 -0.1282 -0.2924  0.1178
 4650W        W19781   1.984  13.164   3.100  0.0324  0.1603 -0.0433
 4651W        W19782   1.365   7.335   0.137  0.0089 -0.0859 -0.2477
 4652W        W19783   1.958  13.418   0.648 -0.1871  0.1387  0.1095
 4653W        W19784   3.190  10.097  14.886 -0.3098  0.4561  0.0328
 4654W        W19785   3.608   0.533   3.592 -0.0655  0.1466  0.1114
 4655W        W19786   7.819  12.041   0.277  0.1400 -0.0483 -0.1638
 4656W        W19787  12.981   9.808   4.387  0.4160  0.0807 -0.1721
 4657W        W19788   9.421   2.900  12.466 -0.1732 -0.2054  0.2280
 4658W        W19789   9.253   4.045   3.803 -0.0534  0.2590  0.0627
 4659W        W19790  14.252  15.978  15.087  0.1983  0.1278 -0.1204
 4660W        W19791   5.283  14.475   3.319  0.1165  0.2266  0.2103
 4661W        W19792  16.904  13.063  12.160 -0.0827  0.0386 -0.0871
 4662W        W19793   7.132  15.777  12.967  0.1151  0.2199 -0.0459
 4663W        W19794  11.007  11.746   1.889 -0.1030  0.0710 -0.0271
 4664W        W19795   0.086  14.845   4.427  0.0697 -0.1068  0.2787
 4665W        W19796   1.213   5.459  14.455 -0.0031  0.2113  0.1416
 4666W        W19797  17.148   0.824   0.358 -0.3068  0.0204 -0.2125
 4667W        W19798  14.505   0.868  13.489  0.1943  0.2282 -0.1561
 4668W        W19799  16.859  16.974  11.815  0.1548  0.2119  0.3694
 4669W        W19800  18.025   4.787  12.038  0.2014  0.1329 -0.1256
 4670W        W19801   0.889  14.670   3.225  0.1218 -0.0803 -0.1676
 4671W        W19802   7.058   6.447  12.396 -0.0459  0.1992 -0.3300
 4672W        W19803   9.111   0.739  11.034  0.2491 -0.0529 -0.1794
 4673W        W19804   1.462  18.027   0.244 -0.1569  0.0881  0.4579
 4674W        W19805   5.708   7.279  13.795  0.1307 -0.0288  0.2653
 4675W        W19806  14.128  15.085   5.292  0.0447 -0.1414 -0.0091
 4676W        W19807  17.876  14.049  15.026  0.1610 -0.0213 -0.3108
 4677W        W19808   0.455  14.712   4.767  0.1508  0.1227  0.0576
 4678W        W19809   2.031  15.670  13.134 -0.1409  0.0486 -0.1979
 4679W        W19810   6.656   5.928  13.162  0.1069 -0.2510 -0.2112
 4680W        W19811   9.716   8.777   2.203  0.0388  0.0844 -0.0599
 4681W        W19812  15.301  14.216   3.671  0.1348 -0.1480 -0.2395
 4682W        W19813   9.022  13.762   4.302  0.0372 -0.3238  0.1361
 4683W        W19814   1.453   8.056   3.447 -0.1605  0.0900  0.0618
 4684W        W19815  15.221   2.829  12.270 -0.1780  0.1417 -0.5813
 4685W        W19816  12.673   8.702  15.727 -0.0528 -0.0477  0.0222
 4686W        W19817   7.503   3.592  11.779 -0.1733 -0.0896  0.1323
 4687W        W19818  10.745  15.398  14.269  0.1648 -0.2225 -0.0535
 4688W        W19819  16.911  11.125   5.727 -0.2530 -0.0788 -0.0423
 4689W        W19820   6.485  10.297   4.431 -0.0078 -0.0872 -0.1049
 4690W        W19821   8.897  13.068   5.865 -0.2202 -0.1557 -0.1910
 4691W        W19822   7.910  17.343  16.115  0.0142  0.0865  0.0921
 4692W        W19823   4.417   1.146   5.306 -0.0761  0.0794 -0.1885
 4693W        W19824  14.912   5.323   2.193  0.0243  0.1720 -0.1615
 4694W        W19825   5.814   9.185   3.900 -0.5148 -0.0975  0.1777
 4695W        W19826   0.574   5.655  14.958  0.1195 -0.3085  0.1497
 4696W        W19827   4.726  16.707  14.347  0.0629 -0.1171  0.2984
 4697W        W19828  14.998   7.825   0.235  0.2598  0.1182 -0.0861
 4698W        W19829   2.908   6.981  10.539 -0.2234  0.1296 -0.2878
 4699W        W19830   9.855   2.614  14.036  0.0966  0.0077  0.2344
 4700W        W19831  17.593   0.007  12.187  0.1058  0.0459  0.0652
 4701W        W19832   5.360  17.681  11.555  0.0275  0.0284 -0.0835
 4702W        W19833  12.258  13.279   3.180  0.1295  0.2023 -0.0436
 4703W        W19834   5.809  15.249  14.896 -0.0853  0.0230  0.0043
 4704W        W19835  14.826  13.257  15.663 -0.1719  0.3193  0.3148
 4705W        W19836   9.650  10.607   0.909  0.1700  0.2817  0.0459
 4706W        W19837  10.591  10.400   2.363 -0.2417 -0.2500 -0.1810
 4707W        W19838   7.474   4.171   0.633 -0.3191 -0.0947 -0.1210
 4708W        W19839   0.951  14.731  16.082 -0.0239 -0.0051  0.0387
 4709W        W19840  10.487  17.781   5.472  0.0864  0.0591 -0.1890
 4710W        W19841   2.185   3.924  12.235  0.0441 -0.1954 -0.0018
 4711W        W19842   1.864   4.368  11.388  0.0780 -0.0650  0.1803
 4712W        W19843   5.920   8.297   5.020  0.0524 -0.0261 -0.0187
 4713W        W19844   4.339   9.810   4.339 -0.3520  0.1931  0.0909
 4714W        W19845   0.396  13.112   6.350  0.1594  0.2976  0.0525
 4715W        W19846  12.827  12.630   1.023  0.2953 -0.3345  0.2686
 4716W        W19847   4.875   9.011  13.015  0.0107 -0.1447  0.0216
 4717W        W19848   6.303   3.858  13.136  0.0403 -0.1343 -0.1010
 4718W        W19849   9.010   5.982  12.635 -0.0367  0.1244 -0.4817
 4719W        W19850   8.995   5.447   1.457  0.2465 -0.0044  0.1240
 4720W        W19851   2.404   9.289  15.098  0.3690 -0.0392 -0.0797
 4721W        W19852   1.327   0.534  15.363  0.1813 -0.0283 -0.1041
 4722W        W19853   6.320   3.726   6.227  0.2615  0.1568 -0.0175
 4723W        W19854   3.346   0.037  11.173  0.1081  0.1537 -0.1523
 4724W        W19855  12.010   3.633   0.420 -0.0822  0.2342  0.1221
 4725W        W19856   0.886  13.402  13.357  0.1074 -0.0307 -0.0980
 4726W        W19857   5.865   2.545  12.141 -0.2073 -0.4290 -0.0105
 4727W        W19858   4.086  12.095  15.147  0.0596  0.2489 -0.1190
 4728W        W19859   8.771  11.454  11.218  0.1235 -0.0762  0.3046
 4729W        W19860   3.039  14.349   3.000 -0.3146  0.0740  0.0126
 4730W        W19861  13.765  17.591   1.102 -0.1638 -0.2434  0.4178
 4731W        W19862  15.256  14.602  11.584 -0.3410 -0.2906 -0.5359
 4732W        W19863  12.011   7.953  11.666  0.2162 -0.0974  0.1553
 4733W        W19864  13.931  15.144   2.196  0.1815  0.0439  0.3463
 4734W        W19865  14.041   8.758  15.793  0.1529  0.1317 -0.0471
 4735W        W19866  13.059  14.265  12.484  0.2702 -0.2600 -0.1547
 4736W        W19867  14.467   3.592  15.431  0.0947 -0.1017 -0.1412
 4737W        W19868   4.614   5.472  13.788 -0.1772 -0.0607  0.0522
 4738W        W19869  11.819   2.062  13.022  0.2167 -0.1049 -0.5279
 4739W        W19870  10.963  15.202   3.080 -0.0705  0.3041 -0.1082
 4740W        W19871   7.549   4.085  11.823 -0.3381  0.0651 -0.1609
 4741W        W19872   2.671  16.751  12.061 -0.0594  0.1748  0.0083
 4742W        W19873   8.856   2.403   3.359  0.2365  0.0183 -0.1732
 4743W        W19874  11.496  17.716  12.113 -0.3360  0.0056 -0.2760
 4744W        W19875   4.872   3.337   2.593 -0.0614 -0.2162 -0.0495
 4745W        W19876  17.660   7.214  14.883 -0.0642  0.4930 -0.0059
 4746W        W19877   7.015   6.467  11.046  0.3208  0.0739 -0.2302
 4747W        W19878  12.113  15.965   0.511  0.5135  0.1612  0.2168
 4748W        W19879  16.624   5.474   1.484 -0.0962 -0.0924 -0.0450
 4749W        W19880   1.037  11.812  13.775  0.1740 -0.1611 -0.2508
 4750W        W19881   0.793   7.130   4.279  0.1195 -0.0821 -0.0876
 4751W        W19882   5.017  18.102   5.197  0.1800  0.1764  0.3496
 4752W        W19883  14.124   4.976   0.895  0.0097  0.1919  0.0307
 4753W        W19884   4.034  13.630   2.542  0.0044 -0.3347  0.0990
 4754W        W19885   4.311  15.754  12.226 -0.3427 -0.1060 -0.1312
 4755W        W19886  12.513   0.576   2.700 -0.3832 -0.0367 -0.1059
 4756W        W19887   4.999  10.049   4.549  0.3122 -0.1553  0.1889
 4757W        W19888  14.678   2.117  15.461 -0.0971  0.0002  0.0394
 4758W        W19889  10.499   2.993  11.170  0.1096  0.0631  0.3059
 4759W        W19890  17.474   9.777  14.734 -0.0145  0.4171  0.0487
 4760W        W19891   6.982   3.240   6.344  0.0847  0.0347  0.4051
 4761W        W19892  14.334   4.422  12.279 -0.0176 -0.0163 -0.1064
 4762W        W19893  10.116  11.421   4.112  0.1681  0.0572  0.1440
 4763W        W19894   1.585   3.215  11.096 -0.0014  0.2029 -0.0932
 4764W        W19895  10.090   8.332   1.720 -0.0276  0.0214 -0.0586
 4765W        W19896  13.543  10.227   0.223 -0.0741 -0.1813  0.0724
 4766W        W19897  16.872   7.198  11.684  0.3896  0.2262  0.1117
 4767W        W19898  17.932   8.370   1.692  0.1130  0.1386 -0.0035
 4768W        W19899   4.563   7.341  12.568  0.0346 -0.1632  0.1779
 4769W        W19900   7.505   7.121   4.381 -0.1589 -0.0221 -0.1009
 4770W        W19901   7.139  16.157   4.642  0.1574 -0.1052 -0.0099
 4771W        W19902  10.467   1.045   0.523  0.2654 -0.0741 -0.1134
 4772W        W19903  14.700   6.399   2.966 -0.2263 -0.2468 -0.0437
 4773W        W19904  14.991  14.069   4.133 -0.2063  0.1376  0.0275
 4774W        W19905   6.389   0.225   1.488  0.0460 -0.0624 -0.2032
 4775W        W19906   1.579  12.412  12.862  0.0954  0.0187  0.1454
 4776W        W19907   4.070   8.033  13.654 -0.2328 -0.0563 -0.1053
 4777W        W19908   6.742  17.019  16.069  0.1253 -0.1718 -0.2270
 4778W        W19909   7.072  11.074   0.490 -0.1650  0.2863 -0.2467
 4779W        W19910   4.645   9.687  15.629 -0.0087 -0.1256 -0.2534
 4780W        W19911   2.896   5.369   0.010  0.1593  0.2139  0.0169
 4781W        W19912   4.804  10.395  16.165 -0.2706 -0.0438 -0.2268
 4782W        W19913   3.871   8.309  13.304  0.1244  0.0004 -0.0842
 4783W        W19914   2.091  12.104  11.346  0.0707 -0.1442  0.1110
 4784W        W19915  13.225  16.588   5.935  0.0549 -0.2048  0.2591
 4785W        W19916  12.877   2.204   0.666  0.3059  0.1294 -0.3242
 4786W        W19917  18.172  16.727  14.892 -0.2341 -0.0330 -0.0423
 4787W        W19918  17.876   0.263   0.345  0.1579  0.0288  0.0754
 4788W        W19919  15.917   9.845  10.229  0.0955 -0.0927  0.0054
 4789W        W19920   0.678   2.651   3.144  0.0643 -0.0737 -0.3481
 4790W        W19921   3.604   8.323   1.298  0.1367 -0.0089 -0.0690
 4791W        W19922   5.328   9.185  15.551  0.1040  0.0957  0.0281
 4792W        W19923   3.578   5.861   4.100 -0.1308  0.0661 -0.2041
 4793W        W19924  17.283   7.971   0.906  0.1206  0.0325 -0.0262
 4794W        W19925   1.406   2.878  12.774  0.3363  0.1985  0.3071
 4795W        W19926   0.589  12.488  15.934 -0.3105  0.3549  0.0613
 4796W        W19927   5.689   3.427  12.427  0.0152  0.1381 -0.1327
 4797W        W19928   5.034   5.977   0.387 -0.0818  0.0877 -0.0815
 4798W        W19929  15.936   3.326   4.237 -0.0294  0.0336  0.0640
 4799W        W19930  10.762  10.929  15.242 -0.2602  0.3108 -0.2255
 4800W        W19931   8.421  17.650  12.355 -0.0248  0.0210  0.1249
 4801W        W19932   1.300  13.861   2.744 -0.0602 -0.2790 -0.2528
 4802W        W19933  11.176   5.968   0.844 -0.0297  0.0600  0.1471
 4803W        W19934  10.326  16.081   4.846 -0.4688 -0.1656  0.0635
 4804W        W19935   5.485  14.463   9.879  0.0998  0.0156  0.2107
 4805W        W19936   8.266   9.733   3.728 -0.0925  0.0217 -0.1283
 4806W        W19937   0.254  15.177   0.687 -0.2333 -0.1812 -0.0465
 4807W        W19938  10.774   6.101  12.158 -0.0420  0.2368 -0.0290
 4808W        W19939  16.394   7.883  11.168  0.0366 -0.0756 -0.2296
 4809W        W19940   2.403  15.744  11.348 -0.0776  0.1673  0.2468
 4810W        W19941   3.522   1.809   1.423  0.1994  0.0330  0.0209
 4811W        W19942  13.703  17.214  15.977 -0.1860  0.1999 -0.5065
 4812W        W19943  17.437   8.643  11.492  0.0618 -0.0203 -0.2962
 4813W        W19944  13.358  13.914  12.254 -0.1118  0.1406  0.2008
 4814W        W19945  13.851   0.770  10.815  0.1112  0.1956 -0.0134
 4815W        W19946  15.189   5.099  11.676 -0.2731 -0.0242 -0.0185
 4816W        W19947   4.944  14.714   0.438 -0.2654 -0.0498  0.1596
 4817W        W19948  17.617   7.874   1.584 -0.1413 -0.1323  0.3153
 4818W        W19949   5.817  10.575   1.796 -0.0637 -0.1152  0.0169
 4819W        W19950  14.622   8.154   3.710  0.2183  0.1861  0.0390
 4820W        W19951  17.469   6.582   0.616 -0.0391  0.1173 -0.1457
 4821W        W19952  16.316   9.107   2.621  0.2164  0.0196  0.2937
 4822W        W19953  16.468   2.160  13.987 -0.1790  0.1162  0.1246
 4823W        W19954   3.452   1.411  12.797 -0.0490  0.2960 -0.0812
 4824W        W19955   0.285  14.533  10.877  0.1726  0.4288 -0.1266
 4825W        W19956  13.586   0.377   0.049 -0.0803 -0.2188 -0.0474
 4826W        W19957   9.140  11.118  15.110  0.0104  0.1032  0.0254
 4827W        W19958   4.125   2.221  11.048  0.0835 -0.0820  0.1470
 4828W        W19959   4.461   3.321   5.884 -0.0452  0.0625  0.1001
 4829W        W19960  17.827   8.177  14.010  0.1371  0.0263 -0.0957
 4830W        W19961  13.866   7.948  15.339  0.0998 -0.1493 -0.0600
 4831W        W19962   0.940  17.147  16.085  0.1668  0.0038  0.0298
 4832W        W19963  16.506  10.212   4.089  0.3913  0.0740 -0.0488
 4833W        W19964  11.671   3.345   4.941  0.2215 -0.0449 -0.1268
 4834W        W19965  16.103   0.185   0.106  0.1558 -0.1315  0.3216
 4835W        W19966   7.497  15.116   0.218  0.1159 -0.2290 -0.0343
 4836W        W19967  11.965  10.707   1.772  0.3438 -0.0300  0.1687
 4837W        W19968   0.879  13.514   4.252 -0.0911 -0.0123 -0.1016
 4838W        W19969   2.996   8.301   0.075 -0.2301  0.0286 -0.0472
 4839W        W19970  17.047   3.614  12.806  0.1024 -0.1239  0.1335
 4840W        W19971   8.715  17.754  15.020  0.0045  0.2000  0.0350
 4841W        W19972  18.017   7.976  11.636  0.0560  0.2311 -0.1295
 4842W        W19973   0.155   3.665   5.799  0.1705 -0.0967 -0.1002
 4843W        W19974   5.998  12.845   2.260  0.4069 -0.0273 -0.1354
 4844W        W19975   3.774  11.273   0.202 -0.0720  0.2008 -0.0195
 4845W        W19976  10.623   7.059   2.942 -0.0383 -0.0761  0.2116
 4846W        W19977   0.710  11.114   4.603 -0.0563 -0.1545 -0.1836
 4847W        W19978   5.464  13.378   5.068 -0.2665  0.2690  0.1428
 4848W        W19979   5.735   1.893  11.000  0.0854 -0.0919 -0.0238
 4849W        W19980   1.783   2.408  15.191 -0.0111 -0.0073 -0.2581
 4850W        W19981   1.726  17.172   0.099 -0.2008  0.2114 -0.0361
 4851W        W19982  12.398  14.248   1.730 -0.1430 -0.0052  0.1457
 4852W        W19983   0.257  13.358  11.773  0.4752  0.1695 -0.0117
 4853W        W19984  10.118  13.723   0.905 -0.1450 -0.3003 -0.0307
 4854W        W19985   5.223  16.584   0.916 -0.0604 -0.4703  0.0887
 4855W        W19986  15.559  16.767  11.248 -0.0757  0.1037 -0.2596
 4856W        W19987   2.043   3.142   4.262  0.1079  0.0602 -0.0030
 4857W        W19988  13.606  15.568  15.719 -0.2955  0.0941  0.2105
 4858W        W19989  16.238   9.412  11.567  0.0390 -0.3702  0.0064
 4859W        W19990   4.541   3.824   3.926 -0.1789 -0.0401  0.1456
 4860W        W19991  13.442   7.481   5.438 -0.1543  0.1215 -0.0703
 4861W        W19992  16.690  10.422  13.090  0.0068  0.3382  0.1845
 4862W        W19993  14.618  17.735   3.900  0.0927  0.1406 -0.0025
 4863W        W19994  17.953   4.222   0.501 -0.2876  0.2383 -0.0832
 4864W        W19995   4.359   1.442   2.448  0.0616 -0.2158  0.3048
 4865W        W19996  15.529  11.744  15.263 -0.0792 -0.1240  0.5975
 4866W        W19997  11.292   5.463  11.551 -0.2384 -0.1021  0.0594
 4867W        W19998  18.149   3.784  12.073 -0.2091 -0.0679 -0.4148
 4868W        W19999  13.467   4.689  12.535  0.0224 -0.0945  0.0718
 4869W        W20000   8.062  11.388  12.195  0.2250  0.3432  0.2046
 4870W        W20001   1.428   9.041  14.755 -0.0597  0.2412  0.0332
 4871W        W20002   0.370   8.799   5.553 -0.0474 -0.1124 -0.0857
 4872W        W20003  11.481  13.147   1.441  0.1454 -0.2181  0.2325
 4873W        W20004  15.244  15.764   6.516 -0.0293  0.0370 -0.0829
 4874W        W20005  15.314  17.007  16.196 -0.1168 -0.2180  0.3590
 4875W        W20006  17.411  15.750  15.352  0.3139  0.0783 -0.1891
 4876W        W20007   5.679   7.462  15.463  0.5075  0.1170  0.2924
 4877W        W20008   5.686   5.459  12.195  0.1041  0.0101 -0.1231
 4878W        W20009  16.632  12.358  12.852 -0.2145  0.2481 -0.2133
 4879W        W20010  15.581  13.415   3.108  0.1129  0.4681  0.1111
 4880W        W20011   3.674  11.696   3.742  0.2948  0.2186  0.2523
 4881W        W20012   0.651  12.689   4.678 -0.0584 -0.0015  0.3028
 4882W        W20013   1.692  15.761   5.972  0.0664 -0.3723 -0.0357
 4883W        W20014  13.634   1.889  12.450 -0.1625 -0.0852 -0.0264
 4884W        W20015   3.194   9.712   2.752  0.0921 -0.1954  0.3194
 4885W        W20016   1.322  15.216   0.897  0.2942 -0.0847  0.0256
 4886W        W20017   4.331  16.969  15.932  0.0623  0.0296 -0.1629
 4887W        W20018   4.739   0.726  11.169 -0.0186 -0.2834  0.0349
 4888W        W20019   9.192  14.702   0.893 -0.1763  0.2465  0.0622
 4889W        W20020  12.318  10.154   2.699 -0.2634  0.0296  0.1576
 4890W        W20021  17.481   0.863  16.019  0.2592 -0.0263  0.1561
 4891W        W20022  10.610  10.991  13.448  0.0375  0.0890 -0.0244
 4892W        W20023   9.760  11.903   0.013 -0.1222  0.3260 -0.1376
 4893W        W20024  15.957  15.004   5.947  0.1585  0.1198  0.1193
 4894W        W20025  10.640   1.840   2.329  0.0196  0.0992 -0.0966
 4895W        W20026   3.454   0.612   5.471  0.1621 -0.0072 -0.1047
 4896W        W20027   0.294   2.236  15.254 -0.0102 -0.1785  0.3636
 4897W        W20028   2.049  12.847   2.730 -0.0193 -0.1136  0.0301
 4898W        W20029   9.977  14.638   2.396  0.1133  0.1048  0.1981
 4899W        W20030  14.264   0.823  13.917  0.1752  0.1078  0.1141
 4900W        W20031   2.726   3.516  16.028  0.1131 -0.2256  0.0747
 4901W        W20032  13.134  12.293   3.861 -0.0692  0.1034 -0.2020
 4902W        W20033  15.623   5.911   3.220 -0.0199 -0.0877 -0.0336
 4903W        W20034  17.830  14.309  13.275  0.3432 -0.1830 -0.1959
 4904W        W20035  10.336  14.139   4.460 -0.0402 -0.3025 -0.0067
 4905W        W20036  11.483   6.644  11.237  0.1026 -0.0282 -0.1683
 4906W        W20037   2.509  17.746   1.583 -0.1397 -0.1291 -0.0521
 4907W        W20038   3.858   2.968   0.700  0.1195 -0.1424  0.0467
 4908W        W20039   1.240  11.937   5.445 -0.2962 -0.1752 -0.2000
 4909W        W20040  11.365   1.035   3.729  0.0566 -0.1086  0.1720
 4910W        W20041   2.223  18.101   6.023  0.0918  0.0138 -0.0352
 4911W        W20042   2.177   3.881   4.569 -0.1917  0.4029 -0.0339
 4912W        W20043   6.280  12.285   4.204 -0.0057  0.0209  0.2506
 4913W        W20044  11.149   5.100   3.794 -0.0982 -0.0455  0.2016
 4914W        W20045   8.805  11.232  11.698  0.0483  0.1271 -0.0295
 4915W        W20046   8.910   6.319  11.432 -0.0175  0.0707 -0.3338
 4916W        W20047   8.710  12.755   0.853  0.3489 -0.2682  0.0871
 4917W        W20048   1.914  16.811  13.801 -0.4194  0.0142 -0.0163
 4918W        W20049   3.912   6.834   1.337 -0.0215 -0.0974 -0.2308
 4919W        W20050  11.950   9.275  13.310 -0.2956  0.0710 -0.0521
 4920W        W20051  10.712   8.053  15.913 -0.0875  0.1522  0.0175
 4921W        W20052   5.719   6.859  13.027 -0.2233  0.1938  0.4245
 4922W        W20053   3.130  14.801   1.656 -0.0438  0.3111  0.1414
 4923W        W20054   3.544   2.731   1.351  0.4938 -0.2444 -0.0881
 4924W        W20055  10.058  12.602   1.532 -0.0767 -0.0008  0.1779
 4925W        W20056  12.570   9.715  14.827 -0.2811  0.0631 -0.1290
 4926W        W20057   5.691  15.862  13.540 -0.0151  0.2172  0.0395
 4927W        W20058   5.034  16.025   5.453 -0.1700  0.1202 -0.0778
 4928W        W20059  10.735  11.296  14.204  0.2939  0.1452 -0.0897
 4929W        W20060  12.197  17.496   4.099 -0.0073  0.0337  0.0579
 4930W        W20061  11.165   3.057  12.883 -0.2965 -0.3408 -0.0987
 4931W        W20062   3.356   3.002   0.457  0.0442 -0.1122 -0.1044
 4932W        W20063   2.533   7.084   0.747 -0.1655 -0.4687  0.2377
 4933W        W20064  14.221  16.773   1.938  0.1044  0.2121 -0.1513
 4934W        W20065   8.927   1.201  12.692 -0.0597 -0.1056 -0.1301
 4935W        W20066  12.403   0.533  14.937  0.1134 -0.2072  0.0511
 4936W        W20067  16.340   7.636   4.956 -0.0875  0.0020 -0.0347
 4937W        W20068   9.578  13.916   2.838  0.1664 -0.1738  0.1238
 4938W        W20069  11.779   8.238   5.098 -0.1941 -0.0513 -0.0190
 4939W        W20070  11.430   8.252   4.605 -0.2427 -0.0608  0.1518
 4940W        W20071   9.852  11.268  13.117 -0.2428 -0.0000 -0.2776
 4941W        W20072   2.825  12.494   3.977  0.1939  0.2017  0.0820
 4942W        W20073  16.661   3.579   2.714 -0.2084 -0.1806 -0.2358
 4943W        W20074   7.766   0.784   1.889 -0.4421 -0.0258  0.2668
 4944W        W20075  16.864   7.200  13.411  0.1096  0.1969 -0.0752
 4945W        W20076   3.067   7.217  10.971  0.4373 -0.0577 -0.0593
 4946W        W20077   2.610  15.053  11.942  0.0727  0.1792 -0.2696
 4947W        W20078  16.625   8.075   4.679 -0.0527  0.0715  0.2503
 4948W        W20079   6.694  10.604   2.079  0.1943  0.4268  0.3104
 4949W        W20080   2.165   1.518  10.978  0.0475 -0.1480  0.0688
 4950W        W20081  10.370  11.206  10.847  0.4201 -0.1191  0.1161
 4951W        W20082   0.329  16.056  13.109  0.3992  0.1749  0.0206
 4952W        W20083  11.194  13.051  14.003 -0.1130  0.2767  0.0643
 4953W        W20084  14.440   3.860  15.816  0.3785  0.0040 -0.0972
 4954W        W20085   1.635   1.415   3.174 -0.2297 -0.0782 -0.1101
 4955W        W20086   9.513   7.140  13.845  0.1191  0.0088  0.1885
 4956W        W20087  16.634  10.855  10.429 -0.3287 -0.1098 -0.0757
 4957W        W20088  10.363   6.733   2.585 -0.0212  0.1686  0.0408
 4958W        W20089  17.531  17.347  13.718 -0.0528 -0.2411 -0.2653
 4959W        W20090   3.582  13.692   2.188  0.1015  0.0653  0.2447
 4960W        W20091   5.306   0.471   3.828 -0.2597  0.2061 -0.0067
 4961W        W20092  14.705   8.706   3.834  0.0438  0.4635 -0.0762
 4962W        W20093  10.263  16.142   0.216 -0.1577 -0.1297 -0.1911
 4963W        W20094   5.550   1.078  11.595 -0.3279 -0.0084  0.3383
 4964W        W20095   2.870  10.109   4.106 -0.2116 -0.0127  0.1181
 4965W        W20096  12.406   9.547  13.879 -0.0446 -0.1074 -0.0914
 4966W        W20097   8.676   3.005  14.831 -0.0805  0.5155  0.1249
 4967W        W20098  16.709   8.958  13.438  0.2080  0.1874  0.1863
 4968W        W20099  17.815   8.908  11.281  0.0405  0.0450  0.0781
 4969W        W20100   6.525   8.649   0.165  0.1932  0.1107  0.1647
 4970W        W20101   3.914   7.686   1.796 -0.1128 -0.2274 -0.2457
 4971W        W20102   7.278  15.047  13.694 -0.0624 -0.0656  0.1050
 4972W        W20103  17.696   4.126  12.311  0.0139 -0.0805  0.2360
 4973W        W20104   1.358   2.480   4.682 -0.4541 -0.2265 -0.0129
 4974W        W20105   9.530  17.096   4.507 -0.2505  0.2302 -0.2586
 4975W        W20106  12.390  11.449  12.095 -0.0580  0.0438  0.0542
 4976W        W20107  17.840   6.351   4.896 -0.0358  0.0244  0.2204
 4977W        W20108  14.271  14.763   4.921 -0.0998 -0.2192 -0.1019
 4978W        W20109  16.023   1.682   1.874  0.0723 -0.0965 -0.0159
 4979W        W20110  10.334  13.952  11.420 -0.0918 -0.0584  0.0293
 4980W        W20111  14.291  17.657  12.039 -0.1076  0.1709  0.0133
 4981W        W20112   6.902   9.651   2.374  0.0188 -0.0589 -0.0311
 4982W        W20113  15.751   0.336   3.268  0.0246 -0.3042 -0.0316
 4983W        W20114   2.713  11.313   0.443  0.1133  0.0139 -0.4236
 4984W        W20115   2.805   5.733  13.718  0.2586  0.3471 -0.1735
 4985W        W20116  11.473   8.463  14.527  0.0036  0.1537 -0.1033
 4986W        W20117   3.150  10.252   3.721  0.2619 -0.0286  0.1155
 4987W        W20118  12.986   3.780  14.761 -0.1392 -0.1872  0.0923
 4988W        W20119   0.649   3.171  13.263  0.2994 -0.0358 -0.0105
 4989W        W20120  12.335  16.860  15.599 -0.1794  0.1089  0.1386
 4990W        W20121  10.454   5.953   1.878 -0.0224  0.0796  0.1670
 4991W        W20122  17.605  14.928   6.177 -0.0790  0.0537 -0.1613
 4992W        W20123  17.392   4.094   3.716 -0.1633 -0.1032  0.0007
 4993W        W20124   5.579   0.775   5.507  0.2162  0.3322  0.1116
 4994W        W20125  10.140  13.887  10.207 -0.1797 -0.0549 -0.1289
 4995W        W20126   7.476  17.538   2.140  0.3408  0.0619 -0.1592
 4996W        W20127  17.532   1.847   4.053 -0.0803  0.3394  0.0355
 4997W        W20128  15.550   5.381  12.529 -0.0026 -0.0789  0.2998
 4998W        W20129  17.216   9.523   4.344  0.0904 -0.0213  0.2669
 4999W        W20130   9.460   2.385   0.094  0.3159  0.0963  0.1165
 5000W        W20131   4.166  13.488   4.202 -0.2549  0.1116  0.2658
 5001W        W20132   6.712   3.076   0.397 -0.2108  0.2770 -0.0407
 5002W        W20133  14.402  15.507  15.011 -0.2485  0.1491  0.3474
 5003W        W20134  17.495   5.757  16.044  0.1532 -0.1796  0.0073
 5004W        W20135   3.192   6.136   4.191  0.1992  0.0572 -0.1284
 5005W        W20136  14.600  12.330   5.659 -0.3301  0.2262 -0.0573
 5006W        W20137   0.835  11.215  13.193  0.0022 -0.0583 -0.1764
 5007W        W20138   2.128  14.764   2.765 -0.1602  0.1446  0.0930
 5008W        W20139   5.779  14.292   1.189 -0.0735 -0.3592 -0.1096
 5009W        W20140   0.313  13.094   3.504  0.0798 -0.2421 -0.1279
 5010W        W20141   4.631   7.819   0.596 -0.0211 -0.3266 -0.0157
 5011W        W20142   6.077  18.110   5.379 -0.0198  0.1777 -0.0723
 5012W        W20143   4.028  17.397  15.321  0.4231  0.3128 -0.0351
 5013W        W20144   6.913   2.558  12.317 -0.3317 -0.0261 -0.1847
 5014W        W20145   7.635   4.991   5.833  0.1110  0.2559 -0.1841
 5015W        W20146  12.960   5.217   4.151 -0.1056  0.1549 -0.0145
 5016W        W20147   1.855  12.739  14.492 -0.0144 -0.0210 -0.0747
 5017W        W20148   8.230  11.825  11.213 -0.0066  0.0145  0.2847
 5018W        W20149   3.334   8.666   4.336  0.1962  0.3909 -0.2213
 5019W        W20150   1.565  10.086   5.581 -0.1610  0.1295  0.0025
 5020W        W20151   7.065   2.077  14.746 -0.2497 -0.0963 -0.1938
 5021W        W20152   6.852   4.342  15.238  0.0623  0.0193 -0.0397
 5022W        W20153   8.452   9.840   4.254  0.1844 -0.1100 -0.1453
 5023W        W20154   6.601  12.850   3.534  0.1488  0.0202  0.0411
 5024W        W20155   8.385  10.228  11.215  0.1126 -0.3027 -0.0215
 5025W        W20156   0.017   0.370   1.261 -0.0919  0.0447  0.2138
 5026W        W20157   2.554  11.584   3.745  0.0941  0.0866 -0.2118
 5027W        W20158   7.794   1.118   5.488  0.0738 -0.3271  0.1525
 5028W        W20159   0.123   3.421   1.194 -0.2430  0.3984 -0.0767
 5029W        W20160   0.452   7.926  12.376 -0.0540 -0.0143  0.2058
 5030W        W20161  12.652   9.555   5.426  0.1096  0.1498 -0.0654
 5031W        W20162   4.309  14.842  14.866 -0.0913 -0.1797 -0.0766
 5032W        W20163   2.860   5.870   1.677 -0.1417 -0.0091 -0.0138
 5033W        W20164   5.676  12.611   4.585 -0.1185  0.0606  0.1580
 5034W        W20165   5.028  15.232   2.195  0.3864  0.0709 -0.2069
 5035W        W20166  15.301   6.171   3.896  0.0556  0.1386 -0.0645
 5036W        W20167  10.344   5.277  14.789 -0.0210 -0.1280  0.1167
 5037W        W20168  14.358  17.259  12.330  0.0722  0.1604 -0.0931
 5038W        W20169   3.676   7.317   3.148  0.0559 -0.0370 -0.0224
 5039W        W20170   8.818  10.821   2.685 -0.3205  0.2639  0.0098
 5040W        W20171   9.720  10.210   3.590 -0.2112  0.0536 -0.1334
 5041W        W20172   8.944  13.330   2.155  0.0808  0.1763 -0.1003
 5042W        W20173  15.388   9.021  12.501  0.0467  0.1083  0.1769
 5043W        W20174   1.210  17.225   4.220 -0.3218  0.2818 -0.1869
 5044W        W20175  13.339  12.086  12.947 -0.0003 -0.1567 -0.0739
 5045W        W20176   0.366  11.602   3.290 -0.2831 -0.2713  0.0292
 5046W        W20177  17.403   7.239  12.497 -0.2379 -0.1219  0.1676
 5047W        W20178  11.322   8.860  11.431 -0.1693 -0.2354 -0.1856
 5048W        W20179  11.989   5.836  12.826  0.3642 -0.4306  0.1837
 5049W        W20180   4.650  10.413   4.689 -0.0925 -0.2423 -0.1251
 5050W        W20181   2.487   0.359   4.392 -0.1408 -0.2644 -0.1170
 5051W        W20182  12.263   9.505   1.994  0.0355  0.0665 -0.2543
 5052W        W20183  13.084   5.610  11.636 -0.0299 -0.0972 -0.2226
 5053W        W20184  13.942   4.024  14.694  0.0047  0.2906 -0.1104
 5054W        W20185   4.556  15.211   1.906  0.0320 -0.3928  0.0903
 5055W        W20186   9.945   6.164  11.304  0.0424 -0.1899  0.1350
 5056W        W20187   1.009   6.188  11.161  0.3181  0.0124 -0.1413
 5057W        W20188  13.652  12.571   4.174 -0.0399  0.0755  0.1853
 5058W        W20189   6.286   3.027   5.660  0.1158  0.0355  0.0941
 5059W        W20190  13.756  15.276  13.422  0.3386  0.0754 -0.0208
 5060W        W20191  15.544   9.693  13.300 -0.0854  0.2255 -0.0337
 5061W        W20192   0.247   5.109   6.175  0.0406  0.1869 -0.1825
 5062W        W20193  17.951   1.581  14.833 -0.0008  0.2622  0.1350
 5063W        W20194   8.285  17.326   1.298 -0.2039  0.3220  0.0621
 5064W        W20195  12.816   3.321   5.400 -0.2293  0.2133  0.0345
 5065W        W20196   0.068   1.611  12.330  0.3800  0.3138  0.0107
 5066W        W20197   4.470   8.283   4.208  0.1336  0.0319  0.0421
 5067W        W20198   1.037   5.795   0.761  0.1627  0.0498 -0.2750
 5068W        W20199  13.177  12.040   4.318  0.1624 -0.1104 -0.1572
 5069W        W20200  17.104  17.233  13.548  0.0625  0.2807  0.1962
 5070W        W20201   4.488  12.932  15.749  0.1760 -0.0701 -0.5527
 5071W        W20202   5.177  13.024  13.867 -0.2643  0.0023 -0.0764
 5072W        W20203   0.908   4.470   4.300 -0.0712  0.0973 -0.2687
 5073W        W20204  15.757   8.036   3.884 -0.0246 -0.0228 -0.1338
 5074W        W20205   9.025   4.707  13.199 -0.1793 -0.1033 -0.2641
 5075W        W20206   6.050  12.337  11.429  0.2783 -0.0134 -0.0429
 5076W        W20207   5.015   2.873   4.648 -0.1923 -0.1975 -0.0184
 5077W        W20208  12.005   0.220   2.634 -0.0381  0.0392 -0.1133
 5078W        W20209   2.239   1.003   0.251 -0.2285  0.1650  0.1575
 5079W        W20210  16.802  12.585   1.313  0.0671  0.5159  0.0780
 5080W        W20211   6.145   7.110   3.297 -0.2063  0.2740 -0.1060
 5081W        W20212   0.271  14.287  14.722 -0.0903 -0.1198  0.0171
 5082W        W20213   7.150   1.438  12.973 -0.0715 -0.0657 -0.3568
 5083W        W20214   0.958   7.062   2.306 -0.0340  0.1283  0.0412
 5084W        W20215   9.093  13.886   1.218 -0.2954 -0.2741 -0.0123
 5085W        W20216   2.071   7.230  12.763 -0.4604 -0.2135 -0.3761
 5086W        W20217   6.958   7.830   1.427 -0.0169  0.1049 -0.2912
 5087W        W20218   5.431   4.589   1.227  0.1391  0.0363  0.1413
 5088W        W20219  13.996  17.572  11.117 -0.2817 -0.2175 -0.0327
 5089W        W20220   1.805   0.354  13.431  0.1964 -0.0117  0.0718
 5090W        W20221   5.004  13.335  16.154  0.0743  0.5250  0.2596
 5091W        W20222   3.298  10.814   0.838 -0.0729  0.1245  0.0013
 5092W        W20223  11.045   0.557  13.376  0.2282 -0.0504  0.3520
 5093W        W20224  11.494   2.222  11.644 -0.0457 -0.2185 -0.0688
 5094W        W20225   8.894  10.999  12.138  0.1269 -0.1811  0.0579
 5095W        W20226   4.225  12.118  15.790  0.2308 -0.3640  0.0341
 5096W        W20227   6.277  15.385  12.867  0.0457 -0.0310 -0.1265
 5097W        W20228  16.707  17.273  11.396  0.4395 -0.1170 -0.1368
 5098W        W20229  13.967   2.210  10.656 -0.0610  0.2005 -0.1769
 5099W        W20230  13.940   0.812   2.464 -0.1990  0.4651 -0.0893
 5100W        W20231  16.012   8.472   0.658 -0.2780 -0.1254 -0.0519
 5101W        W20232   0.372   0.786  14.915 -0.0206  0.0101  0.2349
 5102W        W20233   9.074  13.784   9.978 -0.2394 -0.1051  0.0769
 5103W        W20234   7.867  10.579   1.494 -0.1512 -0.1650 -0.0791
 5104W        W20235  15.978  12.193  13.891  0.0699 -0.1959 -0.2627
 5105W        W20236  16.430   3.952   2.192  0.0472 -0.1146  0.0015
 5106W        W20237  15.548  12.774   1.814 -0.2911 -0.1022 -0.1982
 5107W        W20238   8.268  14.835  15.344 -0.2053  0.0806 -0.0219
 5108W        W20239   3.137  14.492  13.787 -0.0982  0.0065 -0.1990
 5109W        W20240  16.189  14.289   1.897 -0.1850 -0.3650 -0.0539
 5110W        W20241   9.284   9.726   0.761 -0.0795 -0.1513  0.2444
 5111W        W20242   8.660  14.998   2.953 -0.0875 -0.2392  0.1148
 5112W        W20243  16.734  13.941  13.724 -0.0638 -0.2716  0.1019
 5113W        W20244  11.487   8.160  15.374  0.0037  0.2026 -0.0404
 5114W        W20245   5.088   7.002   2.102 -0.3395 -0.0017  0.0447
 5115W        W20246  15.830  14.894  12.188 -0.1689  0.2971  0.2283
 5116W        W20247  14.009  13.852  14.390 -0.3095  0.0387  0.2377
 5117W        W20248   2.804   0.795   2.511 -0.2456 -0.0918 -0.0702
 5118W        W20249   0.626   3.918  11.600 -0.0583 -0.4318  0.2767
 5119W        W20250  12.320   4.409   0.721 -0.1074  0.2654  0.1454
 5120W        W20251  10.157   3.542   5.968  0.0935  0.1344  0.3547
 5121W        W20252   1.649   1.370   5.202 -0.0878  0.1510  0.1417
 5122W        W20253   5.190   0.242   3.392 -0.1641  0.0365  0.1605
 5123W        W20254   9.570   4.756   3.600 -0.1418  0.0181 -0.0959
 5124W        W20255  13.844   4.154  14.222  0.0808 -0.2019 -0.3383
 5125W        W20256   2.454   6.582   0.844  0.0237  0.0057  0.1061
 5126W        W20257  16.301   7.362   2.914 -0.1335  0.1540 -0.3877
 5127W        W20258  16.885   6.759   1.712  0.2716 -0.0529 -0.1556
 5128W        W20259  13.756  15.760  12.198  0.1738  0.2271  0.1632
 5129W        W20260   8.476   0.912  13.879 -0.2012  0.2880  0.1836
 5130W        W20261  14.266   3.659  11.252 -0.1368 -0.1259 -0.1062
 5131W        W20262   3.934   4.793   5.005  0.1948  0.0309  0.0074
 5132W        W20263   1.497   0.237   4.943  0.1277  0.0806  0.0951
 5133W        W20264   0.655   4.518   3.629 -0.0096  0.3619  0.1440
 5134W        W20265  15.099   4.833   5.848  0.2722  0.0907 -0.1008
 5135W        W20266   6.396   3.488   2.100  0.5726 -0.2478  0.0437
 5136W        W20267  16.030  16.442   0.233  0.1052  0.1616 -0.1614
 5137W        W20268   3.905   2.768   2.311 -0.1877 -0.0870 -0.0218
 5138W        W20269  16.106   9.804   2.218 -0.0960 -0.0704 -0.0402
 5139W        W20270  11.627   8.762  10.975 -0.0639  0.3708  0.2559
 5140W        W20271   2.834   3.113  12.392  0.2119  0.0002 -0.0865
 5141W        W20272   2.870   6.652  10.112 -0.1072 -0.2634 -0.3113
 5142W        W20273   5.759  14.885  12.355 -0.1485  0.0835  0.2532
 5143W        W20274  10.478   8.059  12.413  0.0163  0.1486  0.1341
 5144W        W20275   3.520   8.719   2.819 -0.2453  0.0319 -0.3170
 5145W        W20276  11.757  14.674   4.625  0.1682 -0.2575 -0.0216
 5146W        W20277  16.152  17.260  15.441 -0.1043  0.3258  0.1377
 5147W        W20278   5.443   7.260  13.298  0.0533  0.0721 -0.1880
 5148W        W20279   7.789   0.367   3.739  0.0121 -0.0403 -0.1259
 5149W        W20280   7.918   7.383  15.634 -0.0770  0.0557 -0.3150
 5150W        W20281  10.137  10.474   1.969 -0.1654  0.2422  0.3684
 5151W        W20282  14.475   3.540   3.641 -0.2046  0.3190 -0.1036
 5152W        W20283   3.345  18.103  12.350  0.0411  0.3030 -0.3705
 5153W        W20284   9.834  15.675   2.374 -0.0348 -0.4914  0.1947
 5154W        W20285   1.515   1.510   5.684 -0.0353 -0.1815  0.2167
 5155W        W20286  16.698  15.135   4.642  0.0758 -0.2441 -0.3037
 5156W        W20287   8.502   9.119   0.411 -0.1617 -0.1766  0.3179
 5157W        W20288   6.716   3.619   5.871 -0.1221 -0.0743 -0.1887
 5158W        W20289  11.230  15.973   1.477 -0.1403 -0.0907 -0.0622
 5159W        W20290   3.948   5.082   0.162 -0.0949 -0.0373 -0.3692
 5160W        W20291  16.802   1.003  14.528 -0.0053  0.0507  0.1253
 5161W        W20292  11.074   3.430  15.849 -0.1455  0.1016  0.3590
 5162W        W20293   9.078  15.237   2.788 -0.2193 -0.2278 -0.0613
 5163W        W20294   0.785   8.820   1.604 -0.2709 -0.2075  0.0011
 5164W        W20295  14.248   9.577   0.593 -0.1043  0.0554 -0.2773
 5165W        W20296  11.719   3.246   1.838  0.0026  0.3075  0.0514
 5166W        W20297   5.823   2.271  14.583  0.0509  0.0177  0.0366
 5167W        W20298   0.900  12.284  14.013  0.1950  0.1550 -0.1244
 5168W        W20299  17.186   8.636   5.733 -0.2370 -0.0065 -0.2498
 5169W        W20300  11.924  11.262   1.841 -0.0396  0.0721  0.1247
 5170W        W20301  15.713  17.146   4.619 -0.1339 -0.2815 -0.1887
 5171W        W20302   0.304  18.044  14.264  0.0945  0.0632 -0.1005
 5172W        W20303   0.370   5.529   5.826 -0.1008 -0.1525  0.0170
 5173W        W20304   6.769  13.005  10.110 -0.0421  0.1584  0.0500
 5174W        W20305   6.592  17.547   4.671 -0.0075 -0.2276  0.0255
 5175W        W20306  14.014  13.536   2.089 -0.2821  0.2235 -0.1031
 5176W        W20307  17.628   4.247  16.013 -0.0768  0.1457 -0.1736
 5177W        W20308  10.265  11.833  13.612 -0.0800 -0.0505  0.2435
 5178W        W20309   0.174  13.571   5.603  0.1400  0.0285 -0.1942
 5179W        W20310  13.000  16.668  11.227 -0.1496 -0.1102  0.1961
 5180W        W20311  12.902   5.760  13.254 -0.0405 -0.3763  0.3066
 5181W        W20312  11.091  15.963  11.511  0.0941 -0.0028  0.1945
 5182W        W20313  17.006  14.960   2.228  0.2619 -0.0143  0.1752
 5183W        W20314  12.910   0.592   5.526 -0.0250 -0.1801  0.2104
 5184W        W20315   8.086   5.065   0.482 -0.0045  0.3219 -0.2338
 5185W        W20316   0.798  17.964  14.060 -0.2814  0.2340 -0.0623
 5186W        W20317  13.023  12.027  15.341  0.0037 -0.1200 -0.3526
 5187W        W20318   4.220   6.447   1.345 -0.0991  0.2203 -0.0694
 5188W        W20319  11.736   2.226  12.146 -0.3655 -0.0187  0.1229
 5189W        W20320  15.571   4.572   4.827  0.1177  0.2637 -0.2581
 5190W        W20321   2.769  10.370   5.000 -0.0219 -0.1127 -0.3464
 5191W        W20322   0.975  11.984  12.180 -0.1251 -0.2958 -0.2527
 5192W        W20323   5.605  13.596   3.583  0.0136 -0.0777 -0.1618
 5193W        W20324  11.020  13.892  15.095 -0.0926  0.1769  0.0107
 5194W        W20325  11.723   5.767  14.317 -0.1992 -0.2025 -0.0544
 5195W        W20326   9.009   9.192   2.840 -0.0739 -0.0744  0.2161
 5196W        W20327   0.716  14.114  11.166  0.1056  0.3160  0.0993
 5197W        W20328  17.367  17.646   4.215  0.0291  0.0674  0.1735
 5198W        W20329   8.537   4.278   0.431  0.1548  0.1952  0.1194
 5199W        W20330  10.280   9.844  13.071  0.0612  0.2614 -0.1525
 5200W        W20331   0.589  11.486  11.930  0.0111 -0.1597 -0.3669
 5201W        W20332   2.791   2.135  12.740  0.4365  0.5355 -0.2556
 5202W        W20333   7.338   8.538   4.757  0.1265  0.2182 -0.1209
 5203W        W20334   6.877   6.979   1.019  0.1691 -0.3208  0.2028
 5204W        W20335   1.310  14.791   5.053 -0.0779  0.0878 -0.0002
 5205W        W20336  15.450   1.417   5.731  0.0142  0.1602  0.0741
 5206W        W20337  14.982  14.684   3.074 -0.0013 -0.2491 -0.2518
 5207W        W20338   6.042   3.086  10.805 -0.0891  0.1229 -0.1128
 5208W        W20339   8.758  14.932   0.712  0.0610 -0.1355 -0.1423
 5209W        W20340  14.902   8.745   0.579 -0.2410 -0.1094 -0.2801
 5210W        W20341   1.124  11.635   3.903  0.0187  0.2945 -0.1823
 5211W        W20342  16.456   8.915   5.188 -0.1724  0.0156  0.3246
 5212W        W20343   1.936  10.898   3.648 -0.1590 -0.0643  0.2777
 5213W        W20344   9.827   7.119   0.042  0.2582  0.1630 -0.1733
 5214W        W20345  16.566  12.744  14.112  0.2891  0.1379  0.1864
 5215W        W20346   1.867  17.297   3.110  0.2468  0.1319 -0.0219
 5216W        W20347  11.091  17.046  10.978 -0.0554  0.1871 -0.0341
 5217W        W20348   2.285  17.754   5.537 -0.1758  0.2277  0.3893
 5218W        W20349   0.766  11.606  10.066 -0.1240 -0.1119 -0.0598
 5219W        W20350   1.065   6.863   1.830 -0.0038  0.0556 -0.0186
 5220W        W20351   1.123  15.776   0.043 -0.0786  0.2271 -0.2340
 5221W        W20352   9.543   4.193  12.291  0.0394  0.2542  0.0579
 5222W        W20353   4.019  17.282   1.860 -0.1824  0.0142  0.0635
 5223W        W20354  15.985  12.740   1.208  0.4429 -0.0836 -0.0575
 5224W        W20355  12.156  13.758  13.410  0.0278 -0.1633 -0.0926
 5225W        W20356  16.714   9.241  14.410  0.3925 -0.2644  0.2013
 5226W        W20357  11.046  11.682  10.850  0.1958 -0.1795 -0.3408
 5227W        W20358   7.493  11.328   3.078  0.3676  0.2246  0.1924
 5228W        W20359   6.021   7.016  15.550  0.0529  0.1279  0.0189
 5229W        W20360   8.476  15.862  15.227  0.1183 -0.0994 -0.1907
 5230W        W20361   7.982  16.579   5.020  0.1519  0.0682 -0.0819
 5231W        W20362  12.129  14.642   0.340 -0.0482 -0.3140 -0.0015
 5232W        W20363  13.949  17.608   0.195 -0.2063  0.1762 -0.0115
 5233W        W20364  11.472  14.384  15.489 -0.3456  0.1435  0.1887
 5234W        W20365  10.023   2.202   2.880 -0.3174 -0.0069 -0.1380
 5235W        W20366   4.772   1.336  15.906 -0.1239 -0.0795 -0.0483
 5236W        W20367  13.992   8.844   2.229  0.2780  0.0460  0.0619
 5237W        W20368   5.363  14.396   0.003 -0.0731  0.1587 -0.0309
 5238W        W20369  16.736   7.705  13.167  0.1198  0.2927  0.0297
 5239W        W20370   8.565   0.242   3.814  0.0262 -0.2593 -0.1844
 5240W        W20371  13.069  14.348  14.528  0.0791  0.2750 -0.2548
 5241W        W20372   8.400   7.926  16.120  0.1474 -0.2765 -0.1261
 5242W        W20373   2.615  10.725   4.700  0.2426 -0.1689 -0.2001
 5243W        W20374  13.083   3.163   4.066 -0.0794  0.2834 -0.1795
 5244W        W20375  16.462   0.503   5.601 -0.1431  0.2749  0.0040
 5245W        W20376  14.014   6.400   0.142  0.0520 -0.1176  0.1414
 5246W        W20377  13.229  14.264  12.969 -0.0032 -0.0017 -0.0061
 5247W        W20378   5.934  15.681  14.600  0.0319  0.2024 -0.0994
 5248W        W20379   7.755  13.773   2.387  0.0464 -0.0563 -0.2501
 5249W        W20380   3.813   4.238   3.876  0.0734  0.2353 -0.3591
 5250W        W20381  14.675  15.300   5.487 -0.1043 -0.2111 -0.0023
 5251W        W20382   1.268   4.453   0.808 -0.1912 -0.0238  0.0408
 5252W        W20383   0.164   4.187  11.647  0.1051  0.0486  0.0638
 5253W        W20384  12.422  11.612   1.100 -0.0442  0.0178  0.0364
 5254W        W20385   7.409  14.698   3.013  0.2129 -0.1638  0.0581
 5255W        W20386  17.322  15.800   2.364  0.3643 -0.1693  0.2255
 5256W        W20387  11.805   8.705  14.180 -0.1584  0.0129  0.0718
 5257W        W20388  10.139   2.230  12.297 -0.0745 -0.0010 -0.1132
 5258W        W20389   2.187   1.164   2.471 -0.1011  0.0038  0.0289
 5259W        W20390   5.945   8.999  15.104  0.1681 -0.1324  0.4134
 5260W        W20391   5.097   4.435  13.287 -0.0775  0.0401 -0.0607
 5261W        W20392   4.854   2.987   3.006  0.1467 -0.0908  0.1197
 5262W        W20393   8.559   8.416   4.964  0.3899  0.0605  0.0161
 5263W        W20394  15.851  10.415   0.994  0.0622 -0.0627  0.2057
 5264W        W20395   0.665   2.980  13.777 -0.0777 -0.1281  0.0225
 5265W        W20396   5.668  16.028   2.224 -0.0049  0.0100 -0.0804
 5266W        W20397  10.554   0.045  15.248 -0.0003  0.0457  0.0009
 5267W        W20398   9.642   1.750  15.531 -0.1136  0.0511  0.4270
 5268W        W20399   9.765   8.727  13.073 -0.2235  0.2841 -0.1861
 5269W        W20400  12.121   0.508  15.306 -0.2249  0.0749 -0.0550
 5270W        W20401  18.167  10.126  15.384 -0.2386  0.1224 -0.3270
 5271W        W20402   9.815  15.517   0.437 -0.1645 -0.0712 -0.1214
 5272W        W20403   4.681  17.660  12.065 -0.0783  0.0750 -0.3394
 5273W        W20404  14.572   6.287  14.885  0.1251 -0.2289 -0.2068
 5274W        W20405   8.311   2.242  15.548  0.1566  0.0861  0.0020
 5275W        W20406  16.759   9.508   3.343 -0.1384 -0.1486 -0.1552
 5276W        W20407   6.154   5.160   1.088 -0.3271 -0.0351  0.2078
 5277W        W20408   9.221   7.229  11.817  0.0545 -0.1707 -0.0580
 5278W        W20409   3.554  17.230  11.179 -0.0737  0.0800  0.0319
 5279W        W20410  11.015   4.740  13.487 -0.1907 -0.4599  0.2731
 5280W        W20411   3.198  17.662  13.708 -0.2652 -0.1748  0.1152
 5281W        W20412  17.192   6.961  15.685  0.1662 -0.1038 -0.3256
 5282W        W20413  17.963   1.697   0.048  0.1446 -0.1303 -0.0230
 5283W        W20414   0.113  13.284   0.019  0.4610 -0.1270  0.0793
 5284W        W20415   9.898  15.254  12.507 -0.0385  0.3397  0.2224
 5285W        W20416   8.762  16.961  13.619  0.0450  0.0857 -0.1871
 5286W        W20417   4.225  12.559  15.378  0.1593 -0.0216 -0.1631
 5287W        W20418  14.588   8.181  14.800  0.0438  0.2306 -0.0314
 5288W        W20419  12.274   2.777   0.821  0.1722  0.1197  0.2357
 5289W        W20420  16.476   5.339  15.303  0.2197 -0.0566 -0.0671
 5290W        W20421   9.883   3.567  13.939  0.0253  0.3580  0.2722
 5291W        W20422  12.613  16.030   2.472  0.2036  0.1473 -0.1177
 5292W        W20423   4.161   5.386  14.820 -0.3352  0.1115 -0.1385
 5293W        W20424  16.645   2.735  15.548 -0.0141 -0.0346  0.0748
 5294W        W20425   1.349   8.517   3.200 -0.0574  0.1984 -0.0873
 5295W        W20426   3.633   3.420  14.468  0.0658 -0.0499 -0.2445
 5296W        W20427  11.841  10.781   3.116  0.2685 -0.1664 -0.2700
 5297W        W20428  10.536  17.441  13.187 -0.1201 -0.0556  0.3189
 5298W        W20429   7.700  17.029   5.117 -0.1521 -0.1977 -0.1287
 5299W        W20430   1.664  16.981   5.167 -0.2926 -0.3922  0.0821
 5300W        W20431  12.463  15.300   5.618 -0.0251  0.0192  0.1973
 5301W        W20432   2.986   6.952  12.387 -0.0246 -0.1723  0.0796
 5302W        W20433   7.291  10.693   2.444  0.1139 -0.0303  0.1784
 5303W        W20434   7.847  16.777  15.291 -0.0624 -0.1076 -0.0553
 5304W        W20435   2.968   7.278  11.906  0.1366  0.1736  0.2287
 5305W        W20436   7.851  12.530   0.095 -0.4318 -0.0041 -0.1736
 5306W        W20437   9.622   5.932   1.872  0.2371 -0.2850  0.1915
 5307W        W20438   0.934   0.462  11.818  0.0670 -0.1426  0.0552
 5308W        W20439   8.500  12.645   0.422  0.0158 -0.1015 -0.3480
 5309W        W20440  15.950  14.689   4.870  0.1189 -0.2421 -0.0936
 5310W        W20441  12.797   8.182   9.964  0.1210  0.1432  0.3034
 5311W        W20442   4.814  10.757  10.984  0.0599 -0.0769  0.0048
 5312W        W20443   9.205   6.156   0.862 -0.0272 -0.5534  0.2301
 5313W        W20444  14.340  17.179   0.822  0.2131 -0.0360  0.0434
 5314W        W20445   2.296   6.582  15.471 -0.0193  0.0768 -0.1934
 5315W        W20446   2.928  17.642   2.440  0.1205 -0.0396 -0.2328
 5316W        W20447  17.767   7.266   4.431 -0.0667 -0.1309  0.0876
 5317W        W20448  10.223   6.161   2.999 -0.0555 -0.2233 -0.0164
 5318W        W20449   8.916   6.096   2.319 -0.0184 -0.1049  0.0081
 5319W        W20450   1.829   8.691  13.157 -0.2101 -0.0508  0.1655
 5320W        W20451   2.179  12.247   4.714 -0.2085  0.0468  0.0557
 5321W        W20452   4.815   8.666   0.607  0.2661  0.3955  0.0342
 5322W        W20453  10.728  12.500  12.435 -0.2362 -0.1108  0.2852
 5323W        W20454  13.469  11.420   2.607 -0.3842 -0.1407  0.0902
 5324W        W20455   1.444  14.548   1.316 -0.3126 -0.0307 -0.0790
 5325W        W20456  10.041   2.648   2.697  0.3834 -0.1425  0.0896
 5326W        W20457   6.647  10.122  13.561  0.2531  0.0208 -0.0225
 5327W        W20458   5.576  13.095  10.944  0.0073  0.2352 -0.0408
 5328W        W20459  15.235  10.578  13.409  0.2995  0.0788 -0.1608
 5329W        W20460   0.989   1.136   0.294  0.3539  0.3444 -0.0906
 5330W        W20461   5.576  15.729   0.155 -0.1935 -0.2208  0.0558
 5331W        W20462   9.261   9.398   2.388  0.0288 -0.0696 -0.1215
 5332W        W20463   2.969  15.676  11.343 -0.2555 -0.1374  0.1798
 5333W        W20464   9.968   8.206   0.384 -0.0142 -0.3689 -0.0594
 5334W        W20465   9.805  12.747  16.040 -0.1715 -0.2911  0.2183
 5335W        W20466  15.820   0.424   4.415 -0.1683 -0.1278 -0.1801
 5336W        W20467   6.245   0.722  11.328 -0.2688 -0.2234  0.2666
 5337W        W20468   5.026   4.489  12.480 -0.6442  0.1853  0.0485
 5338W        W20469   6.868   1.480   5.077 -0.0383  0.1095 -0.0744
 5339W        W20470  14.404   0.418   3.283 -0.1497 -0.0962 -0.1326
 5340W        W20471   2.132  10.363  11.782 -0.0140  0.2731 -0.0033
 5341W        W20472   1.547   6.935  11.417 -0.2989  0.0944 -0.0325
 5342W        W20473  11.088   3.948   4.506 -0.2139  0.2414  0.0141
 5343W        W20474   3.680   7.601  14.351 -0.0183  0.1612 -0.1361
 5344W        W20475  15.219  11.751   4.825  0.0023 -0.1651  0.0967
 5345W        W20476   6.745   9.486   0.593 -0.1155 -0.2083 -0.1018
 5346W        W20477  17.074  16.691  14.467  0.1362 -0.1497  0.1768
 5347W        W20478  11.519  12.698  12.087  0.4441 -0.0399 -0.2765
 5348W        W20479   4.621   9.833  14.012 -0.0223 -0.0073 -0.1959
 5349W        W20480  15.213  17.075  11.424 -0.2668  0.0017  0.3227
 5350W        W20481   1.826   3.211   1.179  0.0390 -0.2218 -0.1560
 5351W        W20482   5.027  17.867   0.550  0.2492 -0.1278 -0.2006
 5352W        W20483   6.872  15.713   1.502 -0.0116 -0.1059 -0.0129
 5353W        W20484  15.295   5.846  12.456 -0.3800  0.1164 -0.0802
 5354W        W20485   9.246  14.934   4.703  0.0303 -0.0127 -0.0590
 5355W        W20486  11.947  15.847   2.926 -0.0455 -0.1130  0.2374
 5356W        W20487   7.887   5.571   3.495 -0.2034  0.0387  0.0985
 5357W        W20488   6.783   1.466  13.828 -0.2390  0.0757  0.0999
 5358W        W20489   1.767   6.007  12.437  0.2320 -0.2877  0.2334
 5359W        W20490  15.518  13.018   1.047  0.0115 -0.0607 -0.4621
 5360W        W20491  10.750   5.671   1.570 -0.1218 -0.2348 -0.0250
 5361W        W20492   6.231   0.817  15.925 -0.1616 -0.0157  0.2406
 5362W        W20493   1.263  12.559   3.472 -0.3661 -0.0079 -0.0279
 5363W        W20494   4.746   8.272   1.539  0.1014 -0.3845 -0.1355
 5364W        W20495  10.164   1.655  15.534  0.2725  0.0681 -0.1043
 5365W        W20496  14.156   9.078   1.854  0.0809  0.0309  0.0567
 5366W        W20497   0.634   2.858  11.426  0.2927  0.0199 -0.2833
 5367W        W20498   6.926  14.859  15.623  0.0041  0.0555  0.0576
 5368W        W20499   3.465  14.451   1.625 -0.2469 -0.2217 -0.1587
 5369W        W20500   9.422   0.126  13.647 -0.1578  0.0537  0.0332
 5370W        W20501  12.792   0.610  10.713  0.0834  0.1134 -0.0243
 5371W        W20502   9.578   3.598   1.282  0.0566  0.0156 -0.1979
 5372W        W20503   3.633   4.937  12.553 -0.2786  0.0694 -0.0596
 5373W        W20504   8.151  15.035  14.461  0.2758  0.0395 -0.0287
 5374W        W20505   6.706   4.098   1.274  0.2718 -0.1521 -0.1515
 5375W        W20506   7.585  11.197  14.380 -0.0629 -0.2574  0.0805
 5376W        W20507   1.800  14.415   3.732  0.3598  0.1522  0.3132
 5377W        W20508   1.444   1.204   3.974  0.4660  0.1813 -0.0844
 5378W        W20509  16.546  12.049   5.494 -0.1699 -0.0957  0.0113
 5379W        W20510  15.606   7.604   2.355  0.0234 -0.0999 -0.0757
 5380W        W20511  12.518   7.319  11.810  0.1950  0.1094  0.0318
 5381W        W20512   8.840   5.515   3.640  0.1726  0.1096 -0.0946
 5382W        W20513  13.063  13.050   1.892  0.0524  0.4486 -0.2291
 5383W        W20514   7.146  13.699   2.246 -0.0373 -0.2314 -0.1472
 5384W        W20515   3.731   6.250  12.817 -0.1492  0.0211 -0.0347
 5385W        W20516   0.000   9.742  11.740 -0.1094  0.0690  0.2173
 5386W        W20517   0.814  13.948  10.190  0.0093  0.2783 -0.1878
 5387W        W20518   0.391   5.597  12.418  0.2049  0.3439 -0.0978
 5388W        W20519   7.555   2.311   1.295  0.1687 -0.1605 -0.0193
 5389W        W20520   6.939   0.361   3.338  0.0113 -0.2900 -0.0245
 5390W        W20521  13.367   0.866   2.478 -0.0429 -0.0760  0.0282
 5391W        W20522  11.731  12.694   1.271  0.0771  0.3640  0.0730
 5392W        W20523  15.301   0.214   3.512 -0.0253 -0.0409  0.1109
 5393W        W20524  10.934  16.251   2.236  0.1725 -0.0734 -0.2214
 5394W        W20525   2.692   9.802  13.540  0.3175 -0.0673  0.2970
 5395W        W20526   1.612  14.064   4.093 -0.0442  0.0050  0.0502
 5396W        W20527   4.303   4.466  12.593  0.0516  0.1536  0.3827
 5397W        W20528  17.343   6.950  13.420 -0.4438 -0.0121  0.1351
 5398W        W20529  11.437  10.807   0.603  0.0149 -0.0932 -0.0444
 5399W        W20530   8.595  11.109  13.664  0.2896  0.0164  0.2741
 5400W        W20531  16.957   8.520  11.348 -0.3893  0.1440 -0.1340
 5401W        W20532  17.154  11.073  12.580  0.2577 -0.0170  0.0635
 5402W        W20533   7.294  15.990  13.871 -0.1758 -0.1670 -0.0551
 5403W        W20534   7.774   8.873  16.065  0.0244  0.1837  0.0249
 5404W        W20535   7.252   3.982  15.375 -0.0940 -0.0743  0.3527
 5405W        W20536  15.799  16.222   5.079 -0.1189  0.0709  0.1708
 5406W        W20537   4.057   8.473   0.163  0.0988  0.0706 -0.1414
 5407W        W20538  14.312   4.915   3.169 -0.1973 -0.4874 -0.2382
 5408W        W20539   9.258  15.435  15.821 -0.1047 -0.3184  0.1341
 5409W        W20540  17.406  14.264   2.885 -0.4682 -0.0663 -0.0154
 5410W        W20541  10.654  11.941  14.008 -0.0993  0.2497  0.1842
 5411W        W20542   9.245  16.196   4.936  0.1127  0.2347  0.0164
 5412W        W20543  16.682   1.860   2.635 -0.1254  0.0357  0.1477
 5413W        W20544   1.636  10.886   4.585 -0.0861 -0.0420 -0.1500
 5414W        W20545   7.069  14.614   4.731 -0.3377 -0.1574 -0.2635
 5415W        W20546  16.753  12.548  12.355 -0.0147 -0.3053 -0.3901
 5416W        W20547  16.824   2.370  11.390  0.0608 -0.4226  0.0908
 5417W        W20548  10.379   7.865   1.853 -0.0107 -0.1933  0.2885
 5418W        W20549  13.974   8.898   3.774 -0.0579  0.3672  0.1153
 5419W        W20550   9.633   6.733   2.448 -0.3049  0.0866  0.1937
 5420W        W20551   9.783  10.718  12.276 -0.0493  0.0942 -0.1388
 5421W        W20552  14.965   8.602   4.858 -0.0090 -0.3919 -0.0591
 5422W        W20553  16.967   9.518   4.776  0.0890  0.1017 -0.1365
 5423W        W20554  14.951  15.027  11.508 -0.3131 -0.0308 -0.1140
 5424W        W20555   8.396  10.599  15.478  0.1127  0.0780  0.4539
 5425W        W20556   0.686   0.102  12.035  0.0968  0.3460  0.0910
 5426W        W20557   9.067  15.383  14.607  0.0929 -0.0086 -0.0821
 5427W        W20558   7.883  14.760   1.883  0.0201  0.0570 -0.1544
 5428W        W20559  13.750   1.638   2.148 -0.1419  0.0081  0.1498
 5429W        W20560   1.903  11.822  11.706  0.1520 -0.2406 -0.1497
 5430W        W20561  14.429   8.911   2.802  0.0324  0.1850  0.0839
 5431W        W20562   1.379  13.421   4.310  0.2069 -0.2588 -0.1566
 5432W        W20563   2.165  14.707   2.057  0.1906  0.1942  0.0472
 5433W        W20564  16.964   4.997   2.300 -0.0049 -0.0092  0.0561
 5434W        W20565   2.451   7.209  11.744 -0.2154 -0.2090  0.2825
 5435W        W20566  13.784   0.999   2.983  0.0252  0.0562 -0.1050
 5436W        W20567  13.929   1.311   3.439  0.0339  0.0288  0.1628
 5437W        W20568   7.023   0.769  11.932  0.0813  0.1252  0.0078
 5438W        W20569  10.245  13.066  12.855 -0.1828  0.0889 -0.2698
 5439W        W20570   1.845   7.188   0.023  0.2205 -0.0221 -0.0010
 5440W        W20571  10.196   1.054  15.032  0.0811 -0.2176 -0.2196
 5441W        W20572  11.367   1.764   1.911  0.2680 -0.0617  0.2746
 5442W        W20573   5.735  15.280  12.692  0.4950  0.1666 -0.1286
 5443W        W20574  14.036  15.495  12.989  0.0459  0.0506  0.1573
 5444W        W20575  11.520   0.545  14.810 -0.0840  0.0121  0.0290
 5445W        W20576   6.443   7.391  11.020  0.1771  0.0803 -0.1387
 5446W        W20577  10.417   2.694  15.930  0.2558  0.0987  0.0883
 5447W        W20578   2.839  16.905   1.234  0.0786  0.0096 -0.2492
 5448W        W20579   8.321  12.317  13.641 -0.2133 -0.0827 -0.1855
 5449W        W20580   2.410   1.805  15.393 -0.1402  0.0659  0.0346
 5450W        W20581  11.363  13.846  10.895 -0.1069 -0.0889 -0.0553
 5451W        W20582  16.921   2.922  10.686  0.0254 -0.0862 -0.1478
 5452W        W20583  13.025   9.501  14.671 -0.0320  0.1073 -0.3315
 5453W        W20584   7.957  14.650  12.321 -0.1409  0.0501  0.3023
 5454W        W20585   9.925   4.711  11.141  0.0191  0.1391 -0.0731
 5455W        W20586  11.821  13.081  15.421  0.0611 -0.1704  0.2116
 5456W        W20587   4.511   0.084  15.365 -0.2062  0.1393 -0.0888
 5457W        W20588   3.685   7.756   3.458  0.1172 -0.2050  0.1785
 5458W        W20589  14.381  16.508   2.340 -0.0135  0.0989 -0.1746
 5459W        W20590  12.880   0.183   1.349 -0.2572 -0.1278  0.0526
 5460W        W20591   0.417  10.163  12.072 -0.3544  0.0717  0.0954
 5461W        W20592   5.034   4.293  16.208 -0.2563  0.3040 -0.0513
 5462W        W20593   2.834  10.150  13.228 -0.2188 -0.0483 -0.0403
 5463W        W20594  17.575   0.548   4.767  0.2044 -0.0796  0.3111
 5464W        W20595  11.378  16.612  10.975  0.0617  0.0092 -0.1054
 5465W        W20596  12.956  17.013   2.755 -0.1908 -0.3356  0.1391
 5466W        W20597  11.136  17.699  15.725 -0.3718 -0.1863 -0.2067
 5467W        W20598  10.735   9.990   1.184  0.0458  0.1221 -0.2639
 5468W        W20599  10.000  17.947   0.825  0.1758 -0.3886  0.1208
 5469W        W20600  18.017  12.169   1.693  0.4360  0.2105  0.1003
 5470W        W20601  16.727   6.429  12.707  0.1180 -0.1159  0.0632
 5471W        W20602  11.823   8.038  14.924  0.1054 -0.1828 -0.1715
 5472W        W20603  12.393  17.067   1.126  0.0777 -0.1083  0.2054
 5473W        W20604   5.026  11.899  12.203 -0.3398  0.2005  0.1044
 5474W        W20605   5.400  17.000  10.969 -0.1997 -0.1787 -0.0221
 5475W        W20606   6.353   1.199  12.122  0.0923 -0.0076 -0.1593
 5476W        W20607   2.586  18.008   2.066  0.0655 -0.2091 -0.1266
 5477W        W20608   2.351   8.225  14.830 -0.2386  0.1230 -0.0570
 5478W        W20609  11.112   6.969   5.352 -0.1837 -0.1648 -0.2179
 5479W        W20610   9.955   6.046   0.638 -0.1044  0.4406 -0.1974
 5480W        W20611   5.875   4.546  15.465 -0.0656  0.2835  0.0679
 5481W        W20612   5.544  12.217  10.739 -0.0306  0.0077 -0.3093
 5482W        W20613   8.035  17.059   4.754 -0.1823 -0.1088 -0.2957
 5483W        W20614  15.214  13.866  11.363 -0.0299 -0.0246 -0.1051
 5484W        W20615   0.735  12.959   0.668 -0.1984 -0.2330 -0.0574
 5485W        W20616   5.631   8.630   5.425 -0.0251  0.0772 -0.0421
 5486W        W20617  10.468   6.333  11.406  0.0073 -0.0782 -0.0448
 5487W        W20618   7.708   9.139  13.606  0.0518 -0.1800  0.1744
 5488W        W20619  10.595   0.993   2.034 -0.0209  0.1131  0.1639
 5489W        W20620  12.488  16.466  14.216 -0.1122  0.1858  0.3691
 5490W        W20621   1.209  14.085  11.953  0.0914 -0.1496  0.2949
 5491W        W20622   9.178   0.454   5.804 -0.4060 -0.0002 -0.0138
 5492W        W20623   7.333  13.963   1.850  0.0034 -0.0561 -0.2819
 5493W        W20624  14.439   8.403  15.753  0.0753 -0.0465  0.1962
 5494W        W20625  17.098   3.660   3.620  0.2775 -0.1640  0.0297
 5495W        W20626  16.461  14.447  14.679 -0.1622 -0.0574  0.1021
 5496W        W20627  17.841   7.850   2.651 -0.0519  0.0509  0.1598
 5497W        W20628  14.229  10.281   1.463 -0.1941 -0.3270 -0.2538
 5498W        W20629   9.172  17.594   1.132  0.1099 -0.1295  0.0754
 5499W        W20630  12.187  13.523  12.015  0.2194  0.0403  0.0245
 5500W        W20631   5.995   6.964   1.611  0.2305 -0.0831  0.0204
 5501W        W20632   2.114  17.110  11.366 -0.0831 -0.0986  0.1833
 5502W        W20633   5.016  15.008   0.037  0.2138  0.2290  0.1597
 5503W        W20634  10.933  14.827  13.424 -0.0257 -0.0125  0.1242
 5504W        W20635  13.528   9.731  16.191 -0.0264 -0.1044  0.0762
 5505W        W20636   1.409   6.262  15.549  0.2264  0.0679 -0.0827
 5506W        W20637  15.243  16.467  11.600 -0.2614  0.0011  0.0659
 5507W        W20638  12.664   6.715   0.043 -0.0321 -0.1845 -0.0317
 5508W        W20639  10.278   9.559   1.710  0.0768 -0.1773 -0.1289
 5509W        W20640   4.046  15.969  10.679 -0.0752 -0.2637  0.1543
 5510W        W20641   0.497   8.720  15.465 -0.0375 -0.0347 -0.0961
 5511W        W20642   2.312  14.099   1.458  0.1625 -0.0221 -0.0204
 5512W        W20643  17.175  17.111  15.211 -0.0822 -0.0846 -0.2102
 5513W        W20644   6.311   4.948   1.591 -0.0402  0.1888 -0.0170
 5514W        W20645  14.506   5.879  14.061 -0.4517  0.2491 -0.3470
 5515W        W20646   9.705  17.350   3.974 -0.2390 -0.0720  0.1394
 5516W        W20647   0.208   9.961   0.627  0.1296 -0.0486  0.1223
 5517W        W20648  17.570  13.127  12.275  0.0777 -0.0672  0.0073
 5518W        W20649   0.482   0.856  11.945 -0.2111  0.2169 -0.0966
 5519W        W20650   2.075  14.468   3.155 -0.1644 -0.0670 -0.0885
 5520W        W20651  15.331  14.099   1.955  0.0370  0.0989  0.0615
 5521W        W20652  14.725   7.652  16.107  0.0056  0.2914 -0.0671
 5522W        W20653  16.121   2.812  11.146  0.2389  0.2138  0.2297
 5523W        W20654  16.736   2.254   2.370 -0.0505 -0.0743  0.1919
 5524W        W20655   9.376  13.505   3.583 -0.2459  0.1023  0.0002
 5525W        W20656  14.433   7.477  13.336  0.0178 -0.2367  0.1427
 5526W        W20657  13.661  18.054  14.847 -0.2322 -0.1125 -0.1099
 5527W        W20658   0.572   0.037  13.141 -0.2707 -0.2581  0.1328
 5528W        W20659   5.876   9.730   4.690  0.2372  0.0483  0.0624
 5529W        W20660   8.839  16.313   1.807  0.1079  0.1500 -0.3083
 5530W        W20661   1.634   5.558  10.929  0.0243 -0.3610 -0.0629
 5531W        W20662   4.484   5.191   0.253  0.1418 -0.0930 -0.1657
 5532W        W20663   0.693   1.151   0.970  0.0697  0.1641 -0.0251
 5533W        W20664  16.651  11.142   1.799 -0.0482 -0.2848 -0.1644
 5534W        W20665   0.107  11.125   4.534  0.0451 -0.3111  0.0769
 5535W        W20666   9.815  17.835   3.805 -0.2259 -0.2517  0.0208
 5536W        W20667   5.765  17.947   4.632 -0.2468 -0.0396 -0.0190
 5537W        W20668   6.898   8.601  15.253 -0.3616 -0.1878 -0.0102
 5538W        W20669   9.167   4.217  15.442  0.0260 -0.0559  0.0325
 5539W        W20670   6.563  11.376   0.454  0.0242  0.4248  0.3702
 5540W        W20671  12.700   5.742   0.900  0.2312 -0.0250 -0.2504
 5541W        W20672   2.185   2.070   5.201 -0.0072 -0.3173  0.1025
 5542W        W20673   0.303  15.136  12.065 -0.1821  0.0902  0.1451
 5543W        W20674  14.095  14.423  13.034 -0.2310 -0.1634 -0.2976
 5544W        W20675   9.068  13.086   3.482 -0.2695 -0.0022 -0.0347
 5545W        W20676  15.679  13.741  15.564  0.1150 -0.1587  0.2963
 5546W        W20677   9.043   5.751  10.664  0.1515 -0.1141 -0.0913
 5547W        W20678  17.570   5.095  14.901  0.2410 -0.1057 -0.0779
 5548W        W20679  13.816  17.176  10.330 -0.0337  0.0965  0.0013
 5549W        W20680  17.396   8.328   3.937  0.0263 -0.1521 -0.2784
 5550W        W20681  13.838  12.794  15.160  0.0428  0.0410  0.0073
 5551W        W20682   5.961   0.602   0.912 -0.1087  0.1715 -0.0226
 5552W        W20683   5.944  13.085   2.776  0.1438  0.1018  0.0911
 5553W        W20684  10.586   9.755   2.388  0.0763  0.4285  0.0778
 5554W        W20685  12.197  11.872   4.252 -0.1140  0.1865  0.1751
 5555W        W20686   8.183   2.974  14.619 -0.2390 -0.1134 -0.1296
 5556W        W20687   5.141   9.580  11.334  0.0373  0.3543 -0.0276
 5557W        W20688   0.432  14.024   4.270  0.1903 -0.0814 -0.2904
 5558W        W20689   1.615   2.833   4.428  0.0510 -0.0886 -0.2467
 5559W        W20690   3.643   0.155  10.700 -0.0027  0.1429 -0.2336
 5560W        W20691   6.425   9.149   5.690 -0.2548 -0.3173  0.1724
 5561W        W20692  15.445  13.762   3.961  0.0556  0.0688 -0.2589
 5562W        W20693   9.963  10.269  10.866  0.2142 -0.2761  0.1104
 5563W        W20694   8.933   5.544  15.941  0.0586  0.2316  0.2745
 5564W        W20695  14.158  15.331   2.987  0.2445  0.0233 -0.1162
 5565W        W20696  11.643   1.679   2.408 -0.1695 -0.0693  0.1140
 5566W        W20697   1.066   5.847  14.799  0.0598 -0.3260 -0.2382
 5567W        W20698   0.501   9.200  11.177 -0.0214  0.2878  0.0927
 5568W        W20699   7.722  16.530  11.281  0.0774 -0.0014  0.2105
 5569W        W20700  11.260   8.300   5.384 -0.0998  0.0979  0.0204
 5570W        W20701   6.836  13.918  15.651 -0.2378  0.0362  0.0690
 5571W        W20702  16.539  14.261  13.319 -0.2393  0.2972 -0.2703
 5572W        W20703  12.652  17.331  15.470 -0.1831  0.1050  0.0822
 5573W        W20704  12.147  12.134   2.035 -0.0611  0.0125 -0.0984
 5574W        W20705  16.179   4.970  13.167 -0.2560 -0.2851  0.0527
 5575W        W20706   4.147   3.502   4.846 -0.0111  0.1711 -0.0054
 5576W        W20707   1.344  13.917   2.235  0.0658 -0.1045 -0.0933
 5577W        W20708  12.207   3.311  15.418  0.1761  0.1014  0.1650
 5578W        W20709  16.166   7.986   1.800 -0.4140 -0.2062 -0.2002
 5579W        W20710  11.741  14.547  11.785 -0.1270  0.1234 -0.3047
 5580W        W20711  11.475  14.469   1.956  0.0968  0.0144  0.2075
 5581W        W20712  10.177  14.371  15.532  0.4401 -0.0017  0.0505
 5582W        W20713  17.846   8.524   4.051 -0.0834  0.2965  0.0455
 5583W        W20714  11.916   9.284  15.300  0.4759 -0.2019 -0.0204
 5584W        W20715  12.061   2.937   0.317  0.1429  0.1534 -0.1693
 5585W        W20716   7.640  13.790   3.995 -0.0336 -0.1080 -0.2657
 5586W        W20717   3.593  13.773  14.839  0.1971 -0.4421 -0.3191
 5587W        W20718  11.158   1.939   5.628 -0.0688  0.1322 -0.0175
 5588W        W20719   5.695  14.442   3.643  0.2317  0.1137 -0.0920
 5589W        W20720  16.428  15.907  13.974  0.0534  0.0615  0.2470
 5590W        W20721   0.873   7.253  14.420  0.0084 -0.0057  0.0115
 5591W        W20722   1.778   8.524  16.233  0.1962 -0.0620 -0.0247
 5592W        W20723   5.069   7.289   0.595  0.1073  0.2184 -0.0316
 5593W        W20724  11.705  13.331   3.230 -0.1427  0.1130 -0.0643
 5594W        W20725  11.694   5.212  11.785 -0.3161 -0.1567  0.2654
 5595W        W20726   8.909  15.397   4.613 -0.1051 -0.0739 -0.0785
 5596W        W20727   6.016  15.240  11.333 -0.1067  0.1934 -0.3224
 5597W        W20728   7.976   3.752  13.396  0.0921  0.0554  0.1243
 5598W        W20729   3.729  12.673  12.185  0.0450 -0.3869 -0.0969
 5599W        W20730  12.407   9.630  15.315  0.3142  0.5328  0.2014
 5600W        W20731   2.133   9.035  11.862  0.1260  0.1105  0.1263
 5601W        W20732  10.726   0.728  12.124  0.4213  0.0699  0.4219
 5602W        W20733  14.874  15.772   0.055 -0.0848 -0.1992  0.0918
 5603W        W20734   2.095  11.043   1.742  0.1291 -0.0969  0.2791
 5604W        W20735  10.970   1.852   6.166  0.1872  0.1215  0.1991
 5605W        W20736   2.953  11.281   3.550  0.3536 -0.1145  0.1208
 5606W        W20737   4.937  14.404   0.872  0.0342 -0.2810  0.2474
 5607W        W20738  10.411   8.126   3.764  0.0158 -0.1894  0.1569
 5608W        W20739   3.300   1.827  11.009  0.0151  0.1829 -0.0430
 5609W        W20740  12.902  17.629   3.661  0.0222  0.0761  0.1681
 5610W        W20741  18.136  12.305   3.621 -0.0695  0.1180  0.1431
 5611W        W20742  13.890  12.087  12.935 -0.1290  0.1017 -0.1757
 5612W        W20743   3.504   6.548   5.350 -0.0201  0.0850 -0.0393
 5613W        W20744   9.507   2.743   5.267  0.0543 -0.3802  0.1226
 5614W        W20745  16.498  11.852   3.942 -0.2896  0.1992  0.0646
 5615W        W20746   1.618  12.669  13.419 -0.0441  0.0943 -0.0528
 5616W        W20747  10.321   3.098  13.184  0.0321  0.0872  0.0817
 5617W        W20748   6.155   6.527   0.297 -0.2476 -0.1255  0.1001
 5618W        W20749  10.004   6.645  13.090 -0.0608  0.0170  0.1665
 5619W        W20750   4.617  13.723  16.132 -0.0421 -0.0362 -0.3576
 5620W        W20751   2.004  11.566   3.177  0.1647  0.1412 -0.0732
 5621W        W20752  14.973   4.196  13.513 -0.1615 -0.0117  0.3589
 5622W        W20753   4.438   1.566  14.818 -0.1075 -0.0018 -0.0181
 5623W        W20754   8.476  17.262   4.952  0.2596  0.1723  0.1164
 5624W        W20755   2.135  15.496   4.337 -0.2143  0.1239  0.5022
 5625W        W20756  14.950   3.667  13.497  0.4102  0.0576  0.1237
 5626W        W20757  13.793  12.952   3.845 -0.0771 -0.0408 -0.0116
 5627W        W20758   8.695   6.476   4.853  0.0496 -0.4169  0.1558
 5628W        W20759  10.986  17.753  14.216 -0.0231  0.2545 -0.1173
 5629W        W20760  12.060  13.035   5.422  0.0781 -0.2338  0.0840
 5630W        W20761   6.851  11.467  11.627 -0.1773 -0.1341  0.0176
 5631W        W20762   6.208   1.829   2.434 -0.2364  0.0502 -0.0687
 5632W        W20763   3.262  14.073   2.265  0.1429 -0.0460  0.0013
 5633W        W20764  17.390  13.262   2.467  0.1599  0.0763  0.1948
 5634W        W20765  16.161  12.256  11.088  0.2263  0.0466 -0.0602
 5635W        W20766  17.169  12.812   3.051 -0.3210  0.0737  0.0136
 5636W        W20767   1.245  10.815   0.434  0.1981  0.1583 -0.0069
 5637W        W20768  16.763   2.945  14.569  0.0592 -0.2368 -0.0176
 5638W        W20769  14.647   2.756  14.339  0.0234  0.1519 -0.0545
 5639W        W20770  11.763   9.578  15.751 -0.3494  0.0886  0.2390
 5640W        W20771  13.396  15.510   5.622 -0.1734 -0.3301 -0.0418
 5641W        W20772  17.689  15.627   5.772 -0.0374 -0.0159  0.1242
 5642W        W20773   1.574  18.106  12.459  0.0675 -0.0638 -0.0269
 5643W        W20774   3.138  15.718  16.063  0.1095 -0.1655  0.1241
 5644W        W20775  13.151   4.218  11.851  0.1697 -0.0383 -0.0963
 5645W        W20776   1.001   4.872   0.670  0.1318 -0.1578  0.5397
 5646W        W20777   5.074  16.935  11.857  0.3604 -0.0280  0.1074
 5647W        W20778   2.544  15.802   3.196  0.0722  0.1768  0.2130
 5648W        W20779   7.097   4.441   2.943 -0.0306  0.1700 -0.1003
 5649W        W20780   2.969  13.613  13.059 -0.0512 -0.0788 -0.0362
 5650W        W20781   9.828   1.404   1.191 -0.0772 -0.0381 -0.4345
 5651W        W20782   6.264   7.799  13.530 -0.1016  0.0520  0.1131
 5652W        W20783  17.635   0.512  14.708 -0.1534 -0.1831  0.1660
 5653W        W20784  12.533  17.221   3.751 -0.0665 -0.0325  0.2146
 5654W        W20785   9.161   3.675   2.734  0.1912  0.0453 -0.1624
 5655W        W20786   3.641  10.926  12.126 -0.1113  0.0334  0.1950
 5656W        W20787  14.017  10.152   5.212 -0.0448 -0.2723  0.4420
 5657W        W20788  12.720  17.330  14.442 -0.1000 -0.3174  0.0126
 5658W        W20789   7.075   1.745   4.509  0.3751  0.0034 -0.0704
 5659W        W20790   5.813  10.847   0.692  0.1859 -0.1625 -0.1810
 5660W        W20791   7.955  16.252   4.097  0.0814  0.0735  0.2058
 5661W        W20792   4.749   0.493  15.551  0.1888  0.1773  0.3003
 5662W        W20793  12.032   4.643   3.745  0.1981  0.0858  0.0228
 5663W        W20794   4.517   6.432  15.993  0.2493  0.0031  0.0470
 5664W        W20795   8.624  14.093   5.610 -0.0708 -0.2295 -0.1782
 5665W        W20796  11.235   4.467  15.168 -0.1131 -0.1743 -0.0795
 5666W        W20797   0.477  11.339   2.709  0.0790 -0.1088  0.2618
 5667W        W20798   5.078  15.400  12.936  0.3260 -0.0592  0.1653
 5668W        W20799   8.265  16.679  11.903  0.1445 -0.0634 -0.0097
 5669W        W20800  15.124  10.172  11.368 -0.0621  0.0050  0.1613
 5670W        W20801   9.505  10.086   5.127  0.0562 -0.1405  0.2130
 5671W        W20802   5.466  12.854   1.085  0.4202 -0.0537  0.1656
 5672W        W20803   2.885   6.570  13.310 -0.1982  0.1977  0.1608
 5673W        W20804   9.254   4.704  15.490 -0.3707 -0.0938 -0.1679
 5674W        W20805  15.690   0.179  12.139  0.3705  0.0413  0.1196
 5675W        W20806  12.161   2.453  15.823 -0.1777 -0.1642 -0.1425
 5676W        W20807  12.142  17.962  13.639  0.2557 -0.1669  0.0953
 5677W        W20808   8.375   1.009   0.729  0.0620  0.1062 -0.1684
 5678W        W20809  17.469   6.345  16.036 -0.0140 -0.0045  0.1437
 5679W        W20810  15.714   6.662   4.576 -0.1498  0.0793  0.4098
 5680W        W20811  10.547  16.993   4.431  0.0325 -0.0107 -0.1195
 5681W        W20812  16.692  17.543   2.389  0.0358  0.1658  0.4811
 5682W        W20813  12.749   0.981  13.049  0.4884  0.4271  0.1265
 5683W        W20814   4.563  14.467   4.202  0.2868  0.0042 -0.2761
 5684W        W20815  15.632   6.150  14.740 -0.1989  0.3288 -0.2968
 5685W        W20816   1.387   5.358   2.362 -0.2026 -0.0297 -0.0869
 5686W        W20817   3.292   7.670   3.008  0.1639  0.1474  0.3213
 5687W        W20818   5.998   1.633   1.515  0.0106  0.0010 -0.0849
 5688W        W20819  15.775  17.210  15.107 -0.0509 -0.4082  0.3376
 5689W        W20820   2.931  15.095   2.610  0.1635  0.3122  0.1992
 5690W        W20821  13.012  12.652   5.174  0.0462 -0.0606 -0.2055
 5691W        W20822  11.250  14.384   1.260  0.1470 -0.0585 -0.1968
 5692W        W20823   9.153   7.513   4.067  0.1524  0.1627  0.0288
 5693W        W20824   9.211   0.213  12.340 -0.2574 -0.1343  0.0759
 5694W        W20825   8.808  11.051   3.349  0.1319  0.2878  0.0792
 5695W        W20826  11.333   7.519   2.608  0.0240 -0.0598  0.1648
 5696W        W20827  12.659   3.591  12.953  0.1856  0.2131  0.1752
 5697W        W20828   7.348  15.951   1.454 -0.0545 -0.0262  0.0857
 5698W        W20829  12.831  12.302   1.354  0.2163 -0.1773 -0.1909
 5699W        W20830  16.620   2.310  13.390 -0.1384 -0.0461  0.2182
 5700W        W20831  16.577   5.542  14.275 -0.0320 -0.1722  0.1788
 5701W        W20832  12.060  13.986  15.836 -0.0239 -0.0676 -0.0107
 5702W        W20833   7.130   9.307  10.921 -0.1670  0.0670 -0.0368
 5703W        W20834  12.234  11.019   3.929  0.0878 -0.3796  0.2194
 5704W        W20835   9.365   3.023   4.386  0.1413  0.1864  0.2133
 5705W        W20836  17.934  16.448   3.736  0.2195  0.1951 -0.3156
 5706W        W20837  13.157  10.185  11.126  0.0148 -0.0811 -0.1019
 5707W        W20838  13.633  13.089  13.754 -0.1226 -0.1793  0.1698
 5708W        W20839   8.565   2.866   3.249 -0.2608  0.2660 -0.1526
 5709W        W20840  10.858  17.466  11.104  0.1222  0.0578  0.2567
 5710W        W20841  12.904  10.099  13.881 -0.1787 -0.3343  0.0137
 5711W        W20842   1.144  10.981  12.899 -0.2765  0.2875 -0.2372
 5712W        W20843   0.196   8.619   1.274 -0.0008 -0.1392 -0.1790
 5713W        W20844   2.348  10.868   0.368 -0.2298 -0.1595 -0.3143
 5714W        W20845   5.380   6.129  15.856  0.0855 -0.4356  0.0541
 5715W        W20846   9.885   7.445   4.837  0.2454 -0.1069 -0.0876
 5716W        W20847   0.899  14.344  13.086 -0.3712 -0.1796  0.1145
 5717W        W20848  12.163  15.244   4.022 -0.0969 -0.0483  0.1115
 5718W        W20849  15.879   1.634   5.143 -0.1514 -0.3675  0.0379
 5719W        W20850   5.556   8.431  11.861  0.2500  0.1502 -0.3016
 5720W        W20851   2.517  13.490  14.682 -0.0494 -0.0145 -0.0367
 5721W        W20852   9.116  14.120   0.818 -0.3057  0.0944 -0.0537
 5722W        W20853   1.918  15.923   5.184 -0.0047  0.0097 -0.2937
 5723W        W20854  11.554  15.280   5.778  0.2514  0.2120 -0.0532
 5724W        W20855   1.318  11.475   5.282 -0.1553  0.0332  0.1023
 5725W        W20856  11.775  15.976  15.786 -0.0644 -0.0231 -0.0484
 5726W        W20857   8.450  11.854  12.894 -0.0319 -0.2936 -0.1718
 5727W        W20858   4.975   0.725   1.472 -0.2456  0.2136  0.0144
 5728W        W20859   0.053  10.688   2.194  0.0188  0.2348  0.0459
 5729W        W20860  14.767   0.708   5.547  0.0989  0.1267 -0.0512
 5730W        W20861  11.170   9.050   4.986 -0.4088 -0.2152  0.0299
 5731W        W20862   5.156  15.112  15.766  0.3070 -0.1019  0.0062
 5732W        W20863  15.650   5.773  14.391  0.0434  0.1188 -0.0528
 5733W        W20864  10.587  14.235  15.893  0.1168  0.0818 -0.0442
 5734W        W20865   3.231  16.009  13.315  0.0161 -0.1437  0.3763
 5735W        W20866   4.711   2.965   0.676 -0.2739 -0.0704 -0.1735
 5736W        W20867  14.165  10.969   1.478  0.3333 -0.2545 -0.3625
 5737W        W20868  16.754  11.554   3.602 -0.1155 -0.1429 -0.2036
 5738W        W20869  10.528   6.762  15.098  0.1622 -0.0894  0.0996
 5739W        W20870  14.175  16.718   0.798 -0.0586 -0.0598  0.2567
 5740W        W20871  15.354   8.310   1.819  0.0387  0.4024 -0.0621
 5741W        W20872   1.575  10.088  13.006  0.0554 -0.1213  0.0340
 5742W        W20873   1.119   8.555   1.197 -0.1197 -0.2098 -0.0574
 5743W        W20874   9.921  12.213  13.961  0.0179  0.3764  0.3292
 5744W        W20875   1.639   2.015  14.425  0.0202 -0.2663 -0.1364
 5745W        W20876  17.709   0.153   6.447 -0.0110 -0.3325 -0.0054
 5746W        W20877   3.391  16.388  14.458 -0.3117  0.1330 -0.4890
 5747W        W20878   4.901  14.246  14.098 -0.1267  0.1287 -0.1680
 5748W        W20879   7.000   4.439  12.400  0.1670 -0.2737 -0.2906
 5749W        W20880   0.417  15.105  11.565  0.1209 -0.0242 -0.2465
 5750W        W20881   4.124  12.637   2.456 -0.3466 -0.2813  0.2053
 5751W        W20882  12.493   8.912   1.533  0.0047 -0.1499 -0.0002
 5752W        W20883   5.605  17.301  10.592 -0.0445 -0.2220  0.1816
 5753W        W20884   2.871  13.848   1.504  0.0453  0.2370 -0.0749
 5754W        W20885  16.700  17.887  12.093  0.0455  0.2742 -0.2244
 5755W        W20886  17.800  15.113   2.244 -0.0135 -0.1721  0.0279
 5756W        W20887  16.061   6.268   4.518 -0.0864  0.1631 -0.0187
 5757W        W20888   2.236  14.667   4.574 -0.0395  0.1893  0.0731
 5758W        W20889  17.420   5.935  11.107 -0.1987 -0.1924  0.2416
 5759W        W20890  12.066   3.754  11.906 -0.0549 -0.2161 -0.2293
 5760W        W20891  14.954  16.168   5.297 -0.0991  0.1350 -0.1932
 5761W        W20892   0.921   4.628  16.052  0.0122 -0.0934  0.0837
 5762W        W20893   0.840  17.538   1.501  0.0527  0.2264  0.0910
 5763W        W20894   3.915  17.821   0.530  0.2017  0.0811  0.1460
 5764W        W20895   9.574   2.896  15.462  0.1409  0.0415 -0.1145
 5765W        W20896   3.717   9.650  12.758  0.1511  0.0484  0.2141
 5766W        W20897  15.269   0.142  15.793 -0.0581  0.1513  0.2304
 5767W        W20898   0.448  16.444   2.279 -0.4317  0.1119  0.3554
 5768W        W20899  12.562   6.624  14.083  0.0205 -0.0856  0.0765
 5769W        W20900   2.721   8.907   2.188 -0.1123 -0.3430 -0.1941
 5770W        W20901   7.116  12.835   0.054  0.0024 -0.0907  0.2285
 5771W        W20902  17.940  10.537  14.339 -0.0183 -0.1815  0.2239
 5772W        W20903   0.412  13.679  14.088  0.1020  0.1486 -0.2553
 5773W        W20904   7.356   0.632   1.575 -0.2064  0.3761  0.2152
 5774W        W20905  16.795   5.694   0.231 -0.0476 -0.2770  0.6637
 5775W        W20906  17.409  13.606   4.946  0.2715  0.1839  0.3787
 5776W        W20907   3.736   2.031  14.333 -0.0771  0.0362  0.0306
 5777W        W20908  15.141  17.690  14.429 -0.1013 -0.1855  0.2752
 5778W        W20909  12.617   0.827  12.496 -0.2378  0.2770 -0.0304
 5779W        W20910   2.324   2.991  12.806 -0.4205  0.0069  0.0499
 5780W        W20911  17.329  16.499   5.893  0.1249  0.0487  0.4125
 5781W        W20912  10.311  12.268   9.638  0.0089 -0.0137 -0.0122
 5782W        W20913   4.086   6.997   4.815 -0.1554 -0.0053  0.0352
 5783W        W20914   4.392  14.710  13.352  0.1686  0.0503  0.0977
 5784W        W20915   0.447  12.748  12.410 -0.1271  0.1012  0.1002
 5785W        W20916  12.186   4.195   3.636  0.3545  0.3574 -0.1070
 5786W        W20917   2.397   0.755   2.195 -0.1027  0.0907  0.0582
 5787W        W20918   0.574   9.498  14.412  0.1644 -0.0010 -0.3820
 5788W        W20919  14.692   2.214   4.149 -0.3892 -0.0745  0.1110
 5789W        W20920  13.559  10.831  14.719  0.0962  0.0259  0.0481
 5790W        W20921  10.357   9.201  14.789 -0.0608 -0.0599  0.0726
 5791W        W20922   5.525   6.182   1.902 -0.1331 -0.1821  0.1533
 5792W        W20923   1.342  15.287   2.677 -0.1235 -0.0266 -0.1269
 5793W        W20924  10.512   7.614  15.880 -0.2557 -0.1254 -0.0439
 5794W        W20925   2.096  14.902   3.616  0.3116  0.2525  0.2069
 5795W        W20926  13.240   8.227   6.021  0.0974 -0.2938 -0.1892
 5796W        W20927   7.932  10.660  14.833  0.0888 -0.0596  0.0633
 5797W        W20928  10.046   5.752   1.665  0.1359 -0.0654 -0.1194
 5798W        W20929   0.087  16.029   4.982  0.0336 -0.0942  0.0403
 5799W        W20930   9.613   9.129  14.878  0.1104 -0.0086 -0.1563
 5800W        W20931  13.414  14.006  11.734 -0.1925 -0.0405  0.1325
 5801W        W20932  11.585  12.237  14.470  0.1479 -0.0025 -0.0214
 5802W        W20933  16.895   3.473   4.584  0.1072  0.1310 -0.0646
 5803W        W20934  13.957   3.183   4.796 -0.0577 -0.2116 -0.0749
 5804W        W20935   5.332   1.414   2.130 -0.0747  0.2002 -0.0009
 5805W        W20936   7.815   3.599   2.553  0.1289  0.1334  0.0375
 5806W        W20937  12.454   3.692   4.726  0.0078  0.1217 -0.1336
 5807W        W20938  10.966   2.084  15.468  0.1238  0.1681 -0.2045
 5808W        W20939  12.065   5.474  15.172  0.1095  0.0097 -0.1817
 5809W        W20940   3.308  17.567  12.236  0.2729  0.1598 -0.0480
 5810W        W20941   9.332  15.491   3.139  0.0715 -0.1107  0.0661
 5811W        W20942  16.172  11.109   0.625 -0.2681  0.0752 -0.1406
 5812W        W20943  13.112  10.215  15.939  0.4638 -0.1168  0.2979
 5813W        W20944   6.724  15.051   2.372  0.0068 -0.2238  0.5069
 5814W        W20945   2.280  12.485  14.484  0.1727  0.1190  0.2232
 5815W        W20946   0.891   0.728   2.093 -0.2111  0.2129 -0.0266
 5816W        W20947  17.248   8.810   5.244  0.1022 -0.0238  0.0783
 5817W        W20948  17.013  17.911   4.516 -0.0947  0.1464 -0.0150
 5818W        W20949  11.709   1.445  15.435 -0.1532  0.0335  0.1458
 5819W        W20950  11.722   3.619  13.322 -0.1173  0.2631  0.0998
 5820W        W20951  15.414  14.129   0.944  0.1954 -0.0853 -0.1064
 5821W        W20952  14.237   9.874   3.174  0.2377 -0.0738  0.1100
 5822W        W20953  15.246   8.899  15.845 -0.0796  0.1477 -0.0485
 5823W        W20954  18.013  11.270   0.905 -0.1564  0.2390  0.2035
 5824W        W20955   2.711   9.420   1.367  0.2226 -0.3406  0.1502
 5825W        W20956   2.335  16.503  13.269 -0.1133  0.0696  0.0793
 5826W        W20957  18.145   8.557  14.078 -0.1062  0.1746  0.1622
 5827W        W20958  14.715  17.773  11.740  0.0848 -0.1449 -0.2183
 5828W        W20959  16.914   6.505  14.570  0.1058  0.0861 -0.2817
 5829W        W20960   9.995   6.676  14.974  0.0241  0.0271  0.0504
 5830W        W20961  16.720   3.795  11.605  0.1034 -0.0300  0.1176
 5831W        W20962   2.220  13.127  13.002  0.3628  0.1742  0.1620
 5832W        W20963  16.873   8.836  12.269 -0.0235  0.2908 -0.1893
 5833W        W20964   1.526   6.774  14.966  0.0211 -0.0340  0.0807
 5834W        W20965   9.898   6.345   0.109  0.1798 -0.0775 -0.2349
 5835W        W20966   9.941   1.584   4.781  0.2670  0.0767  0.0857
 5836W        W20967   8.702   4.863   2.123 -0.1088  0.0159  0.0334
 5837W        W20968  18.133  16.509   2.279 -0.0678  0.0666 -0.0550
 5838W        W20969   4.038   2.271   0.830  0.1269  0.0605  0.2785
 5839W        W20970  14.940  12.127   4.821 -0.0763  0.0370  0.0999
 5840W        W20971  12.701  17.077  11.183 -0.1410 -0.2036  0.0278
 5841W        W20972   9.752  13.413   1.077  0.3912  0.0713 -0.0602
 5842W        W20973  11.731  10.492  14.654 -0.4056 -0.0386  0.3702
 5843W        W20974  12.368   1.440   4.424  0.0854  0.0914  0.0711
 5844W        W20975  12.289   0.409  11.615 -0.2435 -0.1626  0.1053
 5845W        W20976  16.728   7.484   5.250  0.1676  0.2632  0.4408
 5846W        W20977  18.085  17.345   0.736  0.0300 -0.1663 -0.1479
 5847W        W20978   9.386   0.016   3.713 -0.0652 -0.0017  0.1498
 5848W        W20979  15.102  16.628  13.019  0.1531  0.0586  0.0599
 5849W        W20980  18.075   6.264  14.801 -0.2662  0.1132  0.3011
 5850W        W20981   6.079  13.767   9.945  0.1111 -0.1331 -0.0360
 5851W        W20982   2.016  10.066   0.814 -0.2861 -0.1289 -0.0329
 5852W        W20983  11.162   0.016   3.863 -0.1896  0.2030  0.1026
 5853W        W20984  10.125   8.752   1.330 -0.1224 -0.1782  0.0445
 5854W        W20985   2.957  17.246   2.142 -0.0283  0.2230  0.0372
 5855W        W20986  13.171  16.871   4.245 -0.3319 -0.0558 -0.4182
 5856W        W20987  17.901   5.533   0.931 -0.2131  0.1645  0.1426
 5857W        W20988  10.248   4.810  13.748  0.1221  0.0438  0.1548
 5858W        W20989   6.394   7.737  12.847 -0.0173 -0.0130  0.1531
 5859W        W20990   0.122  10.567   3.036 -0.0764 -0.0911 -0.3113
 5860W        W20991   4.733   3.986  11.188  0.0131 -0.2323 -0.3481
 5861W        W20992   1.808  15.659  15.592 -0.0770  0.2168  0.1632
 5862W        W20993   2.301   3.922  15.229  0.2506 -0.1359  0.1522
 5863W        W20994   5.610  17.973  11.844 -0.0887  0.1411 -0.0883
 5864W        W20995   3.240  13.465   3.952  0.0820 -0.1591 -0.1438
 5865W        W20996   8.990   4.577  14.232 -0.1493 -0.0915 -0.2870
 5866W        W20997   4.123   2.449   1.805  0.2330 -0.2531  0.1976
 5867W        W20998  10.221   9.952   0.932 -0.1816  0.0792  0.0960
 5868W        W20999   4.185  14.226  13.508  0.2021 -0.1000 -0.1549
 5869W        W21000  16.357   5.007   5.208 -0.1194  0.1221  0.0867
 5870W        W21001   8.080   7.949  11.497 -0.0910 -0.0033  0.0141
 5871W        W21002  16.679  17.608  12.598  0.2952 -0.0089  0.0683
 5872W        W21003   5.850   6.938   0.046  0.1733  0.1030  0.0070
 5873W        W21004  16.013   0.706   4.063  0.0737  0.1254 -0.0376
 5874W        W21005   4.243   7.788   5.062 -0.1026  0.0091  0.3190
 5875W        W21006  11.770   2.724   0.683 -0.0141  0.0599 -0.3123
 5876W        W21007  16.868   6.298  15.343 -0.2004  0.0135  0.2740
 5877W        W21008   6.696   2.481   3.700  0.1116 -0.2309  0.0732
 5878W        W21009   8.505   3.717  11.198 -0.0875 -0.1778  0.0188
 5879W        W21010   3.769  12.060  10.830  0.1117 -0.0326 -0.1948
 5880W        W21011   0.448   0.406   5.669 -0.0567 -0.1293  0.1291
 5881W        W21012   7.486  11.342  10.632 -0.3214 -0.0070 -0.0020
 5882W        W21013   1.850   2.314  12.849 -0.1288 -0.5190  0.0921
 5883W        W21014  10.950   6.766  12.857 -0.0014 -0.0945  0.0549
 5884W        W21015   1.327   6.255   0.704  0.0337 -0.0431 -0.1943
 5885W        W21016  17.956   3.439   2.882 -0.0009 -0.0716 -0.0224
 5886W        W21017   8.975   8.038   5.363 -0.2832 -0.1814  0.3481
 5887W        W21018  17.986  17.858  14.188  0.0286 -0.0756  0.0863
 5888W        W21019  15.365   8.089  14.965 -0.3025  0.1155 -0.2078
 5889W        W21020  10.034   8.668  11.117  0.0956  0.0050 -0.0830
 5890W        W21021   2.789  13.591   5.468 -0.0127 -0.0784  0.1162
 5891W        W21022   7.794   3.307   3.170 -0.0335 -0.1588 -0.0656
 5892W        W21023   3.658   6.259  15.781 -0.3640 -0.0897 -0.2625
 5893W        W21024   5.989  11.220  11.231  0.4156 -0.2689 -0.2174
 5894W        W21025   8.938   0.197  13.354 -0.1274 -0.0949 -0.3236
 5895W        W21026  15.506  10.731   0.013  0.3823  0.0585  0.0602
 5896W        W21027   4.821  15.413  12.493  0.2289 -0.0777 -0.2845
 5897W        W21028   1.541   7.553   2.384 -0.2745 -0.2603 -0.1128
 5898W        W21029   9.801  10.789   1.822 -0.0749 -0.1395 -0.1873
 5899W        W21030  10.333  12.640  14.702 -0.2152 -0.1333  0.1272
 5900W        W21031  12.248  11.801  11.696 -0.0883  0.1370 -0.0137
 5901W        W21032   8.063   2.351   4.821  0.0090 -0.1101 -0.2759
 5902W        W21033   5.306   0.071  11.561 -0.1273 -0.2100 -0.1355
 5903W        W21034   8.795  13.929  12.951 -0.0516  0.0636  0.3077
 5904W        W21035   9.878   9.213  13.290 -0.1410  0.2583  0.1498
 5905W        W21036  12.050  11.127  13.678  0.0127  0.0730  0.1128
 5906W        W21037  11.607   7.731  11.823  0.0450  0.0738 -0.0234
 5907W        W21038   8.960  13.563   1.631  0.1787 -0.3867 -0.4752
 5908W        W21039   6.947   4.695   4.543  0.3475  0.1156 -0.0075
 5909W        W21040  13.954  17.218  12.636 -0.1023 -0.3544 -0.3348
 5910W        W21041  12.847   4.363   1.642  0.4795  0.1538 -0.0380
 5911W        W21042  16.115   5.610  12.471 -0.4791  0.0967  0.2226
 5912W        W21043   3.751   9.050  11.099  0.1877 -0.0971 -0.0315
 5913W        W21044  13.924  10.358  16.141  0.2541  0.0678 -0.1043
 5914W        W21045  13.649   4.430  11.771  0.1329  0.3039 -0.0175
 5915W        W21046   4.803  16.896   4.514  0.4746  0.0001 -0.2276
 5916W        W21047  17.021   8.727   0.017  0.0926 -0.4486  0.1985
 5917W        W21048  13.248   3.597   2.771 -0.1593 -0.1542 -0.1296
 5918W        W21049   5.239  11.117  10.187  0.1135  0.1433  0.0029
 5919W        W21050   0.992  13.707   1.958  0.1048 -0.2716 -0.3182
 5920W        W21051  14.930   1.858  12.709  0.1583 -0.2828 -0.1233
 5921W        W21052  13.436   4.985   2.802  0.2325  0.0417  0.0955
 5922W        W21053   6.578   3.265   2.730 -0.1304  0.1493 -0.0509
 5923W        W21054  13.331  10.730   3.792 -0.0476 -0.1020  0.1571
 5924W        W21055  17.302  17.906   3.763 -0.0362 -0.0661  0.0123
 5925W        W21056   3.398   1.879   4.654  0.1198 -0.2771  0.1399
 5926W        W21057  15.600   8.816  15.381 -0.0790 -0.0372 -0.3930
 5927W        W21058  14.453  15.048  14.121 -0.1033  0.3302 -0.1484
 5928W        W21059   4.722  10.062   3.058 -0.1973  0.2970 -0.0927
 5929W        W21060  17.628  12.626   0.868  0.0705 -0.0576  0.0448
 5930W        W21061   5.692   3.042  13.489  0.1699 -0.0438  0.0382
 5931W        W21062  14.322   4.877  12.033 -0.1354  0.0181 -0.0524
 5932W        W21063   3.211   0.519  12.455  0.0415  0.2085 -0.2289
 5933W        W21064   1.245  16.402   5.684  0.0393  0.0812  0.0679
 5934W        W21065   1.065   2.581   0.672 -0.1614 -0.1705  0.1142
 5935W        W21066   9.786  11.759  11.462  0.0593  0.1008  0.2185
 5936W        W21067  16.291   0.670   4.571  0.0658 -0.0316  0.4043
 5937W        W21068   5.747  18.035  11.354  0.0402  0.0793 -0.2431
 5938W        W21069   0.612   5.151  15.218  0.1165 -0.0849  0.2223
 5939W        W21070   7.251  10.935   1.939  0.0767 -0.1528 -0.0743
 5940W        W21071  12.198   7.365   2.809 -0.0143  0.0640 -0.4037
 5941W        W21072   7.091  10.845   4.189 -0.1808  0.0243  0.2351
 5942W        W21073  11.389   6.037   4.958 -0.1585  0.1307 -0.1313
 5943W        W21074  17.524   0.525  12.626 -0.1786  0.1557  0.1960
 5944W        W21075  15.973   9.638   0.523  0.0419 -0.0076  0.1653
 5945W        W21076   9.000  12.990   1.547  0.1954 -0.0504 -0.0473
 5946W        W21077  16.853   2.134   0.016  0.0821 -0.2466 -0.1027
 5947W        W21078  12.346   3.686   5.831  0.2466 -0.0153  0.0755
 5948W        W21079  15.153   1.982   1.673  0.1563  0.2174  0.0408
 5949W        W21080   4.365   3.119  15.834  0.3726 -0.1039 -0.0616
 5950W        W21081   2.367  15.268  10.358  0.1365 -0.0700  0.3630
 5951W        W21082  14.485  17.449  11.031  0.0442  0.1772  0.0590
 5952W        W21083   0.047  12.681  14.312  0.1103  0.0764  0.0025
 5953W        W21084   3.097   8.111  12.573 -0.1198  0.1115 -0.0035
 5954W        W21085   5.583   9.936  12.939 -0.1044  0.0665 -0.0390
 5955W        W21086   9.449  12.661   1.618 -0.1899 -0.2296  0.1189
 5956W        W21087  15.160  15.608   3.709  0.3553 -0.1747  0.0500
 5957W        W21088   1.581  13.863   5.607  0.0596  0.1730  0.0955
 5958W        W21089   7.946  14.757   0.952  0.1835  0.0704 -0.0422
 5959W        W21090  15.514   2.689   0.038  0.1124  0.0394  0.1614
 5960W        W21091   7.442  15.160  15.765  0.0256 -0.1455 -0.3212
 5961W        W21092  11.081   5.308  13.722 -0.1551 -0.0786 -0.3934
 5962W        W21093  17.196   3.472   2.433  0.0403 -0.0667  0.1887
 5963W        W21094   4.951   8.010  12.398 -0.0071  0.1058 -0.2687
 5964W        W21095   3.510   9.169  14.930 -0.0294  0.2034 -0.0926
 5965W        W21096   6.975   8.597   1.347 -0.0487  0.1394  0.1213
 5966W        W21097   9.461   0.469  14.783 -0.0234 -0.2026 -0.0795
 5967W        W21098  11.145  11.759   0.489  0.1102 -0.1529 -0.2804
 5968W        W21099  15.004  15.215   3.287 -0.0187  0.0452  0.2458
 5969W        W21100   6.353   5.955  14.830 -0.0220  0.2690 -0.1233
 5970W        W21101  15.599  11.079  12.280 -0.0874  0.1523 -0.1925
 5971W        W21102  12.439  12.867   2.344 -0.3492  0.0736  0.1916
 5972W        W21103  11.102  15.343  15.222 -0.1826  0.0881  0.4633
 5973W        W21104   7.119   2.896  14.634 -0.0770 -0.2660 -0.2115
 5974W        W21105  16.471   6.849  12.773 -0.0624 -0.3494 -0.2412
 5975W        W21106   7.424   6.054   1.918  0.0139 -0.0758 -0.1243
 5976W        W21107  14.372   3.222  11.514 -0.1519 -0.0636  0.1768
 5977W        W21108   6.521   9.109  16.034  0.4068 -0.0315  0.1143
 5978W        W21109   3.958   0.757   2.857  0.3054  0.0353 -0.3850
 5979W        W21110   0.361   8.899   3.053 -0.1094  0.1463  0.0777
 5980W        W21111   4.995   9.835  12.631  0.5055 -0.2976  0.0409
 5981W        W21112   6.180   9.809   1.846  0.0404  0.0417 -0.1065
 5982W        W21113  10.762   7.389  11.810  0.1348 -0.0672 -0.1937
 5983W        W21114   6.502  15.813   3.547  0.0928  0.1720 -0.0323
 5984W        W21115   2.536   1.863   4.791  0.0859 -0.1078 -0.1352
 5985W        W21116   3.694  17.888   3.589  0.1670  0.1292  0.1496
 5986W        W21117   4.841  16.761   0.379  0.0227 -0.3312 -0.3212
 5987W        W21118  17.622  14.660   2.234 -0.1358 -0.1156 -0.0317
 5988W        W21119   8.794  16.614  11.954  0.0713 -0.1347  0.3457
 5989W        W21120  12.312  14.608   2.086 -0.2778 -0.1004 -0.3123
 5990W        W21121  12.431   2.091   2.734  0.0509 -0.0218 -0.1964
 5991W        W21122   1.801  12.534  14.022  0.5143  0.2471  0.3768
 5992W        W21123  15.715  12.505  11.227  0.1483  0.0875 -0.0778
 5993W        W21124   3.532   8.073  15.581 -0.0171  0.0550  0.0937
 5994W        W21125   2.267  11.487  15.089 -0.4670 -0.1568  0.4515
 5995W        W21126   3.837   7.749   2.953 -0.0622  0.2599  0.1069
 5996W        W21127   1.271  16.343  14.297  0.0389  0.0101  0.0287
 5997W        W21128  17.005   9.752  11.978  0.2820  0.0710 -0.2955
 5998W        W21129  13.342  15.046   5.613 -0.0663  0.1316  0.0550
 5999W        W21130  15.040   6.017  14.046 -0.0509  0.0320 -0.0199
 6000W        W21131  14.881  15.229  11.974  0.1611 -0.2437 -0.0537
 6001W        W21132   5.153   0.049   2.375 -0.1186 -0.2356  0.0339
 6002W        W21133   4.526   3.860  12.066 -0.2498  0.1265  0.0381
 6003W        W21134  14.218   1.315  12.026 -0.1681  0.1651 -0.1881
 6004W        W21135   8.345   4.837  12.007  0.0842 -0.0464 -0.0942
 6005W        W21136   4.217   8.671   2.465 -0.1320 -0.2115 -0.1562
 6006W        W21137   0.708  13.240   2.685  0.0913 -0.1270  0.1220
 6007W        W21138  14.808  13.881   3.128  0.2980 -0.0265 -0.0061
 6008W        W21139   9.471  12.826  13.699  0.1010  0.2979 -0.1202
 6009W        W21140   2.974  16.303   1.195  0.0617 -0.0890  0.0829
 6010W        W21141  15.249   3.681  10.127  0.1731 -0.2910 -0.2794
 6011W        W21142  13.544  16.575   3.985 -0.1254  0.1414 -0.0722
 6012W        W21143   8.330   2.593  14.375 -0.0595  0.0742  0.0664
 6013W        W21144  17.008  15.432   1.990 -0.3929  0.1553  0.0462
 6014W        W21145  14.909   2.713   0.975 -0.1022  0.2028 -0.0115
 6015W        W21146   4.264   1.163   1.841  0.0837  0.1360  0.2943
 6016W        W21147  14.515   4.538   4.623 -0.2452  0.1170 -0.0974
 6017W        W21148  15.811   9.701   4.223  0.0042  0.0062 -0.0778
 6018W        W21149   3.744  10.944   4.593 -0.0181 -0.0928 -0.4052
 6019W        W21150  14.894   1.169  10.341 -0.0922 -0.2381  0.0244
 6020W        W21151  11.018  17.205  11.523 -0.0135 -0.0303  0.4002
 6021W        W21152  14.746   7.244   3.365 -0.2026 -0.0781  0.0077
 6022W        W21153  13.753  16.274   5.292  0.0841  0.4429 -0.1990
 6023W        W21154   4.905   8.989  14.555 -0.1437 -0.1125  0.2410
 6024W        W21155   7.246  11.809   1.062  0.3048 -0.4314 -0.4493
 6025W        W21156   4.124  15.388   2.528  0.2675 -0.1646  0.1193
 6026W        W21157   3.179  15.608   3.884 -0.2640  0.1605  0.1580
 6027W        W21158   1.016   2.733   2.777 -0.0755 -0.1202 -0.0450
 6028W        W21159  12.019   5.711   0.123 -0.1749 -0.1306 -0.0069
 6029W        W21160   8.718   9.763  12.631  0.0688 -0.0730 -0.2032
 6030W        W21161  10.734  17.271  15.164  0.2144 -0.2910  0.0840
 6031W        W21162   0.369   8.279  15.844  0.2507 -0.2223 -0.0803
 6032W        W21163   5.234   2.205  11.114 -0.0848  0.2571 -0.1891
 6033W        W21164  11.783  18.028   2.316 -0.1765 -0.0985  0.0516
 6034W        W21165   4.480  14.168   3.804  0.1631 -0.0712 -0.0210
 6035W        W21166  17.997   6.090   5.402 -0.1415  0.0820  0.1713
 6036W        W21167  14.260  11.146  11.630  0.1589  0.0224 -0.3066
 6037W        W21168  15.708  13.083   2.124 -0.4049  0.1773  0.1493
 6038W        W21169   9.215   1.147   1.944  0.0850  0.1480 -0.0236
 6039W        W21170   2.808   9.023   0.540 -0.0760  0.0620 -0.1480
 6040W        W21171  13.508   6.912   4.456  0.1803  0.1672 -0.0041
 6041W        W21172  15.801  10.696   1.488  0.0942  0.0950  0.0458
 6042W        W21173  11.827   5.581  14.734  0.2288  0.1632 -0.1593
 6043W        W21174   2.391   0.925   1.672  0.0386  0.6064 -0.2769
 6044W        W21175  11.134   1.219   3.280 -0.2590 -0.0634  0.2651
 6045W        W21176  17.923  12.945   0.052 -0.1693  0.2333 -0.0564
 6046W        W21177  13.289  17.077  10.451  0.5479 -0.3585 -0.2525
 6047W        W21178   9.152   5.358   5.570  0.3036  0.0599  0.0698
 6048W        W21179  17.018   2.821   0.760 -0.0155 -0.1206  0.3237
 6049W        W21180   2.769  12.415  14.493 -0.2982  0.1563  0.0732
 6050W        W21181  10.958   1.138   4.084  0.0833  0.0943  0.0411
 6051W        W21182   5.106   8.261  13.813  0.0237  0.3739  0.0064
 6052W        W21183  16.566   3.746   3.745  0.0570 -0.0385 -0.0203
 6053W        W21184   9.235  10.053  14.523  0.4368  0.0595 -0.4118
 6054W        W21185   2.519  11.139  14.379  0.1859 -0.0888  0.0450
 6055W        W21186  12.681   2.193   3.198  0.1248 -0.1097  0.0376
 6056W        W21187   8.558   5.931  11.656 -0.2875  0.1310  0.0665
 6057W        W21188   8.343  14.277   0.421 -0.3003 -0.0851  0.1013
 6058W        W21189  15.566   5.167  11.274  0.0045 -0.0359 -0.0663
 6059W        W21190   0.192  16.429   3.389  0.1049 -0.0860  0.1625
 6060W        W21191   4.315  18.151   0.784 -0.0250  0.0750  0.1100
 6061W        W21192   4.110  16.830  12.322  0.0565 -0.5048  0.2580
 6062W        W21193   7.274   1.316  12.052 -0.1317  0.1286 -0.0984
 6063W        W21194  16.138  12.616  12.666  0.0325  0.0077 -0.0637
 6064W        W21195   7.121   9.901  12.830  0.4843 -0.0258 -0.0358
 6065W        W21196   1.338   3.795   5.185 -0.0376 -0.2069  0.0118
 6066W        W21197   5.924   8.783   5.094 -0.0086 -0.0671 -0.1381
 6067W        W21198   7.441   2.874   3.959  0.0015 -0.2685  0.2602
 6068W        W21199  10.551  12.811  15.611  0.0483 -0.0789 -0.2390
 6069W        W21200   7.551  10.955  11.467  0.1012 -0.0140 -0.1197
 6070W        W21201  16.514   8.954  11.906  0.1036 -0.1519  0.2037
 6071W        W21202  15.198   4.212   0.677 -0.1724  0.3771 -0.1534
 6072W        W21203   0.694  11.023   1.456  0.3655  0.1937  0.0198
 6073W        W21204  11.444   2.893   3.019  0.3280  0.0463  0.0277
 6074W        W21205  11.493   2.102   2.269  0.1557 -0.1929  0.3133
 6075W        W21206   0.795   8.168   6.083  0.1910  0.0523  0.1844
 6076W        W21207   6.410   3.452   5.380  0.1788 -0.2282 -0.0304
 6077W        W21208   6.050   5.630  15.637  0.1614 -0.0522 -0.0896
 6078W        W21209  11.476   2.877   0.291 -0.2520  0.1742  0.4708
 6079W        W21210  11.700   6.214   3.424  0.0087 -0.0696  0.3731
 6080W        W21211   7.049   1.013  14.258 -0.0134  0.0615  0.0423
 6081W        W21212   4.177   2.524  12.713  0.1620 -0.0982 -0.2518
 6082W        W21213   3.769  12.254   3.522 -0.3058 -0.0939 -0.0653
 6083W        W21214   1.237   2.723   2.176  0.1352  0.0493 -0.2833
 6084W        W21215   6.491   4.511   1.542 -0.1135 -0.0398  0.1246
 6085W        W21216   8.062   4.700  13.517 -0.1533 -0.2759  0.1278
 6086W        W21217  17.110   0.768  15.683  0.0144 -0.1307 -0.3255
 6087W        W21218   4.423  14.917  14.207  0.3744  0.1760 -0.2058
 6088W        W21219  11.057  13.854   0.435 -0.2530 -0.0813  0.0298
 6089W        W21220   4.035   0.569   5.609  0.1432  0.2953 -0.2731
 6090W        W21221   5.301   1.774  10.747  0.3388  0.1317  0.0634
 6091W        W21222  18.022   7.461  12.786  0.2389 -0.1812  0.1110
 6092W        W21223   7.711  14.382  15.917 -0.0561 -0.0091  0.0108
 6093W        W21224   7.704  13.187   0.718 -0.1389 -0.0131 -0.0620
 6094W        W21225   5.370  16.607   5.034  0.2541  0.1805  0.0912
 6095W        W21226  11.646  10.868  11.921 -0.2763  0.1645  0.4583
 6096W        W21227  13.638   4.700  13.982  0.0775  0.1260  0.0998
 6097W        W21228  13.739  14.664  10.445  0.6097 -0.0456 -0.0378
 6098W        W21229   7.864  14.444   0.574 -0.1068 -0.0891 -0.2985
 6099W        W21230  17.694  11.644  12.126  0.0469  0.2019 -0.3601
 6100W        W21231   2.774  17.719   5.984  0.4558 -0.1527 -0.0377
 6101W        W21232   6.261  14.523  11.040 -0.0168 -0.0307 -0.1106
 6102W        W21233  15.174  11.975  14.844 -0.1120 -0.3369 -0.3899
 6103W        W21234  17.237   5.511   5.047 -0.1090 -0.2138 -0.0641
 6104W        W21235   2.709   3.127  11.936 -0.1305  0.2122  0.0398
 6105W        W21236   0.585   9.866   5.580  0.2507  0.0189  0.1679
 6106W        W21237   4.929   4.147  12.915  0.0819  0.1128 -0.1611
 6107W        W21238   6.576  12.388   0.673  0.0940 -0.3700  0.2131
 6108W        W21239   4.388  13.430  15.228 -0.0854  0.0384  0.1017
 6109W        W21240   6.636   6.215   4.257  0.1756 -0.4048 -0.0503
 6110W        W21241  17.689   2.158   3.423  0.0309 -0.2233  0.0871
 6111W        W21242  10.788  12.434   1.172 -0.3131 -0.3186  0.1291
 6112W        W21243  15.267   9.056   2.346 -0.1713 -0.2787 -0.0395
 6113W        W21244   1.027  10.011  15.643 -0.2103  0.1240 -0.0535
 6114W        W21245  12.718   9.691   1.240 -0.3329 -0.2250 -0.2429
 6115W        W21246   5.783   7.980   1.482 -0.0044 -0.3960 -0.0648
 6116W        W21247   7.075   3.024   0.023 -0.2221  0.0732 -0.1827
 6117W        W21248   0.039   5.533  16.004  0.1177 -0.0949 -0.2250
 6118W        W21249   4.249   2.134  16.123 -0.0090  0.0859 -0.1311
 6119W        W21250   7.990   3.351  11.563  0.1023  0.0345 -0.0954
 6120W        W21251   3.859  16.923  10.850  0.0950  0.1986 -0.0655
 6121W        W21252   4.407  12.105   5.539 -0.2734 -0.1610  0.0512
 6122W        W21253   8.472  17.495   2.392 -0.0057  0.1682 -0.0298
 6123W        W21254   2.276  10.786   2.175 -0.0853 -0.0135  0.1785
 6124W        W21255  17.263  17.440   1.396  0.3530  0.0843 -0.3519
 6125W        W21256  11.253   7.158   0.146 -0.2382 -0.1143  0.0572
 6126W        W21257   7.225  16.960  12.894 -0.0215 -0.3824  0.2355
 6127W        W21258   7.825  15.510   2.888 -0.4863  0.0880  0.0907
 6128W        W21259   0.521  17.640   0.377  0.0997  0.0895  0.0017
 6129W        W21260   4.334   0.969  13.368 -0.1754  0.0985 -0.1431
 6130W        W21261   9.104  15.057   0.358  0.2524  0.2270 -0.0945
 6131W        W21262   0.983   0.250   5.528  0.0156  0.2838  0.2223
 6132W        W21263   5.048  14.350   1.905 -0.1474 -0.1458 -0.0895
 6133W        W21264   2.998   2.039  15.868 -0.2443  0.1072  0.1413
 6134W        W21265   4.879   2.986   3.752  0.2566 -0.2605 -0.0721
 6135W        W21266  12.049   9.780  13.504  0.0979 -0.2262  0.0952
 6136W        W21267  10.273  10.600   2.772 -0.0940 -0.2195  0.1574
 6137W        W21268   7.635  17.178   9.743  0.3593  0.0528  0.0604
 6138W        W21269   6.948   5.153  11.329 -0.0260 -0.0256 -0.0124
 6139W        W21270  12.864  10.157  12.062 -0.1146  0.2486  0.0550
 6140W        W21271   3.532   9.727  14.778  0.1179  0.0717 -0.1727
 6141W        W21272  11.288  16.804  13.559 -0.0958  0.1614 -0.1269
 6142W        W21273   8.970   3.715  11.351  0.3171 -0.1469  0.1592
 6143W        W21274   5.089  11.934  12.709  0.0442  0.0314 -0.0911
 6144W        W21275   2.547   4.130   0.073  0.0530 -0.2206 -0.1361
 6145W        W21276  10.928  10.472   4.175 -0.1830  0.1170 -0.2819
 6146W        W21277   1.551  12.575   0.320 -0.1150 -0.0426  0.2753
 6147W        W21278  14.620   5.119   1.747 -0.1243 -0.0440  0.2893
 6148W        W21279   8.601   6.840   5.617 -0.1658 -0.0553  0.4017
 6149W        W21280  14.281   0.348  15.741  0.1596 -0.0741 -0.2027
 6150W        W21281   0.404  16.701   0.478  0.2272  0.0754  0.1051
 6151W        W21282  17.952  12.000  11.673 -0.1819 -0.0355  0.2421
 6152W        W21283   6.812  10.378  11.213  0.4004 -0.1589 -0.0301
 6153W        W21284  13.552  14.320   6.480 -0.3053 -0.0598 -0.0111
 6154W        W21285  13.090   8.470  15.929  0.1883  0.1532  0.0515
 6155W        W21286   7.785  17.694  13.482  0.0180  0.2207  0.0927
 6156W        W21287   0.739   3.587  10.609  0.1996 -0.0138  0.1145
 6157W        W21288  13.418   9.054   4.791  0.2034 -0.0239 -0.1958
 6158W        W21289   1.878  17.816  10.410  0.0689 -0.1097 -0.2811
 6159W        W21290   9.631   3.625   3.004 -0.0387 -0.1525  0.1693
 6160W        W21291   5.344  13.856  15.431 -0.0409 -0.1907 -0.0475
 6161W        W21292   0.235   0.096   5.994 -0.0661  0.0585  0.0170
 6162W        W21293  13.711   1.048   0.750  0.0005 -0.0512  0.2183
 6163W        W21294  15.946  16.381   2.368 -0.3673 -0.0749 -0.0900
 6164W        W21295  15.799  16.008  12.591  0.0307 -0.0947 -0.0675
 6165W        W21296   6.955   6.645   2.229 -0.0270  0.1931  0.3066
 6166W        W21297   3.254  16.437  10.493 -0.1497 -0.2323 -0.0096
 6167W        W21298   6.829  16.406   0.571  0.1753 -0.0286 -0.1606
 6168W        W21299   9.981  15.354   1.980 -0.1160 -0.0828 -0.1220
 6169W        W21300   1.811   9.634   0.583  0.0953 -0.1445  0.0345
 6170W        W21301  11.331   9.031   2.899 -0.1586  0.1404  0.0076
 6171W        W21302  12.406   3.298  12.087  0.0877 -0.0279 -0.1244
 6172W        W21303   6.257  12.412   3.704 -0.0152 -0.0100  0.1873
 6173W        W21304  17.422  15.091  13.864 -0.1271  0.2420  0.0510
 6174W        W21305  18.179   0.522   3.760  0.1814  0.0381  0.0554
 6175W        W21306  11.242  15.817  14.527  0.0937 -0.1770  0.1388
 6176W        W21307   6.451   6.739   2.303  0.1440 -0.1855 -0.1600
 6177W        W21308   6.851  11.246  14.730  0.0611 -0.0243 -0.3280
 6178W        W21309   1.432   4.467  16.024 -0.2081  0.0116 -0.0689
 6179W        W21310  16.388   5.355  12.834  0.1381 -0.2876 -0.3218
 6180W        W21311   2.713   4.023   2.075  0.1004  0.0815  0.0970
 6181W        W21312  11.520   3.197   5.440 -0.2616 -0.0343 -0.2741
 6182W        W21313   8.794   7.458  16.204  0.4032  0.0055 -0.2914
 6183W        W21314   0.085  16.342   0.355 -0.3993  0.2871  0.1483
 6184W        W21315  13.970   3.150  13.046 -0.1674  0.2903 -0.0235
 6185W        W21316   0.425   9.109  13.737  0.2920  0.2406 -0.0246
 6186W        W21317  17.335  16.290  11.255  0.0243 -0.1454  0.0788
 6187W        W21318   7.691   9.609   1.738  0.1839 -0.0642 -0.0118
 6188W        W21319   6.655  11.379  15.556  0.2369 -0.0134 -0.3590
 6189W        W21320   0.544   5.871  15.467 -0.2363 -0.0157  0.1343
 6190W        W21321   2.378  16.828  15.270  0.0581  0.2778  0.1719
 6191W        W21322   2.896   4.688   3.646 -0.2413 -0.0488 -0.1763
 6192W        W21323   5.203   4.972  14.798 -0.0166  0.2282  0.0099
 6193W        W21324   9.264   1.600  12.736 -0.3148 -0.1224  0.2862
 6194W        W21325   0.919  10.871   3.376 -0.0814  0.0868 -0.1961
 6195W        W21326   0.157   9.846   4.390 -0.0910 -0.1608 -0.3191
 6196W        W21327  10.536   8.675  14.716  0.1813 -0.1667  0.0791
 6197W        W21328  14.502   9.451  14.615  0.1723 -0.0237 -0.2191
 6198W        W21329  14.070   1.559  13.131  0.0181  0.0011 -0.2071
 6199W        W21330   5.018   9.610  15.237 -0.3729  0.0212  0.0608
 6200W        W21331   6.814   3.427  11.255  0.0731  0.2473 -0.0466
 6201W        W21332   6.348   6.233   3.372  0.1803 -0.0331  0.1232
 6202W        W21333   4.294  13.440   9.797  0.0587 -0.1818  0.4293
 6203W        W21334  14.579   6.800  15.067 -0.0230  0.1314 -0.1659
 6204W        W21335   1.190   7.727   4.926 -0.3428  0.0401  0.1586
 6205W        W21336   3.527  10.483   5.515  0.2027  0.1410 -0.2559
 6206W        W21337  16.805   3.581   2.156 -0.1163 -0.4140  0.1387
 6207W        W21338   2.639  15.619   4.520  0.3314 -0.1958 -0.0743
 6208W        W21339   5.813   2.031  13.379 -0.0708 -0.0531 -0.2729
 6209W        W21340   0.077   3.564   3.350 -0.3491 -0.3570  0.0580
 6210W        W21341  16.060   8.170   3.457  0.0123 -0.0518  0.3010
 6211W        W21342  15.982   4.838   3.718  0.1149  0.1668  0.1947
 6212W        W21343  15.595  13.466   2.447 -0.0521 -0.1309  0.0344
 6213W        W21344   5.196  12.119   2.055 -0.3349  0.0241 -0.0774
 6214W        W21345   2.364   5.269   1.102 -0.0580 -0.0791  0.4781
 6215W        W21346  13.284   8.009  15.659  0.3060 -0.2273  0.2685
 6216W        W21347   0.029   9.343  11.434 -0.2729 -0.1942  0.1308
 6217W        W21348   8.535   0.662  14.719  0.1183 -0.1062  0.0987
 6218W        W21349  11.579   2.818   6.564  0.0785 -0.1361  0.1495
 6219W        W21350  13.495  11.843   2.375  0.2764 -0.1612 -0.0059
 6220W        W21351   6.459   2.269   3.336  0.3812 -0.0863 -0.1239
 6221W        W21352   7.848  15.924   0.500  0.1494  0.1513  0.0126
 6222W        W21353   0.012  15.413   2.086 -0.0856  0.1149 -0.0358
 6223W        W21354  11.887   8.623  16.102 -0.1724  0.3031 -0.0414
 6224W        W21355  15.586  11.135  10.917 -0.2717  0.0869 -0.0994
 6225W        W21356  13.092   4.672   2.859 -0.0479  0.0340  0.4104
 6226W        W21357   1.432  11.460  13.720  0.0844 -0.1923 -0.0183
 6227W        W21358   6.603   8.212   2.121  0.0234 -0.0871 -0.1052
 6228W        W21359  17.307   5.604   2.743 -0.2864  0.2094 -0.0541
 6229W        W21360  11.712   6.208   5.922 -0.1401  0.1647 -0.0294
 6230W        W21361   4.352  13.587   4.699  0.1885  0.0154 -0.3701
 6231W        W21362  15.423   4.247  13.253 -0.2423  0.0105  0.0743
 6232W        W21363   0.620   8.410   1.328 -0.2171  0.3628 -0.2812
 6233W        W21364   3.899  15.478   4.623  0.1657  0.6380 -0.2870
 6234W        W21365   7.316  12.079  15.548 -0.1393 -0.0599 -0.1526
 6235W        W21366  14.981  16.682  15.333 -0.2149 -0.1053  0.0804
 6236W        W21367  16.926   2.231   3.425 -0.0133  0.3382  0.0037
 6237W        W21368  11.844   7.113   1.912 -0.3290 -0.2674 -0.0413
 6238W        W21369  18.094  15.345  11.851 -0.0096 -0.1738  0.2142
 6239W        W21370  17.609  13.585  10.699  0.0641  0.2350  0.2485
 6240W        W21371  18.023   6.218  11.956  0.3213 -0.0191 -0.0077
 6241W        W21372  17.618   1.540  15.949 -0.0534  0.2035 -0.1943
 6242W        W21373  10.526  15.790  12.411  0.2931 -0.0003  0.1907
 6243W        W21374  17.608   3.621   0.756  0.0514  0.0998 -0.2748
 6244W        W21375   1.128   5.337   0.417 -0.1151 -0.0531  0.0387
 6245W        W21376  17.895   6.520   2.040  0.3456  0.0794  0.3145
 6246W        W21377   0.353  12.681  14.757  0.0104 -0.2785  0.0454
 6247W        W21378   6.198   0.530   3.387 -0.2747 -0.1962 -0.1555
 6248W        W21379   7.573   7.162  11.680  0.0795  0.2261  0.0582
 6249W        W21380  13.625  10.583  13.823 -0.2624 -0.0466 -0.0424
 6250W        W21381   6.107  12.678   0.440  0.0734 -0.1805 -0.1249
 6251W        W21382  15.012   6.801   6.127 -0.1505  0.0096  0.0436
 6252W        W21383  12.237  12.967   0.843 -0.2524 -0.1275 -0.1747
 6253W        W21384  16.861   5.756  15.205  0.0608  0.0822  0.1041
 6254W        W21385  16.743  16.387   1.261 -0.0459 -0.3053  0.0621
 6255W        W21386   6.838   5.916  15.177  0.0974 -0.0490 -0.0453
 6256W        W21387  15.547  15.852   3.265 -0.0374  0.0096  0.0435
 6257W        W21388   7.912   0.707  11.087  0.0527 -0.1590 -0.3565
 6258W        W21389   4.902   6.558  12.804 -0.5589  0.0637 -0.0775
 6259W        W21390   6.572   6.881  13.480 -0.3637  0.0890 -0.0605
 6260W        W21391   1.176  12.556  13.086 -0.2212 -0.2121  0.0929
 6261W        W21392   8.802  13.446  12.787  0.0388  0.1542  0.0297
 6262W        W21393  15.831  15.222   3.055  0.0085  0.0060 -0.2665
 6263W        W21394  10.317  15.011  10.461  0.0645  0.0984 -0.2893
 6264W        W21395  15.338   6.805  12.063 -0.3608  0.3838 -0.2426
 6265W        W21396   6.415  11.604  14.651 -0.0909  0.1903 -0.0931
 6266W        W21397   9.722  10.116   1.057  0.0717 -0.1376  0.0137
 6267W        W21398   2.368   4.757   2.432  0.1043 -0.1620 -0.0447
 6268W        W21399  11.922   3.633   1.057 -0.1836 -0.0446 -0.1654
 6269W        W21400   3.115   3.154  10.772 -0.0533  0.1562  0.1144
 6270W        W21401  17.690  10.075  11.029  0.2091 -0.0286 -0.0659
 6271W        W21402   0.163   4.830   2.024  0.0377  0.2852 -0.1991
 6272W        W21403   3.333   9.377  12.441  0.0654  0.0472 -0.0022
 6273W        W21404   1.448   0.434   5.472 -0.0011 -0.1797 -0.1346
 6274W        W21405  17.282  18.094  11.403 -0.3056 -0.1727 -0.0294
 6275W        W21406   6.137   0.139   1.981 -0.0145  0.0688 -0.2307
 6276W        W21407   2.099   2.701   3.531 -0.0202  0.2402 -0.4793
 6277W        W21408   0.340   3.423   5.335 -0.1057 -0.0047  0.1668
 6278W        W21409   1.169   2.893   9.978 -0.0124 -0.1445  0.4145
 6279W        W21410  11.566   3.975   2.483  0.0917  0.0114  0.3434
 6280W        W21411  10.479   7.617  13.665 -0.0185 -0.0919 -0.2636
 6281W        W21412  12.158   5.837   3.226  0.1575  0.0828  0.0618
 6282W        W21413   3.307  16.297  13.811  0.0870  0.0984 -0.0113
 6283W        W21414  14.519   3.904   2.392 -0.0170  0.0163 -0.4243
 6284W        W21415  13.407  16.321  14.746 -0.1261  0.0664  0.1038
 6285W        W21416   7.064   2.214   1.486  0.2685 -0.1137 -0.1471
 6286W        W21417  10.993   1.986   1.676 -0.0706 -0.0592  0.1149
 6287W        W21418   6.419   4.160  14.924  0.1084 -0.0274  0.1268
 6288W        W21419   7.428   8.754  15.468 -0.0826  0.0431 -0.4067
 6289W        W21420   9.428   1.864  16.099 -0.0173 -0.2931  0.2181
 6290W        W21421  10.613  17.003  11.156  0.1543 -0.2098  0.0451
 6291W        W21422  12.347   2.089   1.556 -0.2432 -0.2282 -0.0806
 6292W        W21423  17.977   1.114   2.432  0.2404 -0.0116 -0.2884
 6293W        W21424   7.079   5.875   4.046 -0.3924  0.0160 -0.0427
 6294W        W21425  10.408  11.096  13.864  0.0020 -0.0369  0.0238
 6295W        W21426   4.633  17.434  15.488  0.1231 -0.1310 -0.0555
 6296W        W21427   3.424  10.659   1.427 -0.0931 -0.0576  0.3301
 6297W        W21428  17.459   0.284   5.271  0.1132 -0.2001  0.1468
 6298W        W21429   2.972   6.401  16.066 -0.0389  0.2291 -0.3362
 6299W        W21430  15.104  11.228   4.741 -0.3160 -0.2713 -0.1619
 6300W        W21431   8.155  15.505   3.933  0.1269  0.0956  0.1967
 6301W        W21432   0.960   3.008  16.165  0.3673 -0.0532  0.0527
 6302W        W21433  10.577  12.369   2.121  0.0100 -0.0034 -0.1907
 6303W        W21434   4.401   2.423   5.901 -0.2853 -0.1509 -0.0077
 6304W        W21435   6.216   5.503   4.891  0.2048 -0.0424  0.1088
 6305W        W21436   0.342   7.628   4.803 -0.0467 -0.0859 -0.0821
 6306W        W21437   9.006   9.679  13.338 -0.0067  0.3812  0.0521
 6307W        W21438  10.030   6.211   1.193  0.2705  0.3046 -0.0315
 6308W        W21439  16.024  18.181  11.222  0.0970  0.0499  0.1185
 6309W        W21440   3.039  12.527   0.327  0.1663  0.2835 -0.1194
 6310W        W21441  10.936   5.381  13.107 -0.1010 -0.0354  0.0138
 6311W        W21442  15.710   6.346   4.187 -0.1649 -0.4997  0.0044
 6312W        W21443   1.807  10.388   3.796  0.2020  0.1327 -0.0231
 6313W        W21444  12.219   2.801   4.862 -0.3220 -0.1681 -0.0064
 6314W        W21445  12.133   4.592   5.062  0.1694 -0.0747  0.0661
 6315W        W21446  12.808  12.750   4.737  0.0824  0.0166  0.0603
 6316W        W21447  11.304   1.235   1.783 -0.1485  0.2365 -0.0764
 6317W        W21448   5.596   2.758   1.926  0.0074  0.4254 -0.1881
 6318W        W21449   2.341   4.803   0.195  0.1251 -0.0954  0.1821
 6319W        W21450   6.793  11.655  12.609 -0.0391  0.3453  0.2720
 6320W        W21451  14.485   9.782  16.060 -0.1520 -0.1155 -0.6580
 6321W        W21452   8.068  13.966  15.013  0.1368  0.2791  0.2109
 6322W        W21453  13.182   2.094  12.499 -0.0661  0.0044 -0.0861
 6323W        W21454  11.264   4.212  16.047 -0.0507 -0.1721 -0.1633
 6324W        W21455  14.314   5.199  11.568  0.0838 -0.1933 -0.1734
 6325W        W21456   7.713  13.803  16.117 -0.3851 -0.1830  0.2028
 6326W        W21457  16.260   5.597   0.286  0.1433 -0.0786 -0.0998
 6327W        W21458  12.029  16.594  14.114  0.0203  0.0536 -0.0065
 6328W        W21459  10.532  17.560  10.428  0.1511 -0.0987  0.0448
 6329W        W21460   8.255   9.349   2.349  0.2825 -0.1662 -0.1316
 6330W        W21461  14.897  14.665   4.091 -0.2142 -0.1549 -0.1511
 6331W        W21462   2.487   0.316   3.905  0.1129  0.0557  0.0752
 6332W        W21463  10.203   4.765  12.528 -0.0911  0.2029  0.1138
 6333W        W21464   9.240   8.660  12.073  0.3236  0.2599  0.1855
 6334W        W21465  11.305  17.111   4.000 -0.1134  0.3852  0.2648
 6335W        W21466  16.864   9.095  15.317 -0.3722 -0.2312 -0.0322
 6336W        W21467  16.917  11.130   2.759  0.2270  0.2104  0.3739
 6337W        W21468  14.606   9.643  14.074 -0.0555 -0.0894 -0.1559
 6338W        W21469  16.146   5.509   2.545 -0.1415  0.2466  0.0326
 6339W        W21470  16.347  17.579  11.090 -0.0686 -0.1846  0.1718
 6340W        W21471   4.811  10.300  14.287  0.2370 -0.0477 -0.0826
 6341W        W21472  10.304  11.059   1.765  0.0794  0.0916  0.1636
 6342W        W21473  13.572   2.005  15.411 -0.0549 -0.0078 -0.1378
 6343W        W21474  14.067  13.262  13.030 -0.1788  0.0867 -0.2643
 6344W        W21475   6.432  17.009   0.240  0.3568  0.0829  0.2489
 6345W        W21476  10.102   8.778   2.617 -0.0171 -0.2626 -0.1080
 6346W        W21477  12.271  12.413   2.670  0.1508 -0.3091 -0.1373
 6347W        W21478  10.671   0.983  15.340 -0.0681  0.1610  0.1300
 6348W        W21479  10.749  15.280  15.557 -0.1435  0.4931 -0.0226
 6349W        W21480  17.270  12.929   0.660  0.3802 -0.0202 -0.1048
 6350W        W21481   3.071   6.447  10.497  0.0683 -0.2657 -0.2737
 6351W        W21482   3.085  11.078   1.194  0.3595 -0.4750  0.2697
 6352W        W21483   8.088   7.693   2.655 -0.1507  0.1055 -0.3962
 6353W        W21484  10.304   4.333  13.908  0.2603 -0.2872 -0.3321
 6354W        W21485  11.132   7.021  13.302  0.0858 -0.2434  0.2864
 6355W        W21486   1.902   8.447  15.130 -0.0723 -0.0276  0.0800
 6356W        W21487   7.342  16.128  14.365  0.1735  0.1940 -0.0113
 6357W        W21488  13.917   9.020   0.040 -0.3575 -0.1811  0.2345
 6358W        W21489   9.396  12.330  15.541  0.0573 -0.0934 -0.4109
 6359W        W21490   2.649  11.791   4.705  0.0137 -0.0478  0.1670
 6360W        W21491  10.780  12.914  12.954 -0.4010 -0.3850  0.0861
 6361W        W21492   1.366  15.297  12.913  0.0964 -0.1533  0.1133
 6362W        W21493   9.402  11.302   5.769 -0.0247 -0.0541  0.0737
 6363W        W21494   5.115   4.933  14.274  0.0586 -0.0540 -0.1955
 6364W        W21495  17.479   8.737   2.682  0.4644 -0.0689  0.0794
 6365W        W21496   3.836  17.548   2.264  0.0813 -0.0118 -0.2227
 6366W        W21497   9.189   4.174  11.554 -0.0824 -0.0621 -0.0704
 6367W        W21498  12.648  16.315   3.394 -0.0105  0.4454  0.0382
 6368W        W21499  11.015  11.605   4.333 -0.0188 -0.2326  0.1700
 6369W        W21500   8.761   2.762  13.534 -0.2230  0.0583 -0.1484
 6370W        W21501  13.834   9.037  11.535 -0.2420  0.0193  0.0376
 6371W        W21502   7.415  17.361  10.862 -0.2039 -0.2088  0.1871
 6372W        W21503   4.009   0.871  16.145  0.0823  0.0214 -0.1310
 6373W        W21504   5.979   2.845   0.884  0.2867  0.0116 -0.0642
 6374W        W21505  16.346   5.872  16.124 -0.0595 -0.0283 -0.0594
 6375W        W21506   5.147   4.460  14.913  0.0221 -0.0050  0.1490
 6376W        W21507  13.391   3.205   2.407 -0.0838 -0.0102 -0.1627
 6377W        W21508  17.726   0.189  16.069  0.1411  0.0739 -0.0736
 6378W        W21509   9.723  16.078   1.577 -0.0259  0.0471  0.0844
 6379W        W21510   5.857  11.216  13.676 -0.0113  0.0945 -0.1046
 6380W        W21511  14.065   4.351   4.708  0.1859 -0.0381 -0.1866
 6381W        W21512  17.158   6.499   0.262 -0.0451 -0.2453  0.1517
 6382W        W21513  12.909   3.254   2.623  0.1362  0.4192 -0.0916
 6383W        W21514  16.533   6.844  14.328  0.1231 -0.0339  0.1610
 6384W        W21515   6.121   5.681   5.403  0.1248 -0.0860 -0.0074
 6385W        W21516   3.335  11.432   1.878 -0.0549 -0.3399 -0.2001
 6386W        W21517  14.337  13.058  15.837  0.2573  0.0933 -0.0125
 6387W        W21518   1.605  15.910  13.317  0.0982 -0.3071  0.3157
 6388W        W21519  16.616  14.384   5.010 -0.2696 -0.2568  0.2242
 6389W        W21520   0.721   0.564  15.544 -0.2882  0.1501  0.1419
 6390W        W21521   6.367   9.933  13.191 -0.1545  0.2032  0.2742
 6391W        W21522  17.072  13.598  12.916  0.3085  0.0470  0.2476
 6392W        W21523  12.514   6.159  12.778 -0.1461  0.1082  0.2659
 6393W        W21524   3.298   2.630   3.547 -0.1661 -0.1373  0.0969
 6394W        W21525   6.148  17.576   3.845 -0.0920 -0.3620 -0.0222
 6395W        W21526   3.357  15.118   1.018  0.0073  0.2570  0.2312
 6396W        W21527   6.422  10.675   3.454  0.0885  0.0285  0.0723
 6397W        W21528  12.520   7.271  15.350  0.0031 -0.1675  0.1077
 6398W        W21529   8.621  17.388   4.463  0.2222 -0.0064  0.2932
 6399W        W21530   1.399   6.437  12.925  0.5443  0.0612  0.0101
 6400W        W21531   7.078  15.027  13.161 -0.1965  0.2523 -0.3424
 6401W        W21532  17.643  16.178  16.059  0.0839 -0.0149 -0.0941
 6402W        W21533  12.392  15.164   1.422  0.1998 -0.2060  0.0046
 6403W        W21534   1.793   6.531  11.581 -0.0391 -0.0358 -0.1203
 6404W        W21535  11.098  10.922   0.199 -0.0054  0.2092  0.2518
 6405W        W21536  14.706  13.562  14.573 -0.2677 -0.1421 -0.0601
 6406W        W21537  10.405   6.716  13.791 -0.1110  0.1195  0.0413
 6407W        W21538   2.179  16.261  12.572  0.0200 -0.0617 -0.0206
 6408W        W21539  11.191   1.735  11.563 -0.1047  0.0315  0.1780
 6409W        W21540   7.837   5.791   2.277 -0.2290  0.1583  0.2059
 6410W        W21541   5.308   7.130   0.177 -0.0464 -0.0133  0.1688
 6411W        W21542  10.337   1.799   4.554 -0.1027  0.0831  0.2659
 6412W        W21543   4.637   3.907  15.314 -0.2427  0.0488  0.1064
 6413W        W21544   0.693  16.055   1.789  0.1566 -0.0004 -0.0404
 6414W        W21545  17.491   7.249   1.053  0.0437  0.1437 -0.0026
 6415W        W21546  13.953   3.121   0.423  0.0714 -0.0588  0.2826
 6416W        W21547  15.064   7.420  15.160 -0.0967 -0.0971 -0.0502
 6417W        W21548   1.856   6.032  11.554  0.2408  0.1007  0.1157
 6418W        W21549   5.554  16.378  14.130 -0.2467 -0.0359  0.0462
 6419W        W21550   3.982   2.233  15.643 -0.0747 -0.0450 -0.0994
 6420W        W21551  17.279   0.882   5.096 -0.1625 -0.0572  0.2503
 6421W        W21552  11.527   4.209  12.662 -0.2679  0.1691  0.2930
 6422W        W21553  15.669   5.435   5.320 -0.1379 -0.0822  0.0941
 6423W        W21554  11.600  12.249   1.820  0.3231  0.0728 -0.1275
 6424W        W21555   7.555   9.276   5.304 -0.0880 -0.0396 -0.1516
 6425W        W21556   9.465  17.194  15.881  0.0791 -0.0637 -0.1660
 6426W        W21557   2.718   5.310  13.533 -0.0228  0.0906  0.1228
 6427W        W21558   2.968   2.582  16.076 -0.1189 -0.1125  0.2681
 6428W        W21559   7.930   6.514   0.392 -0.0122  0.0499 -0.2290
 6429W        W21560   8.573   1.946   2.178 -0.0389  0.0768 -0.1665
 6430W        W21561  10.234   3.157  10.802  0.0144  0.1181  0.0074
 6431W        W21562   9.905  15.282  13.004 -0.0289 -0.1719 -0.0908
 6432W        W21563   6.375   4.743  13.630 -0.0921 -0.0149  0.4392
 6433W        W21564   2.242   8.064  13.243 -0.1157 -0.0334  0.0442
 6434W        W21565   2.880  13.439   0.441  0.1870 -0.3888 -0.1208
 6435W        W21566  16.922  12.992   2.599 -0.0939 -0.0533 -0.1806
 6436W        W21567  13.720   9.180   3.415  0.3156  0.2274  0.3242
 6437W        W21568  14.203  14.256  13.474  0.0266 -0.5111  0.2793
 6438W        W21569   7.495   8.993   4.529  0.1365 -0.1574  0.0681
 6439W        W21570  12.725   5.096   2.761  0.1007 -0.0787 -0.1334
 6440W        W21571   2.764  15.382   4.083 -0.2702 -0.0846  0.2792
 6441W        W21572   4.639   2.104  11.076 -0.1133 -0.0629  0.2034
 6442W        W21573   3.394  10.777   2.631 -0.1532 -0.0167 -0.1429
 6443W        W21574   6.525  10.563  14.329 -0.0205 -0.0515 -0.1670
 6444W        W21575   5.934  17.523  12.109 -0.0410  0.5867 -0.1832
 6445W        W21576   3.500  13.906  12.257 -0.0112  0.0565  0.1977
 6446W        W21577   7.254   2.378   3.997  0.2010  0.0458  0.1539
 6447W        W21578   2.404   6.239  11.979 -0.0277  0.1261 -0.0623
 6448W        W21579  10.678  12.021  14.556  0.1849  0.2036  0.0643
 6449W        W21580  10.913   9.795  13.915 -0.0366  0.2766 -0.2509
 6450W        W21581   2.653  15.454   2.345 -0.0024  0.0138 -0.3016
 6451W        W21582  17.154  10.559  13.146  0.0446  0.0324  0.0459
 6452W        W21583  11.535   7.981   0.503 -0.1957 -0.1975 -0.0847
 6453W        W21584  13.972   1.019  12.374 -0.0974  0.0744  0.0043
 6454W        W21585   4.324  18.000   4.460 -0.1723 -0.1088 -0.1930
 6455W        W21586   9.628  17.228  11.976 -0.0088  0.2155  0.0100
 6456W        W21587  10.185  12.702   2.030 -0.1202  0.4449  0.0407
 6457W        W21588   1.746   1.778  10.634  0.1524  0.5365  0.1752
 6458W        W21589  16.548  16.595   3.947  0.0750  0.1074  0.2459
 6459W        W21590   4.964   8.289  15.105  0.3435 -0.3308 -0.0590
 6460W        W21591  13.568  14.525   2.624  0.0118 -0.0695  0.3381
 6461W        W21592   1.948  15.106   4.597  0.1915  0.1282 -0.4282
 6462W        W21593  10.165   5.689  14.211  0.0537  0.1345 -0.1982
 6463W        W21594   0.699   1.278   2.066 -0.1734  0.2678 -0.0372
 6464W        W21595   4.719  16.644  15.246  0.0569  0.3229  0.1648
 6465W        W21596   1.031  12.399   0.614 -0.2160 -0.3597 -0.0446
 6466W        W21597  16.096   5.216  13.609  0.3533  0.0179 -0.3513
 6467W        W21598  10.056  16.692   3.506  0.1661  0.2957  0.0936
 6468W        W21599  11.559  15.686   1.748  0.2893  0.3665  0.0071
 6469W        W21600   5.891   6.648   0.720 -0.1974 -0.0156  0.0211
 6470W        W21601   6.286  10.014  12.342  0.0453  0.1402  0.1562
 6471W        W21602  10.782   3.036   4.176  0.0131 -0.0316 -0.0655
 6472W        W21603   0.053  10.410   1.715 -0.0800 -0.0546  0.0049
 6473W        W21604  13.122  13.540   2.717  0.1406 -0.0561 -0.0649
 6474W        W21605   2.288   5.988   1.682 -0.2139  0.2747  0.1697
 6475W        W21606  10.805   1.765   0.391 -0.2530  0.1015  0.2578
 6476W        W21607  12.160   3.516   3.575  0.2841 -0.0255 -0.1589
 6477W        W21608  11.061   8.863  11.890  0.0030  0.1347 -0.2651
 6478W        W21609  10.708   1.668  14.570 -0.0311 -0.2978  0.1346
 6479W        W21610  12.357   7.730  12.907 -0.2147 -0.0137 -0.0109
 6480W        W21611   7.418   3.973  13.440 -0.0455  0.1038  0.0285
 6481W        W21612   2.445   3.257   0.056  0.1474  0.0135 -0.5510
 6482W        W21613   9.618   9.494   2.914  0.1388  0.1152 -0.0275
 6483W        W21614  10.712   7.114  13.576 -0.0578 -0.2072 -0.2331
 6484W        W21615  16.867  16.752   5.843  0.0491 -0.0217  0.0479
 6485W        W21616   7.266  11.841  11.681 -0.0611 -0.0689  0.0838
 6486W        W21617  15.919  13.031  11.134  0.0576  0.4533 -0.2613
 6487W        W21618   1.889   8.069   4.462  0.0255 -0.2043 -0.2623
 6488W        W21619   2.533   6.608  15.973 -0.1487  0.0372 -0.1112
 6489W        W21620  17.696   2.438  13.029  0.0244  0.0227  0.1591
 6490W        W21621   0.893  14.249  15.857 -0.0793 -0.1541 -0.0037
 6491W        W21622   4.843  17.444   2.313 -0.2798  0.2253  0.1774
 6492W        W21623   8.978   1.730   0.639 -0.1513 -0.0931 -0.0598
 6493W        W21624   0.976   0.785   2.982 -0.0217 -0.0740 -0.1125
 6494W        W21625   0.236   0.948  16.142 -0.0809 -0.0692  0.0053
 6495W        W21626  16.031   5.906   2.821  0.0890  0.1059 -0.0753
 6496W        W21627  12.890  15.981  14.577  0.0651  0.0882  0.0530
 6497W        W21628   6.229   2.554  14.620 -0.2363 -0.0037  0.1120
 6498W        W21629   0.053  13.792   0.824  0.3715  0.0075 -0.1033
 6499W        W21630   8.836  15.140  12.068 -0.2993  0.0953 -0.1944
 6500W        W21631  13.612  18.124   1.554  0.2218  0.1091  0.2815
 6501W        W21632  10.727   1.874  12.787 -0.0848  0.2022 -0.1944
 6502W        W21633  10.488  14.077  14.908  0.0471 -0.0981  0.1098
 6503W        W21634  12.838  10.862   5.641 -0.0076  0.1346 -0.0883
 6504W        W21635  14.404  11.331   0.687  0.0766 -0.1824 -0.0380
 6505W        W21636  12.773  12.265   5.381  0.0586 -0.2494 -0.1551
 6506W        W21637  17.966  16.252  13.821 -0.2911 -0.0495  0.0431
 6507W        W21638   0.138   9.596  15.289 -0.0752  0.0304  0.0704
 6508W        W21639   8.697  13.963   3.195  0.0420  0.1877 -0.1060
 6509W        W21640  18.053   1.944  12.045  0.0723 -0.0751  0.0899
 6510W        W21641  10.194  10.461  12.670  0.1285 -0.2242 -0.1826
 6511W        W21642   3.378   8.190  11.582  0.1898 -0.1155 -0.4259
 6512W        W21643  17.429   2.877   0.452  0.1296  0.2545 -0.0652
 6513W        W21644  10.327   0.157  14.235 -0.0418  0.2121 -0.0876
 6514W        W21645  14.205  16.028   1.311  0.1515 -0.0271  0.0969
 6515W        W21646  16.811  17.667   6.018  0.1023 -0.0152  0.2821
 6516W        W21647   2.760   8.088   2.275 -0.1906  0.1199  0.4153
 6517W        W21648  12.046  17.305   3.592 -0.1250  0.2794 -0.0642
 6518W        W21649  11.289   7.991   1.681 -0.0140 -0.0067 -0.2467
 6519W        W21650   0.622  14.336   1.150  0.4422 -0.0612  0.4714
 6520W        W21651  17.971   4.157   2.583 -0.0414  0.0756 -0.0132
 6521W        W21652   1.864   5.329  15.189  0.0601  0.0469 -0.2573
 6522W        W21653   9.005  11.178   0.779 -0.1057 -0.4797  0.2383
 6523W        W21654  10.045   8.617  12.265  0.1480  0.2940 -0.0092
 6524W        W21655   1.649   8.602  14.737 -0.1427 -0.2823  0.0628
 6525W        W21656  12.660   9.087   3.622 -0.0822  0.1373 -0.0657
 6526W        W21657  12.987   5.548   4.946 -0.2694 -0.2693  0.2886
 6527W        W21658  15.988  11.107   5.306  0.0676  0.0052 -0.1631
 6528W        W21659  14.818  15.267   2.220  0.2088  0.5041  0.0371
 6529W        W21660  15.015   5.935   5.835 -0.1125  0.2229 -0.2915
 6530W        W21661  12.316  10.959   0.161 -0.1555  0.0889  0.2005
 6531W        W21662  12.053  11.373   2.728 -0.1031 -0.2133  0.3216
 6532W        W21663  10.421  14.559   2.094  0.2762  0.0412  0.1485
 6533W        W21664   3.908  17.326  15.903 -0.2425  0.2569  0.2990
 6534W        W21665  16.666   7.411  11.237  0.0549  0.1470  0.0659
 6535W        W21666  11.138  17.477   4.925 -0.0750 -0.0057  0.4458
 6536W        W21667   3.391  16.791  11.331  0.3200  0.1055 -0.0888
 6537W        W21668   1.451  16.579   1.291 -0.0133 -0.1840  0.2412
 6538W        W21669  12.882   1.903  15.871 -0.0760 -0.0691  0.1468
 6539W        W21670   1.190   9.212   0.225  0.1176  0.1890 -0.0563
 6540W        W21671  15.682  15.269  14.780 -0.1488 -0.0821 -0.1409
 6541W        W21672   0.379  12.769  12.917 -0.1796 -0.3826  0.2121
 6542W        W21673  18.119   1.875  11.546 -0.0905 -0.0654  0.0767
 6543W        W21674  11.985  18.006  13.157  0.0437 -0.0659  0.1486
 6544W        W21675  13.320   2.854  12.132 -0.2464 -0.1181 -0.1985
 6545W        W21676  15.951  12.110   2.097 -0.0882 -0.0374 -0.0969
 6546W        W21677   1.264   3.299   6.077 -0.2263 -0.0905 -0.3955
 6547W        W21678  16.290   2.398  15.109  0.0313 -0.0994 -0.2023
 6548W        W21679  13.621   6.980   1.100 -0.0022 -0.0598 -0.0989
 6549W        W21680   6.565  16.968   1.867  0.0018 -0.0629  0.0109
 6550W        W21681   7.952  15.650  12.349 -0.3236  0.2094  0.1830
 6551W        W21682   9.484  16.389  11.819  0.1497  0.0540  0.0242
 6552W        W21683  10.335   2.404  13.837  0.0557 -0.3288  0.2649
 6553W        W21684   9.666   9.367  15.291  0.4242 -0.1321 -0.0927
 6554W        W21685  14.710   2.541  12.685  0.0451 -0.0376 -0.0675
 6555W        W21686   8.417  16.826   5.124 -0.2326 -0.1499  0.3566
 6556W        W21687   8.634   0.778   1.524  0.3307 -0.0733 -0.1247
 6557W        W21688  17.914   6.954   3.713 -0.4409  0.0818  0.0084
 6558W        W21689  11.426   5.093   2.971  0.0349  0.1058 -0.1447
 6559W        W21690   4.033   2.797   3.303 -0.2363 -0.1697 -0.0359
 6560W        W21691   8.228  15.395   0.681  0.0973  0.2638 -0.1108
 6561W        W21692  11.113   4.047  11.906 -0.2879 -0.0743 -0.0993
 6562W        W21693   7.872  16.354   0.645 -0.3980 -0.3489 -0.1389
 6563W        W21694  13.482   0.860   1.156 -0.0172  0.1260 -0.1799
 6564W        W21695  13.293  12.526   0.741  0.2426  0.1262  0.3022
 6565W        W21696   8.123  12.885   3.519 -0.2573 -0.0769  0.3697
 6566W        W21697   2.593   2.914   4.355  0.1600  0.0397  0.2952
 6567W        W21698  10.561   2.157   0.298  0.0893 -0.0805 -0.2506
 6568W        W21699   9.854  11.697  14.118 -0.1684 -0.0869  0.0682
 6569W        W21700  17.342   7.159   3.677 -0.2975 -0.0445  0.1130
 6570W        W21701   5.389   0.964   1.186  0.0566 -0.1563 -0.1007
 6571W        W21702  12.635   8.046   1.130  0.1422 -0.0594  0.1364
 6572W        W21703  10.383  15.453   3.142  0.1701 -0.4690  0.1566
 6573W        W21704   4.412   9.519  11.397 -0.2911 -0.0034  0.2220
 6574W        W21705  10.905  17.435   4.084 -0.0834  0.0150  0.2578
 6575W        W21706  14.820  11.652   4.467 -0.1282  0.1588 -0.1084
 6576W        W21707   8.210  11.461  11.578 -0.4003 -0.1678 -0.0510
 6577W        W21708   0.860  14.878  14.868  0.1300 -0.1052 -0.2400
 6578W        W21709   6.833   3.911   0.037 -0.1376  0.3510 -0.1818
 6579W        W21710   6.675   0.015  12.193 -0.0569 -0.0152  0.1406
 6580W        W21711  14.902   5.936  15.030  0.4412  0.4978  0.3548
 6581W        W21712   2.953   9.147  12.723  0.0163 -0.1467  0.0707
 6582W        W21713   4.878   4.375  15.402 -0.0302 -0.0944 -0.4072
 6583W        W21714   8.166  17.735   2.965  0.3582  0.3045 -0.0952
 6584W        W21715   2.642   5.207   5.397 -0.1833 -0.1737 -0.0352
 6585W        W21716  17.606  13.158   3.161 -0.2884 -0.1741 -0.1188
 6586W        W21717   7.517  17.967  14.403  0.2129 -0.0230 -0.0085
 6587W        W21718  17.877   8.405   2.982 -0.1809  0.1022  0.0009
 6588W        W21719  13.783   2.478  15.476  0.1981  0.1138 -0.2705
 6589W        W21720  14.910  10.433   4.851 -0.4105 -0.1108 -0.0107
 6590W        W21721   6.360  11.098   0.055 -0.1942  0.2213  0.1592
 6591W        W21722   8.750   4.356   2.540  0.5347 -0.3449 -0.1106
 6592W        W21723   0.351   2.210   2.169 -0.0231 -0.2134 -0.3040
 6593W        W21724   0.704   8.651  14.969 -0.0083  0.3056  0.1757
 6594W        W21725  13.653  17.253   5.167  0.0360 -0.3616 -0.5467
 6595W        W21726  16.338  17.948  12.446 -0.1009 -0.0256  0.2317
 6596W        W21727   4.870   2.426  15.281  0.1481  0.1251 -0.2463
 6597W        W21728  17.095  15.351  12.799  0.1493 -0.1264  0.0218
 6598W        W21729  16.845   5.524   2.968  0.1639  0.0364 -0.3050
 6599W        W21730   5.885   6.530  15.287  0.0637  0.1973 -0.0680
 6600W        W21731   1.234   5.648   1.872  0.0386 -0.1351  0.0100
 6601W        W21732   9.496  15.556   0.930  0.1154 -0.0538 -0.0040
 6602W        W21733   9.205  14.702   1.507 -0.3414 -0.1435 -0.0969
 6603W        W21734   0.612  15.779  12.790  0.0295 -0.1223  0.1641
 6604W        W21735   2.942   6.236  11.993  0.3091  0.0107  0.1863
 6605W        W21736  15.736  15.805   2.508  0.0179 -0.0234  0.0490
 6606W        W21737   1.165  13.555  11.984 -0.2076  0.1126 -0.0393
 6607W        W21738   5.775  12.030   2.235  0.3154  0.2108 -0.0942
 6608W        W21739  11.473  10.933  12.919 -0.2164 -0.1061 -0.1422
 6609W        W21740  17.702   3.052  13.075  0.0487 -0.0321  0.0719
 6610W        W21741   4.873   0.854   3.675 -0.0152  0.3052  0.4273
 6611W        W21742  17.598  11.411  11.678 -0.1380  0.2704 -0.0561
 6612W        W21743  13.867  16.188  14.837  0.2956  0.2268  0.0210
 6613W        W21744   8.352  12.052   2.353  0.0462  0.2590  0.2502
 6614W        W21745  11.537  13.205  13.575 -0.0763 -0.1810 -0.2076
 6615W        W21746  16.482   9.834  11.079 -0.1289  0.0266  0.3170
 6616W        W21747  10.093  12.829   2.517 -0.1143  0.1525  0.0293
 6617W        W21748   5.278   3.333  15.239  0.0101  0.1028 -0.0297
 6618W        W21749  12.777  16.015   2.981 -0.1118  0.1383  0.0184
 6619W        W21750  14.836  12.944   3.406  0.1882 -0.1788 -0.2331
 6620W        W21751  13.354   5.654  13.181  0.1970  0.0698 -0.1510
 6621W        W21752  13.172  15.110  11.512  0.2498 -0.0475 -0.1594
 6622W        W21753  12.457  16.651  10.582 -0.0474 -0.0065  0.2867
 6623W        W21754   8.809   4.816  14.675 -0.0897 -0.1500  0.0381
 6624W        W21755   9.136   2.321   0.623 -0.1639 -0.1675  0.4387
 6625W        W21756  10.682  16.014   0.630 -0.1108 -0.0300  0.0175
 6626W        W21757   3.345   1.003  11.216 -0.1765  0.1238  0.0801
 6627W        W21758  17.341   0.031   4.837 -0.0929  0.1831  0.2474
 6628W        W21759  15.154  17.510   2.988 -0.1449  0.2110  0.1008
 6629W        W21760   1.078  13.769  12.976 -0.1206 -0.0840  0.0546
 6630W        W21761   4.668  13.591  11.825 -0.0474  0.2062 -0.0680
 6631W        W21762   7.579  17.546   0.248 -0.3660  0.2051  0.0914
 6632W        W21763   4.346   7.778   2.961  0.1540 -0.2308  0.1726
 6633W        W21764   3.788  11.227   3.999 -0.2178 -0.0166  0.2360
 6634W        W21765  15.896   5.332   3.815  0.2138 -0.1873  0.1319
 6635W        W21766   3.000  11.974  11.416 -0.0052 -0.0041  0.1284
 6636W        W21767   0.836  15.481   1.863  0.0952 -0.0796  0.1658
 6637W        W21768  15.137   2.966  15.188 -0.1023  0.0606 -0.1677
 6638W        W21769  14.619   3.686   5.088 -0.0269  0.0109  0.1087
 6639W        W21770   8.304   3.151  13.365  0.0804  0.3480  0.3520
 6640W        W21771  10.379  17.177  14.771  0.0438  0.2457 -0.1693
 6641W        W21772  16.380   0.729  15.078  0.1627  0.1535  0.3395
 6642W        W21773   7.690   3.387   1.722 -0.1967 -0.1112  0.1250
 6643W        W21774  15.670  16.004   3.699 -0.0160  0.1543  0.2498
 6644W        W21775   9.456   3.797  14.011 -0.0383  0.0447 -0.2377
 6645W        W21776   2.432  13.273   0.361  0.1204 -0.0368  0.0369
 6646W        W21777   6.916  11.312   0.119 -0.1334  0.0415 -0.1993
 6647W        W21778  12.433   1.616  13.641  0.1040  0.0157  0.1010
 6648W        W21779   4.813  11.446  12.462 -0.0988 -0.0119  0.2586
 6649W        W21780   5.039   1.442   5.391 -0.0572  0.1493  0.0610
 6650W        W21781  10.142   7.451   2.025 -0.2522 -0.0971 -0.1740
 6651W        W21782   4.614   5.732  12.814  0.4393 -0.2627 -0.0459
 6652W        W21783   5.703  14.613  13.602  0.0435  0.0268 -0.0773
 6653W        W21784   5.842  10.814  11.035  0.0787 -0.0780 -0.0161
 6654W        W21785   3.242  14.573   5.367 -0.3367  0.0537  0.3193
 6655W        W21786   8.107   1.777  15.427 -0.0589 -0.0625 -0.0757
 6656W        W21787   9.723   0.301   3.470  0.1202  0.2063  0.0344
 6657W        W21788   0.538  14.704  14.283  0.0841 -0.1812 -0.5568
 6658W        W21789   9.793  18.004   0.311  0.1849  0.2116  0.4046
 6659W        W21790  13.500  18.153   2.519 -0.0696 -0.0455 -0.1688
 6660W        W21791  10.045   5.984   2.188  0.0469 -0.0749 -0.0067
 6661W        W21792   6.387  16.684  15.999 -0.0282 -0.1377  0.0008
 6662W        W21793  13.077   4.983  15.240  0.2687  0.2740 -0.3698
 6663W        W21794   1.096   4.254   4.855  0.3252 -0.1799  0.3167
 6664W        W21795   6.077   3.459  14.209 -0.1947 -0.0922  0.0725
 6665W        W21796   5.034  11.960  13.239 -0.0534  0.2670 -0.0264
 6666W        W21797  10.961   9.028   3.693 -0.1768 -0.2690 -0.2304
 6667W        W21798  17.115  10.838  11.321 -0.3400  0.0834 -0.0265
 6668W        W21799   9.329   5.803   1.464  0.0927 -0.0130 -0.0679
 6669W        W21800   9.204  17.251   5.408  0.0498  0.2047  0.1661
 6670W        W21801   5.556   9.562  13.342 -0.1659 -0.1449  0.3697
 6671W        W21802   1.907  17.914   1.270 -0.2651  0.5521 -0.2454
 6672W        W21803   1.098   0.911   4.303  0.0766 -0.3504 -0.1669
 6673W        W21804   1.588  17.764   3.263  0.0503  0.2065 -0.0873
 6674W        W21805   2.082   7.915  15.109 -0.1246 -0.1792  0.0099
 6675W        W21806   0.464   8.717  13.164 -0.0400 -0.3306 -0.0115
 6676W        W21807   4.841  10.824  10.165  0.0589 -0.2778 -0.1719
 6677W        W21808  12.186  17.780   1.065 -0.0477  0.0802 -0.0684
 6678W        W21809  14.516   4.982   0.525 -0.1484  0.0919  0.0061
 6679W        W21810   3.922  17.963  11.544  0.0870  0.0343 -0.2156
 6680W        W21811  17.730   5.838  12.161 -0.0952 -0.0567 -0.0527
 6681W        W21812  14.148  16.198   3.122  0.0426  0.1428 -0.0728
 6682W        W21813   6.484   4.298  13.932 -0.0681 -0.1354  0.2231
 6683W        W21814  11.360  16.437   0.021  0.1592  0.2078  0.1880
 6684W        W21815  15.725   3.046  16.048 -0.1198 -0.0447 -0.0090
 6685W        W21816   4.202  11.164   0.477 -0.0740 -0.1536 -0.1995
 6686W        W21817  12.194   2.538   1.259  0.0940 -0.1803  0.0184
 6687W        W21818  12.039  15.893  10.296 -0.0695 -0.0920 -0.0897
 6688W        W21819  14.848  17.514   3.550 -0.2633  0.1487 -0.0042
 6689W        W21820   7.365   0.068  12.354 -0.1079  0.1915  0.1004
 6690W        W21821  15.352   1.222   1.395  0.1485  0.3636 -0.3628
 6691W        W21822   8.261   6.613  16.228  0.4082  0.2004  0.0520
 6692W        W21823   5.972   2.864  11.249  0.0228 -0.0352  0.0709
 6693W        W21824   6.317  15.627  11.581 -0.1191  0.0426 -0.1230
 6694W        W21825  17.929  13.453  15.936  0.4169 -0.0934 -0.0255
 6695W        W21826   9.658  11.179   4.946 -0.0309 -0.1452 -0.3048
 6696W        W21827   5.134  13.428   1.913 -0.1238 -0.1010  0.3679
 6697W        W21828   0.583   7.684  13.093 -0.3162 -0.0926 -0.2867
 6698W        W21829   3.962  14.795   0.368 -0.0983 -0.1241 -0.0248
 6699W        W21830  14.186   3.924   3.897 -0.0371 -0.1043  0.0862
 6700W        W21831   1.887   1.220  15.134 -0.0902  0.0395  0.1970
 6701W        W21832   0.278   8.930   0.686 -0.2449  0.0052 -0.0345
 6702W        W21833  17.006   0.748  13.815  0.6024  0.0631  0.3147
 6703W        W21834  16.989   9.040   4.421 -0.0041  0.2391 -0.1189
 6704W        W21835   6.478  14.008  13.798 -0.0519  0.0871  0.0126
 6705W        W21836  10.408   6.327  16.012  0.0470  0.0732 -0.0207
 6706W        W21837  11.088  16.416   4.710 -0.0340 -0.1867  0.0461
 6707W        W21838  17.206   4.679   3.043 -0.1197 -0.0484 -0.1111
 6708W        W21839  15.873   4.674   2.283 -0.2850 -0.0645 -0.1025
 6709W        W21840  10.502   6.854   2.135 -0.0454 -0.2217  0.2003
 6710W        W21841   5.418  14.498  10.375 -0.0074  0.2685 -0.0769
 6711W        W21842   7.577  13.408  15.797 -0.2348  0.2109  0.2642
 6712W        W21843   1.764  12.524  12.075 -0.0724 -0.3495 -0.3232
 6713W        W21844   9.263  10.006   4.358  0.2131 -0.2192 -0.2045
 6714W        W21845   2.495   9.171   2.892 -0.3214  0.0295 -0.0273
 6715W        W21846  12.731  13.861   3.090 -0.0701 -0.2080 -0.1356
 6716W        W21847   7.781   2.138  15.566 -0.1683  0.1013 -0.1979
 6717W        W21848   3.312   6.006  12.235 -0.5430  0.3308  0.1087
 6718W        W21849   1.541   4.823   2.980 -0.0741  0.0858 -0.0757
 6719W        W21850  10.738  10.557   1.105  0.1540  0.0778  0.3872
 6720W        W21851  15.487  13.784   1.570  0.0628 -0.0474 -0.1239
 6721W        W21852   8.027   5.822   1.714  0.0316 -0.2306  0.0370
 6722W        W21853   6.832  17.489  15.337  0.0297 -0.0398 -0.0503
 6723W        W21854  14.950   3.193   1.246  0.0666  0.1848  0.1711
 6724W        W21855   1.728   5.315   2.720 -0.4117  0.0473 -0.0842
 6725W        W21856   3.488  15.138   4.611 -0.1059 -0.1609 -0.2798
 6726W        W21857   7.944   4.461   4.112 -0.4119  0.1901 -0.0060
 6727W        W21858   1.410  17.496   3.682  0.1545  0.2827 -0.1173
 6728W        W21859  16.761   0.729  13.010 -0.1443 -0.0857  0.1614
 6729W        W21860   7.935   5.501  11.500 -0.0000  0.4378 -0.0085
 6730W        W21861   2.710   4.664  13.389  0.1270 -0.1294 -0.1919
 6731W        W21862   5.163  11.731  11.464 -0.3467  0.0187  0.1190
 6732W        W21863  16.647  18.094  13.465 -0.1942 -0.4206  0.3002
 6733W        W21864   6.111   0.902  10.896 -0.0845 -0.0570  0.0206
 6734W        W21865  14.091   3.691  11.731  0.2026 -0.1810  0.1080
 6735W        W21866   2.802  17.626  16.096 -0.0906 -0.2623  0.0254
 6736W        W21867  16.871   1.391  13.990 -0.2433  0.0715 -0.1298
 6737W        W21868   1.068  13.827  16.137 -0.2054  0.0574  0.1099
 6738W        W21869   2.916  13.836   3.900 -0.0450 -0.0196 -0.0043
 6739W        W21870  14.727   5.149   6.007  0.0284  0.2278 -0.1395
 6740W        W21871  17.208   9.830  14.228 -0.2656 -0.0528  0.0823
 6741W        W21872   6.608  16.957  11.255 -0.1510 -0.1848  0.1583
 6742W        W21873  12.860   0.873   2.578 -0.1845  0.0131  0.1202
 6743W        W21874   8.182  11.474  12.692  0.1147 -0.0101 -0.0578
 6744W        W21875   3.775   0.092  13.117  0.0999 -0.1311  0.1102
 6745W        W21876   2.237  11.913  15.478  0.2699 -0.0066  0.0883
 6746W        W21877  10.101   5.686  11.031  0.1468  0.1891 -0.1630
 6747W        W21878   0.758   7.273   4.727  0.1036 -0.0692  0.0768
 6748W        W21879   0.214  13.719  15.954 -0.0428  0.0775  0.0432
 6749W        W21880  11.977   2.404  13.986 -0.0331 -0.0429  0.3548
 6750W        W21881   5.623  10.094   0.170  0.0539 -0.2206 -0.1997
 6751W        W21882   6.412   3.866   2.680  0.1355 -0.1195  0.0144
 6752W        W21883   8.445   1.302   4.247 -0.2750 -0.0716 -0.1470
 6753W        W21884  14.360  11.324   3.152  0.1975 -0.0247 -0.1104
 6754W        W21885   7.840   1.965  12.286 -0.1193  0.0671 -0.0224
 6755W        W21886   9.034   8.480  11.646 -0.0837  0.3834  0.1155
 6756W        W21887   1.462  13.036   0.031 -0.0541  0.3060  0.1174
 6757W        W21888  10.530  12.890  15.112 -0.1104 -0.1418  0.0279
 6758W        W21889  17.108   5.060  13.179 -0.2513 -0.0252  0.0496
 6759W        W21890  12.072   8.003   3.535  0.2314  0.2480 -0.0040
 6760W        W21891   9.467  10.780  11.438 -0.0560 -0.0671  0.0822
 6761W        W21892  14.002  18.101  12.218  0.0608  0.0825 -0.2185
 6762W        W21893  17.113   0.583   4.465 -0.0725  0.3819 -0.0681
 6763W        W21894   3.907   7.618  11.024 -0.0597  0.0159 -0.2254
 6764W        W21895  12.416   0.989  11.772 -0.0332 -0.0509  0.0011
 6765W        W21896  10.427  11.273   0.716  0.0349  0.1727 -0.3632
 6766W        W21897  11.073  16.897  12.697  0.3708  0.0074  0.1195
 6767W        W21898  11.950   2.961  13.988 -0.2562  0.0398 -0.1521
 6768W        W21899  11.629  15.646   1.263  0.0811 -0.0839  0.4473
 6769W        W21900   8.644  14.879  11.647  0.3836  0.2145  0.1472
 6770W        W21901   5.371   4.507  14.416  0.2893 -0.1978 -0.1079
 6771W        W21902   8.015  16.019  13.164  0.1234 -0.2340 -0.3496
 6772W        W21903  10.049  11.601   2.686 -0.2221  0.2788 -0.0821
 6773W        W21904   0.086  10.220   1.025  0.0601 -0.0919  0.5034
 6774W        W21905   8.666   6.328   3.392 -0.0354  0.3359  0.1791
 6775W        W21906   5.665   0.511  15.040 -0.2427  0.0533 -0.2318
 6776W        W21907   2.116  17.250  15.956  0.0003 -0.0247  0.1640
 6777W        W21908  15.031  13.432   2.309  0.2701 -0.1063  0.1890
 6778W        W21909   3.283   2.093   2.945 -0.1453 -0.2163  0.0516
 6779W        W21910   4.113   7.434   3.385  0.1797  0.2896  0.0764
 6780W        W21911   1.748   2.326  13.910  0.1435 -0.0544 -0.2031
 6781W        W21912  16.695   4.449  12.713 -0.0274  0.0263 -0.1708
 6782W        W21913  16.196   0.199  13.401  0.2694 -0.0340 -0.1848
 6783W        W21914  11.355  14.838   3.768 -0.0143  0.2293 -0.0504
 6784W        W21915  16.498  10.354  11.666 -0.1489  0.1693 -0.1542
 6785W        W21916   4.208   4.956   4.062  0.0675  0.0800  0.0824
 6786W        W21917   2.489   5.838  11.351  0.0414  0.1482 -0.0285
 6787W        W21918  16.925  14.622   2.974 -0.1977 -0.3614 -0.0641
 6788W        W21919  15.595  11.763   2.717  0.2094  0.0548 -0.1585
 6789W        W21920  15.926   9.057  15.738  0.0379 -0.0469  0.0155
 6790W        W21921   8.500  13.313  11.070  0.0528  0.2766  0.0776
 6791W        W21922   8.069  13.474  10.758  0.1452  0.2572 -0.1576
 6792W        W21923   1.356   8.460   3.708 -0.0304 -0.0170  0.1674
 6793W        W21924  10.823   1.815  11.242  0.0359 -0.3353  0.2612
 6794W        W21925   7.226   6.523  13.975  0.0842 -0.1090  0.1511
 6795W        W21926  13.659   5.531  12.182 -0.0415  0.1355  0.0987
 6796W        W21927  10.850  17.638  14.650  0.4135  0.2274 -0.1412
 6797W        W21928   9.369  17.733   5.358  0.1707 -0.0654 -0.0577
 6798W        W21929  11.042   9.779  11.192  0.1467  0.2235 -0.1280
 6799W        W21930  15.131   2.991  14.516 -0.1124  0.0877  0.1489
 6800W        W21931   3.895  16.636  11.356 -0.1028 -0.0527  0.0190
 6801W        W21932   5.787   8.795  12.188 -0.0077 -0.0180  0.1773
 6802W        W21933   7.695   6.494   2.982  0.1669 -0.0779  0.0579
 6803W        W21934  16.832   8.541  15.823  0.3505 -0.0951  0.1058
 6804W        W21935  14.503   5.721   3.406 -0.0178  0.0721 -0.1999
 6805W        W21936   9.076  16.065  15.371  0.2371 -0.2536  0.1133
 6806W        W21937   4.717   8.228   0.266 -0.1340 -0.0663  0.1359
 6807W        W21938  17.631   3.694   4.916 -0.0479 -0.2493 -0.0241
 6808W        W21939   3.540   8.120   0.396  0.0535 -0.0074  0.1125
 6809W        W21940   8.071   0.328  13.231 -0.0001  0.0231 -0.2100
 6810W        W21941  12.546  12.811   5.354 -0.1103  0.0424  0.0439
 6811W        W21942   4.739  15.726   2.058  0.0301 -0.1787  0.1677
 6812W        W21943  15.899  17.178  11.438  0.0894  0.0349  0.2263
 6813W        W21944   3.122   3.712   4.636 -0.0806 -0.0004 -0.3915
 6814W        W21945   6.586   8.288   3.438  0.1508 -0.0011  0.0564
 6815W        W21946   3.076   3.288   5.509  0.0245  0.3711  0.0414
 6816W        W21947  10.231  16.549  16.095 -0.0235  0.3068  0.3607
 6817W        W21948   4.180   7.561   1.239 -0.0294 -0.2058  0.2115
 6818W        W21949   1.022   6.495  12.439 -0.1789 -0.0366  0.3518
 6819W        W21950  13.788  13.118   3.167 -0.1593 -0.1293 -0.1947
 6820W        W21951   1.732  17.506   5.495  0.0831 -0.0747  0.1058
 6821W        W21952   9.945  12.617   4.348 -0.2520 -0.1859  0.1847
 6822W        W21953   9.058   1.424  14.592 -0.1798  0.0700 -0.1479
 6823W        W21954  14.574   7.193   5.270 -0.2232 -0.1110 -0.3201
 6824W        W21955   5.941  17.778   3.198  0.0819  0.0600  0.2154
 6825W        W21956   9.156   7.015   2.662  0.0371 -0.2926 -0.1621
 6826W        W21957   1.402  13.369   2.038  0.1674 -0.2274 -0.1225
 6827W        W21958  12.801   2.634  14.130 -0.3405 -0.0562 -0.2281
 6828W        W21959  13.499  16.411   2.510 -0.1664  0.1733 -0.1561
 6829W        W21960   4.415  16.170  15.400  0.1495 -0.3145 -0.4420
 6830W        W21961   7.785   6.052   3.187 -0.0123  0.0759 -0.0088
 6831W        W21962  14.100  10.516   4.890 -0.0031  0.0646 -0.0937
 6832W        W21963  16.545   8.537   2.908  0.2196  0.0743  0.3074
 6833W        W21964  17.695  14.796   2.839 -0.0456  0.2536  0.0326
 6834W        W21965   4.832   0.543   4.154 -0.2461  0.0793 -0.1622
 6835W        W21966  14.408  17.227   3.869  0.0766  0.2693 -0.0250
 6836W        W21967   9.022  11.705   4.987 -0.3234 -0.3755 -0.0597
 6837W        W21968  10.082   4.437   5.724  0.3683 -0.1344  0.0553
 6838W        W21969  16.681   7.971   5.158  0.2565  0.1828 -0.0566
 6839W        W21970  12.499   0.832   1.182 -0.0111  0.2477 -0.1215
 6840W        W21971   7.312  15.656  11.563  0.0715 -0.2316  0.0438
 6841W        W21972   3.614   6.025  14.949 -0.1268 -0.3170 -0.0874
 6842W        W21973   6.822   4.556  12.868 -0.2448 -0.1257  0.1534
 6843W        W21974   3.214  17.016   2.738 -0.0715  0.1343  0.3125
 6844W        W21975   8.283   1.402   5.378  0.2761 -0.0126  0.0639
 6845W        W21976   5.565   0.991  15.074  0.0008 -0.0471  0.2247
 6846W        W21977   8.729  11.933   3.151 -0.0288  0.0375  0.4029
 6847W        W21978  10.663  15.742  13.176  0.1429  0.0452  0.1222
 6848W        W21979   6.998   0.460  10.023 -0.3171  0.0365 -0.3391
 6849W        W21980  16.961   2.150   0.877  0.1573 -0.0178 -0.0674
 6850W        W21981   3.601  15.484  14.617 -0.4275 -0.1771 -0.0211
 6851W        W21982   0.066  16.653  11.915  0.0200  0.0895 -0.1008
 6852W        W21983  12.222   3.982   2.313  0.3711 -0.2429 -0.1054
 6853W        W21984   9.735  12.966   2.842 -0.0776 -0.1296 -0.1006
 6854W        W21985   0.407   5.870   2.880  0.0002 -0.1115  0.0187
 6855W        W21986   3.041   9.212  16.227  0.1973 -0.0262  0.0961
 6856W        W21987  10.410   6.010  15.597 -0.0791 -0.0210 -0.2619
 6857W        W21988   1.600  12.987   2.809  0.1604  0.1325  0.2371
 6858W        W21989  13.751   3.627   1.868  0.2524 -0.3491 -0.1534
 6859W        W21990  12.469  17.150  10.742  0.1486 -0.0649 -0.1084
 6860W        W21991   1.139  16.021  15.241 -0.1238 -0.0948 -0.0681
 6861W        W21992  10.281  15.498  13.988 -0.1056 -0.0984  0.2081
 6862W        W21993  16.809   1.947  13.682  0.4424 -0.0207  0.0994
 6863W        W21994   9.589   4.364   4.798  0.1246 -0.0398  0.2340
 6864W        W21995  16.854  12.124   5.088 -0.0064 -0.1103  0.1939
 6865W        W21996  14.816  10.793   3.994  0.0052  0.1426 -0.1653
 6866W        W21997  16.461  11.589   5.315 -0.2235 -0.2576 -0.0617
 6867W        W21998  16.593  15.930   1.044 -0.0134 -0.1275 -0.0611
 6868W        W21999   6.491   6.109  13.960  0.2700 -0.1688 -0.0032
 6869W        W22000   6.331   6.309  16.156 -0.0515 -0.0528  0.2749
 6870W        W22001   8.658   6.201   1.481  0.2294 -0.1042  0.2405
 6871W        W22002  10.614   0.526   0.184  0.0407 -0.1081 -0.0022
 6872W        W22003  15.013  12.994   4.440 -0.4240 -0.0104  0.1728
 6873W        W22004   7.322   9.798  15.191  0.3613  0.0577 -0.1423
 6874W        W22005  17.364  12.647  15.234 -0.0126  0.1188  0.1776
 6875W        W22006   1.180   0.859  12.162  0.2289 -0.0363  0.1640
 6876W        W22007   4.371   3.775   5.645  0.1525  0.1605  0.3586
 6877W        W22008  10.121  12.637  11.171 -0.1227 -0.0143  0.3444
 6878W        W22009   1.945  16.024  14.389  0.4679 -0.0162 -0.0822
 6879W        W22010  14.378   9.237   3.778 -0.0314  0.0644  0.1751
 6880W        W22011  12.017  13.722   4.775  0.1782 -0.1351 -0.3134
 6881W        W22012  15.081   8.959  14.526  0.1926 -0.1319  0.1173
 6882W        W22013  17.765   9.267   4.539  0.2963  0.2092  0.2776
 6883W        W22014  11.874  14.576   3.560  0.2421  0.0993  0.2124
 6884W        W22015   7.271   5.715   2.302 -0.0214  0.0218  0.0907
 6885W        W22016  16.324  12.364   1.973 -0.0401 -0.0322 -0.0927
 6886W        W22017  16.481   3.742   5.443 -0.0767 -0.0600 -0.0839
 6887W        W22018  17.575   7.315   1.567  0.0157 -0.3773 -0.2984
 6888W        W22019  13.662   6.291   2.340 -0.2353 -0.3140  0.0785
 6889W        W22020  15.810  16.883   1.654  0.2191  0.2903 -0.0701
 6890W        W22021   0.039  13.467  13.095  0.2557  0.0527 -0.3915
 6891W        W22022  12.734   1.165   0.389  0.0155  0.1864 -0.0189
 6892W        W22023   6.503   7.177  15.746  0.5027  0.2085  0.0075
 6893W        W22024  14.166  11.302  15.067 -0.0546 -0.1486 -0.2420
 6894W        W22025  15.581   1.924  15.613  0.5298 -0.0749 -0.0367
 6895W        W22026   9.621   5.153  12.424 -0.1406  0.1855 -0.1707
 6896W        W22027   5.006  17.561  11.257  0.0458  0.0331 -0.3040
 6897W        W22028  13.174   5.384  12.684 -0.0331  0.0093  0.3214
 6898W        W22029   4.035   3.561   6.016 -0.1030 -0.0381 -0.0515
 6899W        W22030  16.770  11.044  16.014 -0.2134  0.0590  0.0482
 6900W        W22031   2.435  12.503   2.065 -0.1936  0.2465 -0.0090
 6901W        W22032   0.473  16.733   1.041 -0.0072 -0.2863  0.2190
 6902W        W22033   9.822   1.486   2.268 -0.0686 -0.1777 -0.1292
 6903W        W22034  10.762   4.472   5.422 -0.1170  0.1331 -0.0503
 6904W        W22035  17.622   7.840   5.459  0.4047  0.2475  0.1755
 6905W        W22036   8.830  13.514   3.371  0.0537 -0.0535  0.3732
 6906W        W22037   5.350   5.873  12.065 -0.1615  0.1538 -0.2849
 6907W        W22038  16.915   8.036   1.328  0.0525  0.1192 -0.1188
 6908W        W22039  15.789  13.059   3.429  0.0156 -0.1530 -0.0436
 6909W        W22040  17.624   3.544  14.054  0.0497 -0.2415 -0.1754
 6910W        W22041   3.616   2.248   1.073 -0.0912  0.0467  0.3858
 6911W        W22042   1.953   3.604  10.868 -0.1142 -0.0895 -0.1371
 6912W        W22043   8.459   8.275   5.452  0.4205 -0.1824 -0.1741
 6913W        W22044  16.454   2.735   4.554  0.3352  0.0918  0.3202
 6914W        W22045   1.838  17.402  14.605  0.1122 -0.0592  0.0894
 6915W        W22046  11.997   3.633   1.535  0.2265  0.1426 -0.0395
 6916W        W22047   0.071   2.671   5.056 -0.0939  0.2674 -0.1138
 6917W        W22048  16.274  16.867  13.147 -0.1943 -0.1417  0.0737
 6918W        W22049  10.472  11.414   4.570  0.3575  0.1327 -0.0971
 6919W        W22050   6.509  14.236   3.899  0.1290  0.0767 -0.0185
 6920W        W22051   6.739   3.410   0.005  0.1421 -0.2683 -0.0965
 6921W        W22052  15.824   3.249  11.081  0.0621 -0.0983 -0.0097
 6922W        W22053   4.586   1.509   4.209  0.1817 -0.1554  0.0111
 6923W        W22054   3.546   0.698   2.613 -0.0445 -0.0127 -0.1438
 6924W        W22055  16.729   3.982  12.664 -0.0337  0.1331  0.0328
 6925W        W22056   8.137  15.807  14.390 -0.1646  0.2141  0.1471
 6926W        W22057   3.457   4.616   5.783  0.1019  0.1773  0.1189
 6927W        W22058   9.771  11.289  10.797  0.2101 -0.3271 -0.0346
 6928W        W22059  14.227   4.428   5.389  0.1744 -0.0527  0.0802
 6929W        W22060   9.249  13.821  13.561  0.1717  0.2718 -0.0227
 6930W        W22061   5.692   9.650   2.664  0.1339 -0.1192  0.2129
 6931W        W22062   4.048   0.772   1.001 -0.1877 -0.1717 -0.0062
 6932W        W22063  17.184  11.310  11.980  0.0484  0.0818 -0.0250
 6933W        W22064   7.721   1.110  10.243 -0.1130 -0.0398  0.0138
 6934W        W22065   0.483   9.514   0.435 -0.2693  0.0550 -0.0648
 6935W        W22066   8.299   4.347   3.733 -0.2105  0.3097  0.1075
 6936W        W22067   5.116  11.030  15.847  0.0966 -0.0357  0.4558
 6937W        W22068   2.514   3.801  15.645  0.0189 -0.1329  0.0640
 6938W        W22069   4.543  10.111   2.062 -0.1417 -0.2648  0.1353
 6939W        W22070   0.005  17.130   4.807  0.0605 -0.2336 -0.0404
 6940W        W22071  17.080   3.390   2.919  0.2667 -0.1811 -0.1816
 6941W        W22072  13.193  12.028  12.453  0.0754  0.1520  0.0293
 6942W        W22073  15.520   1.832   1.022 -0.0276  0.0167 -0.0032
 6943W        W22074   1.764   1.110   0.111 -0.2563 -0.1734 -0.0062
 6944W        W22075  11.361   9.269   1.102  0.0576  0.1650 -0.0243
 6945W        W22076  12.950   5.232  14.710 -0.0856  0.1265 -0.0827
 6946W        W22077   7.556   5.538   1.882  0.1493 -0.2987  0.1506
 6947W        W22078   5.362  11.347  13.525 -0.1702  0.2464 -0.0918
 6948W        W22079   6.768   7.592   3.278 -0.1913  0.1394 -0.1794
 6949W        W22080  12.064   8.431  11.802 -0.0036  0.3134  0.0463
 6950W        W22081  15.468   2.091   2.567 -0.0475 -0.0554  0.0683
 6951W        W22082  10.509   1.551  12.496  0.1793  0.2572  0.0623
 6952W        W22083   6.179  11.140   3.518  0.2414 -0.0177 -0.0862
 6953W        W22084   4.221   5.507  11.388 -0.0843  0.1441  0.2451
 6954W        W22085  13.234   1.818  12.043  0.0082 -0.2014 -0.1827
 6955W        W22086   1.879  13.884  14.104  0.0679  0.0560  0.1724
 6956W        W22087  10.722   2.257  14.133  0.1958  0.3295  0.0480
 6957W        W22088   4.115  15.484  12.631  0.2094  0.2123  0.1097
 6958W        W22089  13.244  14.584  10.413  0.1669 -0.2141 -0.3739
 6959W        W22090   8.693  11.850   4.043  0.0873 -0.0643 -0.0111
 6960W        W22091   1.053  13.543   2.446  0.3728 -0.2853  0.3437
 6961W        W22092   6.439  10.901   0.558  0.0393  0.0035 -0.0723
 6962W        W22093   1.435  17.572  10.106 -0.1029  0.1275  0.2308
 6963W        W22094  13.064  13.772  13.722  0.2481 -0.0015  0.0675
 6964W        W22095  16.395   1.433   1.622  0.0548 -0.1747  0.2012
 6965W        W22096  16.776   5.905  11.828 -0.0800  0.3525  0.3221
 6966W        W22097   0.359  13.556  13.553 -0.0196  0.0417  0.1310
 6967W        W22098   2.769   6.785   1.824 -0.0274 -0.0627  0.0613
 6968W        W22099   4.335   0.652  11.485  0.1655  0.1295 -0.2055
 6969W        W22100  13.306   3.970   4.978 -0.3847 -0.0555  0.0988
 6970W        W22101  15.391  14.028   6.028 -0.2346  0.2528 -0.0019
 6971W        W22102   9.105  17.680  13.757 -0.0634  0.0939  0.2286
 6972W        W22103   6.693  17.527   0.026 -0.0310  0.2808 -0.0375
 6973W        W22104  15.450   1.336   2.205  0.1596  0.0119  0.0304
 6974W        W22105  17.562   9.688   1.222  0.3330  0.0085  0.2225
 6975W        W22106   6.053   7.729   1.818 -0.0712 -0.0594  0.0459
 6976W        W22107   5.498  10.904  13.421 -0.0711 -0.0502  0.1848
 6977W        W22108  15.981   0.659   1.616  0.1294 -0.0361 -0.0955
 6978W        W22109  17.555  16.759  13.707 -0.0648 -0.0019 -0.0743
 6979W        W22110   6.358   5.291  12.181  0.2329 -0.1877  0.1800
 6980W        W22111  10.210   1.403   3.718 -0.1033  0.3123 -0.0712
 6981W        W22112  11.037   6.281  14.340  0.0855  0.1861  0.0048
 6982W        W22113   3.193   1.127  15.079 -0.1365  0.0286 -0.1649
 6983W        W22114   1.842   6.091   0.667 -0.1178 -0.1448 -0.4723
 6984W        W22115  12.964  17.695   4.638 -0.1726  0.3030 -0.1932
 6985W        W22116   3.491   6.168  11.757 -0.1996  0.0558 -0.2024
 6986W        W22117  16.746   1.359   5.717  0.2186  0.0374  0.0315
 6987W        W22118   7.857   2.295   0.866  0.1418  0.3892 -0.0526
 6988W        W22119   8.401   8.215  15.618 -0.0165 -0.1263  0.0673
 6989W        W22120   4.442  14.369  14.231 -0.0653  0.2352  0.1984
 6990W        W22121  18.166   4.948   3.189  0.1429 -0.0673  0.0686
 6991W        W22122  14.157   8.477  12.561  0.1934 -0.2585  0.1140
 6992W        W22123   3.559   0.916   9.529 -0.3676  0.1273  0.2747
 6993W        W22124  13.660   1.123  11.749  0.0224  0.0789  0.1881
 6994W        W22125   4.138   4.249  12.087 -0.0400  0.0950 -0.1465
 6995W        W22126  17.421  10.396   1.574  0.1705 -0.2704  0.4449
 6996W        W22127   5.844   9.710  11.836 -0.0799 -0.2137 -0.2683
 6997W        W22128   0.449   7.360   6.181  0.1016  0.0198  0.1009
 6998W        W22129   8.436   0.902  10.977  0.3675 -0.2781  0.0620
 6999W        W22130   1.383   3.499  15.694  0.0694  0.0471 -0.0473
 7000W        W22131   5.143  15.475  16.179 -0.1427 -0.0730  0.0639
 7001W        W22132   2.064  12.749  13.204 -0.1910 -0.2265  0.1637
 7002W        W22133  16.464  15.117   5.353 -0.5893 -0.0472 -0.1890
 7003W        W22134  11.210  13.390   3.312 -0.1337  0.3058 -0.1904
 7004W        W22135   5.086  16.014  16.236 -0.2201 -0.2158  0.0955
 7005W        W22136   8.529  10.356  13.451 -0.1759  0.1504 -0.2950
 7006W        W22137   4.107  14.190  15.660 -0.0678 -0.0150  0.0260
 7007W        W22138  11.235   4.723   2.103 -0.0614 -0.1158 -0.1538
 7008W        W22139   0.603   6.845   0.665 -0.1263  0.0457  0.1515
 7009W        W22140   2.915   4.244  12.215  0.1523  0.0486  0.2082
 7010W        W22141  15.913   3.499   3.791 -0.0082 -0.0541  0.1607
 7011W        W22142  14.503   1.064  11.152 -0.0831  0.0711  0.3564
 7012W        W22143  14.797  11.254   5.807 -0.0881  0.1548 -0.1528
 7013W        W22144  18.109  17.556   9.872 -0.0430  0.3816 -0.3159
 7014W        W22145  17.094  16.380  12.510  0.2185  0.2601  0.1729
 7015W        W22146   6.883   4.325   2.454 -0.1077 -0.0751 -0.3553
 7016W        W22147   2.388  17.217  12.299  0.0642 -0.1357  0.0429
 7017W        W22148   3.029   7.145   2.097  0.1160  0.1681  0.0521
 7018W        W22149   8.585  15.158  13.430  0.1164  0.1709  0.0823
 7019W        W22150  14.532  13.306   2.060 -0.1203 -0.1488 -0.2595
 7020W        W22151   2.952   3.608  11.693 -0.0994  0.2291 -0.0082
 7021W        W22152   2.454  10.279   0.949 -0.0797  0.1119  0.2943
 7022W        W22153  10.847  18.093   1.584  0.0714 -0.3928 -0.2313
 7023W        W22154  11.722  18.113  13.869  0.0016  0.2114 -0.0169
 7024W        W22155   7.370   4.314  14.963 -0.1680  0.0402  0.0465
 7025W        W22156  13.928   2.940  15.638  0.1784  0.2742 -0.0087
 7026W        W22157  13.749   5.828   3.659  0.2414  0.3315 -0.1029
 7027W        W22158   0.228   0.878   3.450  0.0670  0.1122 -0.1243
 7028W        W22159  13.184   6.907   4.004 -0.3102 -0.1366  0.3890
 7029W        W22160  11.678   1.014   3.191  0.0834 -0.2688  0.1497
 7030W        W22161  17.792   6.896   2.838  0.0026 -0.1957  0.2287
 7031W        W22162  14.171   3.397   1.780 -0.1166 -0.1960 -0.0014
 7032W        W22163   4.864  12.524  15.763  0.4824  0.0905 -0.1577
 7033W        W22164  17.111  11.349  15.097  0.0768 -0.0646  0.3699
 7034W        W22165   4.110  14.274  11.471  0.1399 -0.0595  0.2126
 7035W        W22166  13.881  13.884  12.293  0.2413  0.0154 -0.0107
 7036W        W22167  15.056   5.128  12.570 -0.2375  0.2660 -0.0540
 7037W        W22168  11.713   0.580   5.325 -0.1683  0.2478 -0.2255
 7038W        W22169   1.811  17.618  16.065  0.1822  0.0912  0.6264
 7039W        W22170  13.094   7.834   1.114  0.2476 -0.0488  0.0837
 7040W        W22171  10.602   8.797   2.382  0.2124 -0.4385 -0.1077
 7041W        W22172   9.386   8.127  14.705  0.1316  0.1882 -0.2797
 7042W        W22173  14.159  14.670  15.500 -0.1987  0.0218 -0.1531
 7043W        W22174   9.961   6.525   2.792  0.1345 -0.1306  0.0250
 7044W        W22175   4.116   9.573   4.711 -0.0015 -0.2235 -0.2511
 7045W        W22176  17.124  16.474   3.236  0.1525  0.2319 -0.1218
 7046W        W22177   2.602   4.572   3.225 -0.1483 -0.1111 -0.0491
 7047W        W22178   7.496  13.859  12.520 -0.0224 -0.1703 -0.1403
 7048W        W22179  13.499   4.584   2.429 -0.0918  0.1101  0.1241
 7049W        W22180  13.205   1.463  14.853  0.0765 -0.1902  0.0467
 7050W        W22181   9.168  10.955   4.941 -0.1767  0.2044 -0.4221
 7051W        W22182  13.617  16.301   2.988  0.0267 -0.0894  0.0683
 7052W        W22183  13.991  10.747   4.191 -0.0078 -0.0876  0.0571
 7053W        W22184   0.244  10.576   0.520  0.0656  0.1496 -0.0433
 7054W        W22185  17.010   7.976   2.227 -0.1393 -0.2861  0.2997
 7055W        W22186   3.082   2.764  11.980 -0.0065  0.0323 -0.0819
 7056W        W22187   5.138  13.463  10.318  0.1690  0.0774  0.2931
 7057W        W22188   9.017   2.016  15.222  0.0876  0.1634 -0.0608
 7058W        W22189  10.221   1.920  12.705  0.1665  0.0773  0.0167
 7059W        W22190   1.542  10.982  15.601 -0.1859  0.1053  0.2305
 7060W        W22191  11.729  17.725  11.256 -0.0020  0.1727 -0.3206
 7061W        W22192   0.833  15.083   2.879 -0.2056  0.1413 -0.0357
 7062W        W22193   8.177   9.603   1.595 -0.2159  0.0731 -0.3082
 7063W        W22194  11.092  16.664   1.959  0.1382 -0.3928  0.0481
 7064W        W22195   9.901  10.348   1.499 -0.1665 -0.1693  0.3225
 7065W        W22196   7.184   5.675   4.813  0.1967 -0.1858 -0.2677
 7066W        W22197   1.979   3.220  12.382  0.0559 -0.4574 -0.4010
 7067W        W22198   7.046  11.640   3.081  0.0801 -0.2199  0.0606
 7068W        W22199  13.801   5.343   3.778  0.0999  0.2209 -0.4167
 7069W        W22200  16.599   1.176   0.250  0.1083 -0.0186 -0.3273
 7070W        W22201  16.162  10.176  16.229  0.2121  0.1924  0.0673
 7071W        W22202  14.736   7.909  13.746  0.4040  0.0070 -0.2458
 7072W        W22203   8.108  12.708   1.327  0.1397 -0.1607  0.1741
 7073W        W22204  13.990   0.474   5.059  0.1826 -0.1176 -0.0790
 7074W        W22205  12.223  16.308   2.623  0.1733 -0.1474 -0.1747
 7075W        W22206  13.036  17.236  13.407 -0.2551  0.1190 -0.0429
 7076W        W22207   7.138  18.096  11.935 -0.1083  0.0501 -0.0238
 7077W        W22208   4.809   0.090  14.807 -0.0814  0.2511 -0.0953
 7078W        W22209  17.539  16.381  12.256 -0.0048 -0.0812  0.0979
 7079W        W22210   2.136   1.045  12.894 -0.1001 -0.0816 -0.1811
 7080W        W22211  14.405  18.127  12.686  0.1343 -0.1096  0.0291
 7081W        W22212  14.586   1.428  11.649  0.1710  0.1899 -0.0660
 7082W        W22213   6.684  14.449   2.359  0.1300  0.1362 -0.0143
 7083W        W22214   8.222  15.009   1.627  0.0842  0.0340 -0.1413
 7084W        W22215   9.561   1.646  12.136  0.0568 -0.0142 -0.2260
 7085W        W22216   7.697   4.642  13.946 -0.3668  0.0518 -0.2022
 7086W        W22217  11.525  10.436   3.354 -0.0231  0.0840 -0.0114
 7087W        W22218  11.117   4.609  10.836  0.2885  0.0786  0.2166
 7088W        W22219   9.464  12.744  11.670  0.3095 -0.0999 -0.0743
 7089W        W22220  16.329   6.110  13.484  0.2016  0.3417 -0.1135
 7090W        W22221   5.415  14.155  13.926 -0.0183  0.0479 -0.0498
 7091W        W22222  12.226  10.631   4.493 -0.0272 -0.1257 -0.0226
 7092W        W22223  15.298   5.449  12.933  0.1939  0.1901  0.3150
 7093W        W22224   4.501   6.861   0.411 -0.0535  0.1482 -0.2588
 7094W        W22225  11.502   7.672  15.750  0.1471 -0.0837  0.1998
 7095W        W22226  12.943  16.140   5.756  0.2440  0.0698 -0.1922
 7096W        W22227   8.371   4.200  12.567  0.3085  0.0004  0.0386
 7097W        W22228   1.052  12.859   0.246 -0.3250  0.0599  0.1588
 7098W        W22229  14.548  15.271   0.618 -0.2705  0.1049 -0.0479
 7099W        W22230   8.116   8.694  11.126 -0.1474 -0.0538 -0.1994
 7100W        W22231  16.144   2.810  15.408 -0.1041 -0.0081  0.3106
 7101W        W22232  16.261  15.448   6.707  0.2804  0.0275 -0.1552
 7102W        W22233   1.546   9.038   2.076 -0.2607  0.0668 -0.0818
 7103W        W22234   9.839   4.882   4.068  0.2589  0.2749  0.0826
 7104W        W22235  11.811   8.176  15.748 -0.2674  0.3036  0.3851
 7105W        W22236   1.446   0.202   3.236 -0.0932 -0.2232 -0.1370
 7106W        W22237  16.728   7.689   1.040 -0.0547 -0.0887  0.1181
 7107W        W22238   5.658   9.679  16.002 -0.3757  0.0580 -0.1716
 7108W        W22239  10.911  12.112  11.757  0.0397  0.0194 -0.1692
 7109W        W22240  11.485   5.618  12.638 -0.2222 -0.0805 -0.1294
 7110W        W22241   4.600   2.183  13.905 -0.2313  0.3940 -0.0140
 7111W        W22242  13.633  12.205  16.160 -0.2069 -0.1195  0.1546
 7112W        W22243  17.503  13.993   4.484 -0.1679 -0.0970 -0.4062
 7113W        W22244  13.765  12.683  11.736 -0.1896  0.1570  0.0352
 7114W        W22245   5.512  11.931  13.040  0.0605  0.0133 -0.0561
 7115W        W22246   4.645  12.357   4.613 -0.1137 -0.0923  0.4358
 7116W        W22247   9.216  13.547  14.306 -0.2847 -0.1284  0.0165
 7117W        W22248   6.828  13.547   0.065 -0.0930  0.0148  0.2435
 7118W        W22249  17.667  15.980   1.525  0.2505 -0.0205  0.0313
 7119W        W22250   4.579   2.553   3.348  0.2268  0.1028 -0.0387
 7120W        W22251   9.939  12.246  12.942 -0.2862  0.2282 -0.0061
 7121W        W22252  16.422  11.092   2.627  0.1426 -0.0019 -0.1143
 7122W        W22253  13.935  11.054  11.185  0.2116 -0.0508  0.1196
 7123W        W22254   8.608  17.151   0.487  0.1433 -0.1786 -0.0388
 7124W        W22255   6.476   0.903   4.471  0.2742 -0.2037  0.0863
 7125W        W22256  16.349   3.547  13.518  0.1667 -0.1483  0.0225
 7126W        W22257  16.327  15.653  16.016  0.2246  0.2436 -0.0702
 7127W        W22258  14.185   1.795  12.244  0.0220  0.3368 -0.1339
 7128W        W22259   1.151   2.347   2.464  0.4587 -0.2569  0.0284
 7129W        W22260   3.520  13.597   3.589  0.0059 -0.1766  0.0294
 7130W        W22261   7.361   4.246  14.459 -0.1228 -0.1702  0.1283
 7131W        W22262  13.204  16.352  12.593  0.2814  0.1353 -0.4233
 7132W        W22263   6.037  15.344  12.033 -0.2516 -0.0526  0.2968
 7133W        W22264  11.899  12.775   2.509 -0.2589  0.0399 -0.3025
 7134W        W22265  14.360  16.393  11.989 -0.1209 -0.0973 -0.0473
 7135W        W22266   7.281   5.037   4.342  0.0268 -0.0895 -0.0072
 7136W        W22267   0.946   2.070  13.644  0.2449 -0.2950  0.1571
 7137W        W22268   1.415   4.993  14.401  0.0204  0.0171 -0.0981
 7138W        W22269  11.013   3.147   0.303  0.0215  0.2847  0.1547
 7139W        W22270   1.361  14.334   2.488  0.2306  0.2833  0.2636
 7140W        W22271   3.996  10.546  15.908 -0.0330  0.1083  0.3801
 7141W        W22272  12.083  16.185   3.599 -0.0251  0.1093 -0.2820
 7142W        W22273  17.697   0.457  12.016 -0.2034 -0.1371 -0.3693
 7143W        W22274  16.302  17.697  13.698 -0.3561 -0.0779 -0.1594
 7144W        W22275  12.154  14.394   4.480 -0.1336 -0.0045 -0.0221
 7145W        W22276  13.546   5.210  14.874  0.1350  0.1698  0.0354
 7146W        W22277  11.094   8.780   0.900  0.0665 -0.3031  0.2125
 7147W        W22278  11.069  15.565   5.084  0.0759 -0.1678  0.0420
 7148W        W22279   0.958   3.938  13.128  0.0595  0.0690 -0.2473
 7149W        W22280   3.675   8.914   4.576  0.0602 -0.0046 -0.0454
 7150W        W22281   0.751   6.651   5.393  0.0723  0.1283 -0.2203
 7151W        W22282   6.648   9.156  13.981  0.0259  0.0826  0.0684
 7152W        W22283  13.265   3.996   3.996 -0.1216 -0.2092 -0.0159
 7153W        W22284   2.916   5.954  13.113 -0.1966  0.1604  0.2361
 7154W        W22285   8.229   4.834  13.946 -0.1529  0.4817  0.0688
 7155W        W22286   7.527   5.860   4.339  0.1315  0.0705 -0.2343
 7156W        W22287   2.429   5.839   2.456  0.0819  0.0622  0.1185
 7157W        W22288   2.717  15.885   1.353 -0.1717  0.2686 -0.0534
 7158W        W22289   2.963  14.941  11.107  0.0487  0.0905  0.4932
 7159W        W22290   5.991   9.604  14.791  0.0164  0.0095  0.1559
 7160W        W22291  16.017   1.933  15.931  0.4017  0.5755  0.0747
 7161W        W22292  16.342   0.118  12.069  0.0650 -0.7237 -0.0801
 7162W        W22293  12.749  16.980  15.961 -0.0998 -0.0471  0.0141
 7163W        W22294  16.381   2.625  14.655 -0.0245 -0.0231 -0.0919
 7164W        W22295   2.207   6.466   1.396 -0.1985  0.2042 -0.0068
 7165W        W22296  16.428   4.964   0.292  0.1599  0.1137  0.1553
 7166W        W22297   2.085   7.397   3.330 -0.0199  0.0434 -0.0660
 7167W        W22298  15.342   0.552  12.059  0.1278 -0.0914  0.2965
 7168W        W22299   5.314   3.114  14.689  0.2633 -0.0489  0.1281
 7169W        W22300  18.180  17.014   3.471 -0.1644  0.1318 -0.2294
 7170W        W22301   2.837   7.232   4.858  0.3089  0.0994 -0.1679
 7171W        W22302  15.553   5.088   2.985  0.2197  0.1046 -0.0694
 7172W        W22303   5.381   2.780  11.759  0.2768  0.2025  0.1651
 7173W        W22304  16.909   0.359  13.484  0.0096 -0.0460 -0.2502
 7174W        W22305   6.348  13.156  11.302 -0.0376  0.0844  0.2537
 7175W        W22306  17.890   2.450   1.031  0.0694 -0.2830 -0.1523
 7176W        W22307   1.354   3.721  12.832 -0.0856  0.3499 -0.0493
 7177W        W22308  15.795  14.721  13.788 -0.1778 -0.0759 -0.0617
 7178W        W22309   0.072   7.364   5.679  0.0723  0.3077  0.0003
 7179W        W22310   0.916   7.538   6.233  0.0170 -0.0157 -0.2102
 7180W        W22311   8.802  10.895  13.274 -0.3387 -0.0068 -0.0784
 7181W        W22312   7.434  17.771  12.588 -0.1199  0.1252  0.3746
 7182W        W22313   7.097   0.974   0.485  0.0115  0.0479 -0.1605
 7183W        W22314  10.566  17.473   0.846 -0.0498 -0.1654  0.0377
 7184W        W22315  15.365  13.317  13.873  0.0994 -0.1147 -0.0295
 7185W        W22316   2.938   3.372  11.231  0.2018 -0.0364 -0.0349
 7186W        W22317   2.707  10.715   1.773 -0.1117 -0.0714  0.3232
 7187W        W22318   1.436  12.206   4.184  0.1177 -0.0584 -0.1709
 7188W        W22319  10.685   1.452  16.186 -0.0967  0.1885 -0.0214
 7189W        W22320   7.660   1.937   3.445 -0.4358 -0.1834  0.1768
 7190W        W22321   8.744   2.243  12.784  0.1885 -0.2221 -0.1540
 7191W        W22322   6.355  16.445  12.433 -0.0978 -0.1398  0.4146
 7192W        W22323  12.261  16.844  16.134  0.2132  0.2792 -0.1363
 7193W        W22324  15.252  13.444  13.345 -0.2851  0.1125  0.1800
 7194W        W22325  13.280   5.038   4.644  0.3926  0.0460 -0.0160
 7195W        W22326  18.060  11.907  10.183 -0.0992 -0.1488  0.2308
 7196W        W22327  10.963   8.504   2.223  0.0480  0.0182 -0.1205
 7197W        W22328  11.460   7.309  13.699 -0.0609  0.0709  0.2824
 7198W        W22329   5.159   8.850   3.831  0.0407 -0.0923 -0.0716
 7199W        W22330  13.357   3.461  13.809  0.1459 -0.0007 -0.0852
 7200W        W22331  10.174  10.054  14.877 -0.0730  0.0452  0.0161
 7201W        W22332   8.407   8.300  11.235 -0.1101  0.4424  0.0830
 7202W        W22333   7.578   9.794   0.458  0.0389  0.0560 -0.0360
 7203W        W22334   2.410   7.651  12.921 -0.0521  0.1585 -0.5970
 7204W        W22335  15.127  16.665   5.198  0.1903  0.1398  0.1315
 7205W        W22336  16.884  11.278   5.248  0.3265 -0.0895  0.0291
 7206W        W22337   8.824   4.829   4.999  0.1799 -0.0569 -0.1286
 7207W        W22338   2.608  17.039  13.233 -0.0088 -0.1468  0.2863
 7208W        W22339  13.993   9.981  12.300 -0.1755 -0.1628  0.0882
 7209W        W22340  18.012  11.877   4.069 -0.2332  0.1851  0.2035
 7210W        W22341  13.313   5.130  10.679  0.0248  0.4285 -0.0834
 7211W        W22342  13.158  15.284  12.704 -0.1640 -0.4438 -0.2541
 7212W        W22343  15.319   6.709  11.577  0.1382  0.1776  0.0072
 7213W        W22344  13.211  15.480   5.153  0.1958 -0.1442  0.0552
 7214W        W22345  10.792   6.640  14.071 -0.1490  0.0171  0.0408
 7215W        W22346  12.638   9.328   0.687 -0.0604 -0.1616  0.2559
 7216W        W22347   1.402  10.337  14.358 -0.1275  0.2028  0.1300
 7217W        W22348  10.636   2.673  14.586 -0.0919 -0.1135  0.2589
 7218W        W22349  16.035   5.132  12.610 -0.0772 -0.2741 -0.2092
 7219W        W22350  15.494   7.654   1.431  0.0239 -0.1868  0.3688
 7220W        W22351   6.990   3.642   1.905  0.2670 -0.0070  0.2408
 7221W        W22352   9.105   7.866  10.967  0.0180  0.1047  0.2147
 7222W        W22353  16.730   2.663   2.636  0.0393 -0.1799  0.0094
 7223W        W22354   3.440  13.378   1.751  0.2069  0.1325  0.1042
 7224W        W22355   7.049   5.292   1.994 -0.1427 -0.3228  0.3858
 7225W        W22356   5.565   2.280   1.989  0.0024  0.1724  0.0155
 7226W        W22357   1.355  16.212  12.941  0.2448  0.0255 -0.1128
 7227W        W22358  16.559   3.172   1.436 -0.2391  0.2638 -0.2276
 7228W        W22359  16.789   0.953   6.006  0.0942 -0.3034  0.0910
 7229W        W22360  17.965  13.479   4.268 -0.2793 -0.0137  0.0303
 7230W        W22361   5.519   6.456   3.698 -0.1646  0.0995  0.0817
 7231W        W22362   5.898   5.714  14.793 -0.1019 -0.3583 -0.3809
 7232W        W22363   0.389  14.019  13.708 -0.5642  0.1713 -0.1364
 7233W        W22364  11.454  15.604   2.683  0.1741 -0.2914  0.3133
 7234W        W22365  13.769  10.454   0.723  0.3186 -0.4737 -0.0286
 7235W        W22366   1.677   1.834   0.233  0.3644  0.0112  0.2942
 7236W        W22367   7.973   3.680   2.019 -0.3798 -0.1372 -0.1015
 7237W        W22368   5.589   1.119  10.653  0.1492  0.0223  0.0572
 7238W        W22369   2.557   9.073  11.448 -0.1474  0.1113 -0.3091
 7239W        W22370  16.203  13.363  16.140 -0.3875  0.1764 -0.6121
 7240W        W22371  15.953  14.731   0.522 -0.2044 -0.0171  0.0385
 7241W        W22372   4.457  15.117  15.443  0.1131  0.1201 -0.1829
 7242W        W22373  16.465  12.483   5.119  0.1271 -0.0822  0.1394
 7243W        W22374   4.571   3.822  14.814 -0.2388 -0.2095 -0.1398
 7244W        W22375   0.516   5.012  13.610 -0.2508  0.1106  0.1440
 7245W        W22376  10.717   3.099   5.051  0.2272  0.2273 -0.0584
 7246W        W22377  12.972  17.530   2.149 -0.2037  0.1114 -0.0904
 7247W        W22378  16.776  16.818  15.090 -0.0302  0.1196 -0.0343
 7248W        W22379  14.481   6.154  15.938  0.1959  0.3986  0.1262
 7249W        W22380  17.917  12.056  13.413 -0.0657 -0.0345 -0.1026
 7250W        W22381   4.288   6.357  15.169  0.2458 -0.2627  0.3858
 7251W        W22382   4.112  15.720  14.580 -0.2398  0.2163 -0.1402
 7252W        W22383   4.764   5.815   3.304  0.1300  0.0188  0.0307
 7253W        W22384  11.828   2.564  15.187  0.0917  0.1272 -0.0798
 7254W        W22385   0.025  13.757   1.729  0.0657  0.0781 -0.0654
 7255W        W22386   6.921  13.667  12.622 -0.1511 -0.0113  0.2624
 7256W        W22387  12.844   4.485  13.020  0.2914 -0.2251 -0.4504
 7257W        W22388  14.512  10.792  11.339 -0.1600 -0.3678 -0.1784
 7258W        W22389  15.877  12.937   0.715  0.1374  0.1607 -0.0660
 7259W        W22390  11.443   8.473   2.993  0.2874 -0.2861  0.3993
 7260W        W22391  10.708  11.540  12.038 -0.2368 -0.2580 -0.2106
 7261W        W22392   7.547  16.502   4.283 -0.0760 -0.1180  0.4052
 7262W        W22393  11.398  13.167  15.613  0.0548  0.1135  0.0721
 7263W        W22394   7.283   3.796  12.198  0.0511  0.3861  0.0383
 7264W        W22395   2.876   7.352  15.348  0.0790 -0.1034  0.0809
 7265W        W22396  11.515   1.135   1.325  0.0880  0.0932 -0.2986
 7266W        W22397   5.111   9.816  10.760 -0.0996  0.0275  0.1119
 7267W        W22398   5.376   1.613  12.799  0.0550 -0.1455  0.1634
 7268W        W22399   6.869  11.681  11.069  0.0324 -0.0084 -0.0799
 7269W        W22400   1.321  16.296   4.494  0.0375 -0.1038  0.0470
 7270W        W22401  17.062  15.789   0.960 -0.0530  0.2334  0.2463
 7271W        W22402   6.986   5.931  12.413 -0.2370 -0.0936 -0.1112
 7272W        W22403   3.789   9.770  12.254 -0.1198 -0.1640 -0.0632
 7273W        W22404  16.009  10.209  15.003 -0.0091 -0.0997 -0.0202
 7274W        W22405   3.163   9.143  14.500 -0.2362 -0.1470 -0.0904
 7275W        W22406   8.310   9.146   3.711  0.0167 -0.1435 -0.0354
 7276W        W22407  13.609  13.320  12.848 -0.2278  0.0733  0.0241
 7277W        W22408   6.745  11.306   4.074 -0.0572  0.2745  0.1006
 7278W        W22409   7.179  15.113  10.395 -0.1811  0.1151 -0.1172
 7279W        W22410   1.449   1.459  12.462 -0.1083 -0.1391 -0.1375
 7280W        W22411  11.836  12.386   2.941  0.1167 -0.1636  0.1597
 7281W        W22412   1.978   4.329  10.021  0.2543 -0.0627 -0.0580
 7282W        W22413  13.586  13.553   2.900 -0.0571 -0.2497  0.0035
 7283W        W22414   0.904   3.669  14.369  0.0679 -0.0183  0.1413
 7284W        W22415  16.163   8.414  14.548  0.2481  0.2660  0.0737
 7285W        W22416  13.521   5.042   5.959 -0.0853 -0.0902 -0.3283
 7286W        W22417  10.654   0.712   4.576  0.2118  0.1210  0.2388
 7287W        W22418   4.021  10.203  14.560  0.2247  0.1456  0.0040
 7288W        W22419   9.005  13.841   3.694  0.0681  0.3263  0.1805
 7289W        W22420   7.690   7.750  14.634 -0.0821  0.1544 -0.3232
 7290W        W22421  10.460  17.416  14.258 -0.1228  0.0471 -0.2847
 7291W        W22422  16.546  12.503   3.745  0.1550 -0.2128 -0.1397
 7292W        W22423   3.028   8.284  14.049  0.0143  0.0762  0.0511
 7293W        W22424   1.045   7.258   3.819 -0.0897  0.0934 -0.1818
 7294W        W22425   9.427   4.994  13.433  0.3349  0.0185  0.1160
 7295W        W22426   6.705  15.314   0.796 -0.1311 -0.0817 -0.1166
 7296W        W22427  15.244  12.577   4.202 -0.0653  0.2945 -0.1136
 7297W        W22428   4.273   3.491   2.285 -0.0153  0.0592  0.0508
 7298W        W22429  13.108  14.222  11.425 -0.1199 -0.2725  0.0767
 7299W        W22430   5.444  13.927  12.537 -0.2485  0.0895 -0.1899
 7300W        W22431   7.880  14.212   2.708 -0.0085  0.0978 -0.1708
 7301W        W22432  13.507  12.150  15.142 -0.3605 -0.0170  0.1038
 7302W        W22433   8.311  11.455   2.602 -0.0570  0.0309  0.2294
 7303W        W22434   3.124   6.447  12.571 -0.4315 -0.0448 -0.0658
 7304W        W22435   5.354  10.717  12.361  0.2528  0.2705  0.1638
 7305W        W22436  14.302  14.070  15.256 -0.1564  0.1626 -0.1404
 7306W        W22437   8.113   0.038  13.590  0.2082  0.1308  0.2606
 7307W        W22438   1.386  10.049   5.098 -0.0360  0.1353  0.0785
 7308W        W22439   9.228   7.556   2.535  0.0664  0.0664  0.0965
 7309W        W22440   5.283  16.178   1.297  0.1014  0.1328 -0.0142
 7310W        W22441  14.872   8.193   4.514  0.1688 -0.6211  0.3038
 7311W        W22442   8.363  14.096  11.632  0.2235  0.1435 -0.0383
 7312W        W22443  17.612  12.509   2.382  0.0961 -0.1118  0.1036
 7313W        W22444   4.099   3.619   0.767 -0.1591 -0.2246 -0.2771
 7314W        W22445   3.268   5.653   4.898  0.1685 -0.0136 -0.1383
 7315W        W22446  10.120   2.843   1.919 -0.0584 -0.3563 -0.2365
 7316W        W22447   7.546  18.110   0.095 -0.0544  0.0932 -0.3932
 7317W        W22448  15.993  14.550  12.897  0.0654  0.2586 -0.0068
 7318W        W22449   9.845  16.007  11.374  0.1232 -0.0705 -0.1316
 7319W        W22450   1.388   2.253  11.383 -0.2321  0.3084  0.0533
 7320W        W22451   6.985   1.450   0.807 -0.3253 -0.0073  0.0846
 7321W        W22452  10.056   7.560  12.301 -0.0129 -0.1321  0.2434
 7322W        W22453   2.130   0.635  11.865 -0.0968  0.1444  0.4091
 7323W        W22454  13.422  12.116  15.639 -0.1091 -0.1511 -0.1160
 7324W        W22455   4.387  10.116  11.564  0.2218  0.1097  0.3709
 7325W        W22456   1.749  15.549  12.281 -0.0841  0.3176 -0.0426
 7326W        W22457   1.254   8.097   1.360  0.0497 -0.1948 -0.2328
 7327W        W22458   9.290  14.476  14.801 -0.0249  0.0892  0.5716
 7328W        W22459   7.625   4.771  12.189  0.0757 -0.1738  0.0324
 7329W        W22460   7.792   4.201   3.596  0.2194  0.0462 -0.1570
 7330W        W22461  11.389   1.760  15.702  0.1121  0.0263  0.1952
 7331W        W22462  10.511  12.943   3.664  0.1401 -0.1116 -0.1261
 7332W        W22463  17.433   8.014  14.336 -0.1259  0.1885 -0.1256
 7333W        W22464   7.762  13.921   0.399 -0.1287  0.1093 -0.1357
 7334W        W22465   0.446  12.756  13.545 -0.1665  0.1807 -0.2265
 7335W        W22466  16.210   0.283   2.483 -0.1475 -0.1264  0.0475
 7336W        W22467   8.951   4.964  13.647  0.1452 -0.0412  0.1927
 7337W        W22468  15.314   2.449  10.933  0.0996  0.0613 -0.2146
 7338W        W22469  16.536  13.144  15.808 -0.0298  0.1224  0.1939
 7339W        W22470   9.540   6.266   1.398  0.0370 -0.2798  0.1321
 7340W        W22471   6.464  13.980   2.031  0.1967 -0.0292  0.2541
 7341W        W22472   4.858  12.559  11.243 -0.2222 -0.0765  0.2150
 7342W        W22473  16.686  11.822   3.206  0.2704 -0.2975  0.2209
 7343W        W22474  11.659   2.182   4.000 -0.1160 -0.3672 -0.1032
 7344W        W22475   1.355   3.579  13.297  0.0463 -0.1855 -0.2655
 7345W        W22476   9.513   3.602   2.206 -0.1002  0.1324  0.2915
 7346W        W22477  14.230   6.304   0.532  0.0454 -0.2789 -0.1145
 7347W        W22478   0.622   5.556  11.032 -0.2727 -0.2253 -0.0937
 7348W        W22479  11.973  12.465   0.260 -0.0744  0.1407 -0.0070
 7349W        W22480  13.776   2.726  12.708 -0.2975 -0.1659  0.1286
 7350W        W22481  17.516   1.645   6.071  0.3070 -0.0414 -0.0017
 7351W        W22482  15.425   9.599   1.152  0.0860  0.1414 -0.0664
 7352W        W22483   2.222  17.539   1.222 -0.1789 -0.1202 -0.0634
 7353W        W22484  10.986   4.735   5.828 -0.5051  0.2505 -0.0451
 7354W        W22485  14.932   1.737   4.081  0.0614 -0.0167 -0.2218
 7355W        W22486   2.066  13.447  15.183 -0.0660 -0.1385 -0.3584
 7356W        W22487  10.735  11.748  13.103  0.0715  0.4744 -0.1025
 7357W        W22488  11.028   3.544  12.096 -0.0490  0.0110 -0.3612
 7358W        W22489   3.880  15.876  11.944  0.1667  0.1480  0.1304
 7359W        W22490   8.297   8.543   3.637 -0.0946  0.0499  0.0113
 7360W        W22491  11.827  14.863   0.869 -0.5027 -0.2251 -0.0887
 7361W        W22492  12.153   8.410  10.971 -0.0131  0.2859 -0.0523
 7362W        W22493  17.788  15.587   0.696 -0.0603  0.2454  0.0639
 7363W        W22494   3.668  16.680  12.387 -0.0853 -0.0864  0.3547
 7364W        W22495   0.141   0.957  13.879 -0.0199 -0.3185 -0.1478
 7365W        W22496   8.014   7.486   0.408 -0.2989 -0.1120  0.0892
 7366W        W22497   5.210  15.070   1.291 -0.3194  0.0491  0.0139
 7367W        W22498   4.698   7.466  11.632 -0.0586  0.1014 -0.0953
 7368W        W22499  15.503   7.120  13.821 -0.1790  0.0843 -0.1291
 7369W        W22500   5.581   2.623   2.420 -0.0169 -0.5340  0.0661
 7370W        W22501   6.708   7.956   4.357 -0.0987  0.1680  0.1594
 7371W        W22502   5.621  12.546  14.482 -0.2614  0.0986 -0.4550
 7372W        W22503   6.041   3.514   4.817 -0.1072  0.0146 -0.1928
 7373W        W22504  15.944   8.912   2.938  0.1670  0.4201 -0.1665
 7374W        W22505   8.241  14.652   0.125 -0.0002 -0.0713 -0.1220
 7375W        W22506  17.081  10.177  12.314  0.1098  0.0515 -0.0307
 7376W        W22507   6.888  13.713  13.836 -0.4197 -0.1582 -0.0749
 7377W        W22508   8.927   9.604  14.633  0.1244  0.1462 -0.2617
 7378W        W22509   6.030   7.009   1.077 -0.2290  0.2804  0.3446
 7379W        W22510   8.284   0.566   2.060  0.2628 -0.2702  0.1465
 7380W        W22511  12.114  17.653  15.008 -0.2159  0.1985  0.2415
 7381W        W22512  17.573  14.584  12.768  0.0917  0.2175  0.1400
 7382W        W22513   0.321   1.792   0.767  0.1187 -0.0654  0.0007
 7383W        W22514  12.609  15.525  16.017 -0.0267  0.1394 -0.4129
 7384W        W22515   2.583   4.035  12.555  0.1507  0.1744 -0.1056
 7385W        W22516  15.321   6.584  13.704  0.1913  0.0402  0.2409
 7386W        W22517   4.065   5.070   3.203  0.1785  0.1803  0.0531
 7387W        W22518   7.485   7.331  15.326  0.0775 -0.3606  0.0405
 7388W        W22519  13.216  10.739   4.270  0.1208  0.0605 -0.2950
 7389W        W22520  16.449   7.102   4.339  0.2316  0.0234  0.1027
 7390W        W22521   3.658  17.363  14.575 -0.0822 -0.2143  0.1243
 7391W        W22522  12.512   7.049   4.763  0.0161  0.0999  0.0181
 7392W        W22523  15.007  17.872  15.932  0.0443 -0.2227 -0.0751
 7393W        W22524  10.066  17.641  13.643 -0.0024 -0.0362  0.0091
 7394W        W22525   8.031   5.583   0.002  0.2959 -0.4665 -0.0391
 7395W        W22526   5.202   3.316  11.742 -0.0545 -0.1148  0.1489
 7396W        W22527   1.238  17.930   4.892 -0.1482 -0.0461 -0.0055
 7397W        W22528  11.703   0.301   1.542 -0.0512 -0.1190 -0.0809
 7398W        W22529   6.217  14.658   9.400 -0.1932 -0.0115  0.1225
 7399W        W22530   1.168  12.194  13.433 -0.0862  0.2832  0.0552
 7400W        W22531  12.904   9.574   0.335  0.2164  0.2982 -0.1101
 7401W        W22532  13.449  17.293  12.455 -0.1265 -0.2476  0.1100
 7402W        W22533  14.864  13.169   0.666 -0.0839  0.3215  0.2245
 7403W        W22534   0.456  14.885  13.448 -0.4101  0.2937  0.1464
 7404W        W22535   4.678  16.264   1.385  0.0959 -0.1067  0.1312
 7405W        W22536   0.600  14.922   2.435  0.1037 -0.0923  0.0273
 7406W        W22537  16.459   9.763   1.260 -0.0939  0.2696  0.0738
 7407W        W22538   4.531   2.571  12.323 -0.1994 -0.1725 -0.1156
 7408W        W22539   3.318   0.825   0.752 -0.0503 -0.0073  0.0411
 7409W        W22540   1.671   5.336  13.582  0.1049 -0.0172  0.3458
 7410W        W22541  17.385  14.497  13.277  0.0453 -0.1801  0.2482
 7411W        W22542  11.366   5.656  10.441  0.1082  0.2526 -0.0769
 7412W        W22543   2.044  12.470   0.984  0.2006  0.1083  0.1540
 7413W        W22544  10.812  15.917   4.790  0.2601  0.0206  0.0648
 7414W        W22545   3.032   7.080   1.512  0.3123 -0.3100  0.2290
 7415W        W22546   8.568  16.367  12.351  0.2878 -0.0342  0.0467
 7416W        W22547   2.069   0.169   4.875  0.1933  0.3908  0.0390
 7417W        W22548   0.048   6.410   0.059  0.0819  0.0550  0.2897
 7418W        W22549  12.154   0.290  13.984  0.1014 -0.0423  0.0386
 7419W        W22550   9.613   0.493  15.256  0.1255  0.2429  0.1645
 7420W        W22551  17.076  10.966   3.492  0.1587 -0.0547  0.1685
 7421W        W22552   3.653  15.251  12.504  0.1865 -0.0243  0.0299
 7422W        W22553   8.181  17.285  10.282  0.0853  0.1334  0.1908
 7423W        W22554  17.571   4.445   1.784  0.2331 -0.2035  0.1910
 7424W        W22555   2.802   5.805   2.158 -0.0942 -0.0793 -0.2062
 7425W        W22556   7.405   1.362   5.805  0.1059 -0.2662 -0.2780
 7426W        W22557  15.998  12.534  15.191  0.3220  0.1810 -0.0480
 7427W        W22558   7.646  17.964   1.201  0.0933  0.1576 -0.3450
 7428W        W22559  13.767  11.083  11.762 -0.1569 -0.1178 -0.3451
 7429W        W22560  16.039  16.683  11.396 -0.0425 -0.2384  0.1889
 7430W        W22561  11.778   5.748  11.788  0.0023 -0.0752 -0.1120
 7431W        W22562  11.626   7.262  16.067 -0.0850 -0.0167 -0.0183
 7432W        W22563  12.792  17.248   1.690  0.0820 -0.0157 -0.2311
 7433W        W22564  15.965   0.901   3.172 -0.1072  0.0335 -0.0257
 7434W        W22565   1.583  18.006   3.744  0.0993  0.2073  0.0346
 7435W        W22566  10.027  17.405   0.977  0.0348  0.0506 -0.1757
 7436W        W22567  16.324  17.062  11.689 -0.2202  0.1008 -0.2707
 7437W        W22568   5.459   4.573   0.151 -0.1633  0.0138  0.0106
 7438W        W22569  11.640  15.239  13.835  0.0455  0.1924 -0.4777
 7439W        W22570  16.594   0.963  14.088 -0.0629 -0.0494  0.1979
 7440W        W22571   0.665  12.147  13.567 -0.0296  0.1727  0.2963
 7441W        W22572   7.591   8.375   2.415  0.1307 -0.2188 -0.2065
 7442W        W22573  15.611   9.483   4.688 -0.0256  0.1990 -0.0318
 7443W        W22574   0.248   3.538  12.998  0.1991 -0.1070 -0.1219
 7444W        W22575   4.998  13.458  15.191  0.1101  0.2152 -0.0286
 7445W        W22576   3.470   7.383   3.637  0.2629  0.0298 -0.1463
 7446W        W22577  10.724   8.188   6.432 -0.1725 -0.1118  0.1093
 7447W        W22578  17.263   7.444   5.467  0.1829  0.0956  0.2095
 7448W        W22579   4.691   2.919   4.232  0.0366  0.2054 -0.1548
 7449W        W22580  15.210   4.216   0.102  0.0276  0.2046 -0.0298
 7450W        W22581   2.894   7.093   4.384  0.0179  0.1388 -0.2950
 7451W        W22582   8.392   6.134  15.895 -0.0553  0.0187  0.3173
 7452W        W22583  14.367   8.101   3.267  0.1875  0.1410  0.1203
 7453W        W22584   2.812  16.289  12.355  0.0751  0.0675 -0.1799
 7454W        W22585  15.213   0.062  12.043 -0.1092  0.1828  0.1384
 7455W        W22586   3.786   4.186   9.740 -0.2116 -0.2606  0.0537
 7456W        W22587  10.242  10.840  12.248 -0.0555  0.0313  0.0769
 7457W        W22588  15.860  10.075   5.495 -0.0714 -0.0645  0.0848
 7458W        W22589   9.639   5.236   5.435  0.1975  0.1236  0.2814
 7459W        W22590  13.550  15.105  13.000  0.1158  0.2079 -0.1673
 7460W        W22591   2.128   0.645  12.450  0.2771 -0.2517  0.1529
 7461W        W22592   0.841   0.098   4.395  0.0417  0.0593  0.0714
 7462W        W22593  15.671  15.857   4.562  0.0268 -0.4710  0.0086
 7463W        W22594  14.774   8.984  11.101 -0.1089  0.1144 -0.2014
 7464W        W22595   6.715   3.096   1.294 -0.2035  0.0480  0.2072
 7465W        W22596  13.899   3.890  15.545 -0.4820 -0.3180  0.0900
 7466W        W22597   2.793   8.900   3.665 -0.1455  0.1540 -0.2876
 7467W        W22598  11.523  16.214   0.939  0.1857 -0.1709  0.1278
 7468W        W22599  15.682   0.404   2.370 -0.2922 -0.1317 -0.1094
 7469W        W22600  11.726  11.913  12.646  0.1023  0.0327  0.3465
 7470W        W22601  14.028   9.643   4.018 -0.0164  0.0513  0.1695
 7471W        W22602  15.418  16.003   1.267  0.1467  0.1948 -0.0222
 7472W        W22603   6.212   7.314  13.679 -0.0775 -0.2759 -0.1393
 7473W        W22604  11.062   6.508   0.870  0.2731 -0.0795 -0.2937
 7474W        W22605   0.663   3.901   2.482  0.0282  0.0128 -0.0997
 7475W        W22606   1.356  10.147  15.251 -0.1399 -0.1595  0.4979
 7476W        W22607   4.662   8.205   3.228  0.1731 -0.1033 -0.1134
 7477W        W22608   9.718  10.057  11.418 -0.0274  0.0152  0.0293
 7478W        W22609  10.010   7.825   5.178 -0.0337  0.3330 -0.2400
 7479W        W22610   4.876   4.059   1.766 -0.1767  0.1434  0.0747
 7480W        W22611  15.529  15.281   5.889  0.1658  0.4147  0.1101
 7481W        W22612   0.002   8.481   2.105  0.2508 -0.3308 -0.0871
 7482W        W22613  14.157  14.414   1.108  0.1635  0.1618  0.0842
 7483W        W22614  14.081  13.491   0.714 -0.0889  0.2138  0.0621
 7484W        W22615   3.734  14.609  14.896  0.1488  0.0801 -0.1076
 7485W        W22616  12.673  14.894  11.554  0.1468  0.0419  0.1503
 7486W        W22617  14.441   0.580   4.893  0.0035 -0.0552  0.0366
 7487W        W22618   8.296  11.739   4.362  0.0404 -0.0231 -0.1585
 7488W        W22619   4.251  11.907  14.633 -0.0850 -0.1321  0.0781
 7489W        W22620  10.797  13.751   2.691  0.0258  0.2047  0.0996
 7490W        W22621  17.298  14.874  15.276  0.1981  0.0070 -0.0843
 7491W        W22622  11.518   4.682  12.448  0.1544 -0.0078 -0.4266
 7492W        W22623  12.461   9.153   3.085 -0.2261  0.1675  0.0602
 7493W        W22624   6.622   5.770  16.107 -0.0758  0.0355  0.2679
 7494W        W22625  10.793  17.681  11.780  0.0407 -0.1463 -0.1415
 7495W        W22626  12.524  10.206   1.447 -0.0792  0.0343  0.0793
 7496W        W22627   1.978   2.300   2.255  0.0782  0.0049 -0.0408
 7497W        W22628   3.584  11.117   1.560  0.1601  0.2320 -0.1612
 7498W        W22629   9.908   7.126   4.444  0.1896  0.3000 -0.0696
 7499W        W22630  16.397   9.590  14.638  0.1664  0.0504 -0.2415
 7500W        W22631   6.259   7.102   0.298  0.0696 -0.0286 -0.1268
 7501W        W22632   9.317  14.760  13.949  0.2037 -0.1307 -0.1587
 7502W        W22633   8.583  18.144   5.612 -0.2972  0.0072  0.1345
 7503W        W22634   9.798   2.944   3.788 -0.0561  0.0230 -0.3413
 7504W        W22635   1.530   2.058  15.423 -0.1598 -0.2667 -0.0270
 7505W        W22636  15.223   0.002  12.909  0.1855 -0.4830  0.2627
 7506W        W22637   1.547  12.764  11.713 -0.3203  0.3918 -0.0152
 7507W        W22638   4.766   0.359  11.549 -0.0131  0.1519  0.0453
 7508W        W22639   6.140  14.635   1.187  0.0516 -0.1053 -0.1999
 7509W        W22640   9.905  16.357   0.637  0.2379  0.1679 -0.1049
 7510W        W22641  10.813  10.950   3.877 -0.0568 -0.2529 -0.4805
 7511W        W22642  11.129   6.969   3.096  0.0404  0.2261  0.0963
 7512W        W22643   4.179   0.384  14.120 -0.0391 -0.1223  0.0742
 7513W        W22644  17.327   2.851   3.029 -0.1803 -0.3519 -0.1119
 7514W        W22645  17.497   7.271  12.983 -0.1236  0.0053  0.0950
 7515W        W22646   1.035   3.947  11.857  0.1736 -0.0221  0.1141
 7516W        W22647   3.153  16.064  11.985 -0.1464  0.0687  0.1057
 7517W        W22648   1.221   3.161  13.138 -0.0192 -0.1101  0.0583
 7518W        W22649  17.225   7.645   1.278 -0.2863  0.3036 -0.1787
 7519W        W22650  13.490   3.139  15.755 -0.0413  0.2556 -0.0322
 7520W        W22651  13.018  10.932   3.392  0.0696  0.0690 -0.0259
 7521W        W22652  17.920  15.242   6.022 -0.0931 -0.1187 -0.0156
 7522W        W22653   6.660  13.531  12.133 -0.1726 -0.1356  0.2289
 7523W        W22654   0.237   2.011  12.711  0.0075  0.2715  0.2329
 7524W        W22655   9.972   8.001  12.530 -0.0303 -0.2087 -0.3533
 7525W        W22656  16.894   8.539   4.557  0.2602  0.0932  0.0679
 7526W        W22657   6.042   9.837   0.064  0.1442 -0.0703 -0.2701
 7527W        W22658  13.059  15.931  11.074  0.0835 -0.0881 -0.2823
 7528W        W22659  11.020  12.896   4.571 -0.0539 -0.0901 -0.1985
 7529W        W22660  17.566   7.261   2.545 -0.0012 -0.1457  0.1070
 7530W        W22661   9.211  14.438   4.586  0.2010  0.2752 -0.2225
 7531W        W22662   3.118  13.501  14.768 -0.0177 -0.2126 -0.0798
 7532W        W22663   2.309   2.419   4.079 -0.1131  0.0997  0.1983
 7533W        W22664   8.811   4.370  12.831 -0.1337  0.2246 -0.2579
 7534W        W22665   5.659  13.805  14.150  0.2035  0.6550 -0.2231
 7535W        W22666  17.260  13.252  11.429 -0.0900  0.1225 -0.0246
 7536W        W22667  15.411   3.117   0.968 -0.0500  0.1748  0.0627
 7537W        W22668   5.154  12.497  15.323  0.0202  0.3774  0.2339
 7538W        W22669  10.784   9.040  11.503  0.2965  0.3330  0.0615
 7539W        W22670  10.892  10.892  15.756 -0.2427  0.2508 -0.0755
 7540W        W22671  13.814   8.932  14.959 -0.1219 -0.0280 -0.3655
 7541W        W22672   9.465   7.657  14.485  0.3670 -0.0171 -0.2796
 7542W        W22673   9.733   8.054  15.541 -0.0911  0.1706 -0.3211
 7543W        W22674  13.573  10.682   3.326  0.1456 -0.1120 -0.1028
 7544W        W22675  12.425   6.760  15.591  0.2264 -0.1040  0.2064
 7545W        W22676   1.103   8.931  11.688  0.1703 -0.0667  0.2343
 7546W        W22677  15.265   1.965  15.233 -0.2045 -0.0761  0.0828
 7547W        W22678   8.267   0.020   3.377 -0.2746  0.1826  0.5476
 7548W        W22679  11.903  11.157  12.249  0.0754  0.0766 -0.3664
 7549W        W22680  15.945   5.607   1.419 -0.0698  0.1726 -0.0147
 7550W        W22681   0.773   7.740   0.757  0.1679  0.1134  0.1142
 7551W        W22682  10.289   0.870   3.558  0.1727  0.1097 -0.1454
 7552W        W22683   7.636  12.602   3.489  0.2534 -0.3150 -0.1496
 7553W        W22684   4.489   5.234   2.518 -0.1597  0.1299 -0.1651
 7554W        W22685  10.796  12.869  14.263  0.2143 -0.2952 -0.1152
 7555W        W22686  11.021   4.928  12.799  0.1731 -0.2944  0.0088
 7556W        W22687   9.953  17.122   2.627  0.1441  0.2335 -0.1619
 7557W        W22688  14.405  17.668  15.137 -0.0266 -0.4289  0.0650
 7558W        W22689  10.606  13.520   0.923 -0.2214  0.0427 -0.0240
 7559W        W22690  17.764   9.418   5.748 -0.0649  0.1851  0.0822
 7560W        W22691  15.002   0.818   1.482 -0.0186  0.1515  0.2766
 7561W        W22692  13.681   1.274   3.947 -0.1968 -0.3059 -0.1750
 7562W        W22693   5.094  13.131   1.344 -0.1816  0.0648 -0.2041
 7563W        W22694   5.550   3.634  11.576 -0.1816  0.1248 -0.0846
 7564W        W22695   0.305   5.275  14.684  0.0822  0.1760  0.1824
 7565W        W22696  10.046   5.223  10.827 -0.1732 -0.1032 -0.0858
 7566W        W22697   1.282   4.843   1.108 -0.1979 -0.1652 -0.0360
 7567W        W22698   4.038  11.732   4.099 -0.0990  0.2086  0.3316
 7568W        W22699   2.082   0.150  12.623  0.1068 -0.0999  0.2008
 7569W        W22700   6.407   8.950   5.132 -0.3395 -0.3028  0.0697
 7570W        W22701  11.966  16.057  11.983 -0.2593 -0.0221  0.0716
 7571W        W22702   4.904  11.940   4.712 -0.3369  0.3643 -0.2517
 7572W        W22703   6.083  15.294  10.567 -0.2817  0.1430  0.2494
 7573W        W22704   2.539  12.308   0.369 -0.0590 -0.0515  0.1839
 7574W        W22705  17.642   3.264  12.366  0.1925 -0.0200  0.0053
 7575W        W22706  16.762  17.577   4.744 -0.1566 -0.1013 -0.2972
 7576W        W22707   7.130   3.499  15.249 -0.0137  0.2373 -0.5614
 7577W        W22708   2.795   6.499   5.288  0.2387  0.2995  0.0481
 7578W        W22709   2.949  10.429  11.197  0.0585  0.1955  0.0788
 7579W        W22710   2.527  16.509   2.805  0.2531  0.0880 -0.2776
 7580W        W22711   9.311   1.408   2.391  0.1599 -0.0274  0.3073
 7581W        W22712  17.687   3.336   2.246 -0.3642  0.1576 -0.1292
 7582W        W22713   2.769   0.758  13.833  0.2489 -0.1710 -0.0359
 7583W        W22714   1.398  17.594  11.123 -0.2453 -0.1483 -0.2742
 7584W        W22715   0.123   5.503   0.587 -0.0658  0.2055  0.0617
 7585W        W22716  16.787  13.279   0.572 -0.0925  0.1094  0.1844
 7586W        W22717   9.029   0.975  13.963 -0.0024 -0.0866 -0.1998
 7587W        W22718   6.142  13.484   5.666 -0.0122 -0.0053 -0.1061
 7588W        W22719  12.888  17.124   4.687  0.0345 -0.3512  0.0051
 7589W        W22720   9.006  16.466   3.476 -0.1916  0.0789 -0.2885
 7590W        W22721  17.384  12.033  12.264 -0.2544 -0.1799 -0.1487
 7591W        W22722   2.257  13.117  13.515  0.0718  0.3428 -0.1273
 7592W        W22723  12.191   1.870   5.279  0.3906  0.2236  0.1190
 7593W        W22724  11.296   6.109   3.028 -0.3046  0.0800  0.2142
 7594W        W22725   3.359  11.155  12.587 -0.1029  0.0258 -0.2215
 7595W        W22726  10.364  14.681  16.014  0.0042 -0.3131 -0.1577
 7596W        W22727   4.878  13.714   2.256  0.0238 -0.0358  0.0659
 7597W        W22728   0.148   0.541  11.205 -0.0703 -0.0142  0.2166
 7598W        W22729   6.085   4.125  12.776  0.1088  0.0238 -0.1142
 7599W        W22730   3.025  14.082  12.034  0.2052 -0.0449 -0.0212
 7600W        W22731   3.054   8.773  12.321 -0.2158  0.1422 -0.3338
 7601W        W22732  12.750   3.672  11.895  0.0099  0.0164  0.1754
 7602W        W22733  15.760  13.932  14.560 -0.1203 -0.1202 -0.3639
 7603W        W22734  11.620  12.100  12.113  0.1253 -0.1336  0.0081
 7604W        W22735  13.288   2.469  15.282  0.2843 -0.0659 -0.1725
 7605W        W22736   4.176   7.683  14.504 -0.0894  0.1964  0.1431
 7606W        W22737  11.629  15.279  15.290  0.2004 -0.1073  0.2741
 7607W        W22738   4.582   7.880  11.354  0.1027 -0.2828 -0.0523
 7608W        W22739   5.950  13.291   4.357  0.1026  0.0574 -0.2138
 7609W        W22740   2.536   5.124  16.059 -0.1238  0.4121  0.2658
 7610W        W22741  12.408  15.897   3.881  0.1245  0.2284 -0.1878
 7611W        W22742   8.848  14.264   0.192 -0.2847  0.2050  0.0936
 7612W        W22743   8.026   6.140   0.807  0.0165 -0.0538 -0.2454
 7613W        W22744   1.420   9.691   1.355  0.5197  0.0738 -0.3472
 7614W        W22745   6.218   6.278   2.587  0.1396 -0.0224 -0.0155
 7615W        W22746   9.787   4.422  15.444 -0.0754  0.0544  0.1988
 7616W        W22747   8.841  10.893  14.710  0.2013 -0.0032 -0.0500
 7617W        W22748  15.740   3.816   1.436  0.1117  0.2943  0.1776
 7618W        W22749   7.305   7.225  11.169 -0.3303  0.0517 -0.2010
 7619W        W22750  16.461  15.331  14.091 -0.2525  0.1749  0.3209
 7620W        W22751   5.062  13.645  14.735 -0.0963 -0.0573  0.2714
 7621W        W22752  11.067  11.552   3.462  0.2783  0.2235 -0.1152
 7622W        W22753  13.273   7.327   4.985  0.2213  0.3075  0.2314
 7623W        W22754  18.022   6.324  11.421  0.1133  0.0129 -0.2368
 7624W        W22755  12.540  15.596   1.740 -0.1463 -0.1665  0.2904
 7625W        W22756  15.987  10.994   1.054 -0.0696  0.2115  0.1932
 7626W        W22757   5.681  15.850   3.904 -0.0118  0.0582  0.2704
 7627W        W22758  11.870  11.730   1.053 -0.1737 -0.1535 -0.0963
 7628W        W22759  14.432   0.012  16.113  0.3931  0.0911 -0.1824
 7629W        W22760   1.808  14.780   4.240  0.0118 -0.0870 -0.1024
 7630W        W22761   9.316   4.253   5.230  0.1103 -0.1533  0.1310
 7631W        W22762   6.097   4.452   5.546 -0.4439 -0.0114 -0.3180
 7632W        W22763  14.341  11.568   4.045 -0.0910 -0.2039 -0.3097
 7633W        W22764   9.197   3.406  15.421  0.1383 -0.1242 -0.0610
 7634W        W22765  18.120   1.096   1.718  0.0008  0.0809  0.2053
 7635W        W22766  10.253  18.149   4.213 -0.1342 -0.0622  0.1925
 7636W        W22767   1.550  16.084  11.939  0.3048  0.2097  0.0534
 7637W        W22768  13.619   1.640  11.773  0.0333 -0.0496 -0.1491
 7638W        W22769  10.047  14.605  11.295  0.3112 -0.0038  0.0172
 7639W        W22770  14.368   3.067  15.223 -0.0979 -0.3946 -0.0260
 7640W        W22771  14.781   2.260   2.458  0.0234 -0.3189  0.1518
 7641W        W22772   2.986   1.452  12.486  0.1896  0.3076  0.4010
 7642W        W22773   1.674  11.964  15.736 -0.0951  0.1522 -0.0213
 7643W        W22774  16.361  11.922   1.224  0.1752 -0.1884 -0.0214
 7644W        W22775   6.489   5.772   3.287  0.1293 -0.0839  0.1115
 7645W        W22776  12.518   3.748  15.345  0.1900  0.0605  0.0161
 7646W        W22777   8.754  15.699  14.896  0.0308  0.0173 -0.2069
 7647W        W22778   2.374   2.025   9.861 -0.1827  0.4924  0.1984
 7648W        W22779   1.190  15.929   1.920  0.0114 -0.0828 -0.1314
 7649W        W22780   4.186   7.713  15.963 -0.0149 -0.1357 -0.0958
 7650W        W22781  14.208   4.672  11.497 -0.3579  0.3356  0.0210
 7651W        W22782  16.067   9.539  15.605 -0.4218 -0.0847  0.2547
 7652W        W22783   2.706   1.482   4.002  0.1603  0.3037 -0.4089
 7653W        W22784   9.781  12.464  10.826  0.1662 -0.2789 -0.0089
 7654W        W22785   3.816  16.825  16.043  0.2870  0.2665 -0.1614
 7655W        W22786  15.011   3.033   2.720  0.2763  0.1378 -0.1030
 7656W        W22787   8.821   7.119   3.237 -0.2801 -0.0133  0.1607
 7657W        W22788   4.125  17.359  14.424  0.0727  0.2866 -0.2335
 7658W        W22789   8.654   1.338   0.052 -0.2899 -0.0054  0.2888
 7659W        W22790   4.057   3.602  14.075  0.3161 -0.0200 -0.0591
 7660W        W22791   8.010  14.733  10.896 -0.0391  0.0347 -0.0467
 7661W        W22792   3.935   4.323  10.733 -0.1799  0.0969 -0.1657
 7662W        W22793   2.709  11.221  13.941  0.0509  0.0590 -0.3797
 7663W        W22794   0.575  12.985   3.104  0.0457  0.0428  0.0494
 7664W        W22795   5.666   3.590   2.639 -0.1968 -0.0495 -0.0728
 7665W        W22796   3.961  10.248   3.431  0.1249 -0.0739 -0.2385
 7666W        W22797  12.141   1.017  12.236  0.1794  0.1646 -0.1094
 7667W        W22798   8.927  13.764   9.472 -0.1083  0.1273  0.1169
 7668W        W22799   3.927   4.145   1.081  0.0784 -0.1968 -0.0739
 7669W        W22800  15.614  12.562   0.847 -0.0595 -0.2347 -0.3284
 7670W        W22801  17.263  15.830  14.277  0.1128  0.2170 -0.2341
 7671W        W22802  11.601   7.967   1.108 -0.3164  0.1453  0.2879
 7672W        W22803   9.772   3.140   0.949  0.0013 -0.0852  0.0332
 7673W        W22804  13.475   7.425  11.819 -0.3421  0.1954 -0.0813
 7674W        W22805   3.271   6.164   5.119  0.0738 -0.3179 -0.1169
 7675W        W22806   7.023  17.509   2.429 -0.0065  0.0683  0.2797
 7676W        W22807   9.650  14.031  12.500  0.0624  0.1238  0.0831
 7677W        W22808   4.152   4.248  13.574 -0.0275  0.0728  0.3646
 7678W        W22809   0.209   7.547   0.948 -0.1137 -0.1033 -0.2400
 7679W        W22810   5.981  16.234  13.740 -0.0257 -0.0996  0.3202
 7680W        W22811  13.115  10.583  11.449 -0.0437 -0.0703 -0.2582
 7681W        W22812  14.264  12.546   1.041  0.1978 -0.0876  0.0683
 7682W        W22813   2.378   4.567   4.040 -0.0424 -0.1650  0.1151
 7683W        W22814   1.941   8.392   2.596 -0.4802  0.1475  0.1850
 7684W        W22815   8.445  15.329   1.961 -0.1571  0.1157 -0.0166
 7685W        W22816   6.595   4.000  15.558  0.0661 -0.1640 -0.0383
 7686W        W22817  17.653  15.887  11.372 -0.1102 -0.1048 -0.0975
 7687W        W22818   8.408  16.588   0.835  0.0421  0.2893 -0.1706
 7688W        W22819   5.304   3.613   9.941  0.1532 -0.0727  0.1126
 7689W        W22820   0.717   1.860  14.457  0.1575  0.0488 -0.0704
 7690W        W22821  10.958  13.505  10.807 -0.1635  0.3553 -0.3069
 7691W        W22822  10.733   3.887   2.374 -0.0556 -0.0690  0.0980
 7692W        W22823  14.219   4.653  15.431  0.1640 -0.0986 -0.2102
 7693W        W22824   6.007  13.555  13.877 -0.0999  0.1469  0.1451
 7694W        W22825   2.244  11.936   4.364  0.1747  0.0626  0.0964
 7695W        W22826  11.559   3.511  12.022 -0.2573  0.1313 -0.0515
 7696W        W22827   6.963   0.906  13.139  0.3437 -0.1307 -0.2008
 7697W        W22828   9.230  16.849   0.058 -0.0269 -0.1242  0.1280
 7698W        W22829   3.229   1.987  14.460 -0.4180 -0.1186  0.1159
 7699W        W22830   5.683  11.703   0.343  0.1229  0.0649 -0.0124
 7700W        W22831  17.055  17.122  14.705 -0.1679 -0.1670  0.2319
 7701W        W22832  12.226  13.432   0.162 -0.2742 -0.0267  0.0048
 7702W        W22833  13.161   6.046   2.242 -0.2200 -0.0624 -0.1304
 7703W        W22834   3.118   5.615  13.380 -0.0816  0.3957  0.0586
 7704W        W22835   9.500   9.931   2.586 -0.0869 -0.1530 -0.1446
 7705W        W22836   0.453   0.381   4.842 -0.3085  0.1758  0.1730
 7706W        W22837   5.817   6.207  12.871  0.3142  0.2252  0.2291
 7707W        W22838  14.747   8.843  13.659 -0.2157  0.0827 -0.3010
 7708W        W22839  11.350  17.029   3.151 -0.3073  0.0388 -0.0248
 7709W        W22840   1.948  14.917   5.252 -0.1361  0.0496 -0.2533
 7710W        W22841  18.143   8.653   5.307 -0.0746  0.2646  0.0834
 7711W        W22842   9.503  15.077   1.121 -0.3960  0.1817 -0.2088
 7712W        W22843  11.204  14.585  12.679  0.0477 -0.0216  0.0470
 7713W        W22844   5.605   3.919  14.310 -0.3433  0.0551  0.0795
 7714W        W22845   5.023  11.122   9.673  0.0420  0.2916 -0.2517
 7715W        W22846  11.199   8.465   0.397  0.0474  0.2404 -0.0217
 7716W        W22847   3.944  14.669   6.075 -0.0717  0.1009  0.3782
 7717W        W22848   3.168  14.174   0.789 -0.3714  0.1190  0.0284
 7718W        W22849  13.566  16.993   0.198  0.2411 -0.0083  0.1258
 7719W        W22850  16.117  14.569  13.408 -0.0284  0.4646  0.0761
 7720W        W22851   1.090  10.374   2.522 -0.1293  0.3000 -0.0338
 7721W        W22852   7.624   8.311   5.203 -0.0925 -0.0906  0.2244
 7722W        W22853   2.400   1.944   2.290  0.2217 -0.1442 -0.2073
 7723W        W22854   8.115  11.426   5.368  0.3085 -0.0725  0.0668
 7724W        W22855   1.302  17.370   2.390 -0.0898 -0.0620 -0.2631
 7725W        W22856   8.107  12.613   4.258 -0.5295  0.0826  0.1602
 7726W        W22857   9.709   2.291  11.977 -0.0473 -0.0132 -0.1473
 7727W        W22858  13.165  17.945  15.949 -0.0051 -0.3042  0.0386
 7728W        W22859   5.175   5.632   1.205  0.2118 -0.5100  0.1510
 7729W        W22860  12.106  15.420   3.162 -0.0669  0.0133  0.3493
 7730W        W22861   8.623   6.307  14.377 -0.1350  0.0540  0.1933
 7731W        W22862  12.565   1.593   3.454 -0.4259 -0.4187 -0.0757
 7732W        W22863   1.012  17.983   1.058  0.1825 -0.0823 -0.1553
 7733W        W22864  17.390  12.764   3.566  0.1428  0.0223  0.1289
 7734W        W22865   9.132   6.375  13.013  0.0545 -0.0621 -0.3051
 7735W        W22866  12.666  11.773   2.200 -0.2914  0.2647 -0.0551
 7736W        W22867   0.894  11.046   0.812  0.0753  0.0326 -0.3204
 7737W        W22868   3.343  17.068  14.291 -0.0261  0.1800 -0.0778
 7738W        W22869   4.968  16.797  12.348 -0.0339  0.0514 -0.0199
 7739W        W22870  16.501   5.987   3.732 -0.3548 -0.3784  0.0463
 7740W        W22871  11.764   8.237  13.988 -0.2108 -0.1234  0.1559
 7741W        W22872   6.649  12.583  13.205  0.2212  0.0694 -0.0220
 7742W        W22873  13.786  10.305   1.241 -0.0912  0.1850  0.0869
 7743W        W22874  11.014   3.292   5.472  0.2690  0.1470 -0.0984
 7744W        W22875  17.894  11.887  14.973  0.3424 -0.2171  0.2147
 7745W        W22876  12.696  12.417   3.590  0.0274  0.2921 -0.2858
 7746W        W22877  10.038   1.209   3.287  0.0470 -0.1555 -0.2112
 7747W        W22878  11.916   6.867  15.863  0.2109 -0.0950  0.1840
 7748W        W22879   6.411   1.906   1.493  0.1167  0.3044 -0.3154
 7749W        W22880   8.236   6.384  13.344 -0.2665  0.1556 -0.1447
 7750W        W22881  14.957  13.520   1.755  0.1094 -0.0680  0.1273
 7751W        W22882  17.782  12.486   4.492 -0.2030  0.0815  0.0390
 7752W        W22883   4.222  16.159  15.850  0.0393 -0.2228  0.1412
 7753W        W22884   7.043  10.319   4.440 -0.0771  0.0396  0.2726
 7754W        W22885   0.661   7.341   2.028  0.1828  0.0959  0.1647
 7755W        W22886   0.516  15.139   4.549  0.0307  0.0272 -0.2559
 7756W        W22887   5.045  11.341  14.425 -0.0186  0.0672  0.0645
 7757W        W22888  16.456  10.642   4.873 -0.2132  0.1286 -0.1151
 7758W        W22889  11.481  18.108  11.440  0.1605 -0.2048 -0.2528
 7759W        W22890   3.711   5.296   4.127 -0.3035 -0.1963 -0.1286
 7760W        W22891   6.698   6.499  14.858  0.0400  0.3052  0.1260
 7761W        W22892  10.625   8.311  11.764 -0.1183  0.2372  0.0625
 7762W        W22893   8.045   4.269   5.260  0.0155 -0.0467 -0.1141
 7763W        W22894   1.327   5.114  10.821 -0.0910 -0.3915  0.1881
 7764W        W22895   2.448   7.517   5.132  0.2238 -0.0685 -0.1114
 7765W        W22896  10.595   1.999  13.597 -0.0753 -0.0047 -0.0997
 7766W        W22897   8.836  13.716  10.930 -0.2948 -0.0020 -0.4778
 7767W        W22898   0.903  14.240  13.629  0.0156 -0.1254 -0.1121
 7768W        W22899  14.429  16.733   3.742  0.3261  0.0157 -0.3277
 7769W        W22900  15.370   6.260   1.796  0.0737 -0.0196 -0.3916
 7770W        W22901   8.814  10.661  13.749  0.0630 -0.0827 -0.2699
 7771W        W22902   3.121   3.483   2.931 -0.0359  0.0029 -0.1664
 7772W        W22903   7.954  15.169  12.130  0.0607  0.1801  0.0789
 7773W        W22904  12.365  11.108   3.059 -0.0409 -0.0691  0.0216
 7774W        W22905  17.242  13.631  15.431 -0.2827 -0.1159 -0.2308
 7775W        W22906  13.380   4.247   6.343 -0.0112  0.2360  0.2373
 7776W        W22907   1.778   9.690   3.361  0.2518  0.0487  0.1487
 7777W        W22908  11.731  14.432   1.074 -0.0609 -0.1183 -0.0270
 7778W        W22909   6.585   6.841  10.838  0.1708 -0.1396  0.2702
 7779W        W22910  10.734   8.161  10.096 -0.0395 -0.0197 -0.1110
 7780W        W22911   4.061  10.051  12.604 -0.0980 -0.1271  0.0080
 7781W        W22912   3.425   2.792  10.513 -0.0063 -0.0311 -0.0129
 7782W        W22913  16.843   2.725   3.139 -0.0228 -0.1997 -0.0025
 7783W        W22914   3.702   7.109  15.289  0.3045  0.1973  0.0415
 7784W        W22915  12.803   3.728   5.105 -0.2401  0.1783  0.0457
 7785W        W22916   7.336  16.282   3.867 -0.0471  0.0509  0.3804
 7786W        W22917   9.019  15.222  15.055 -0.0080  0.1987 -0.0273
 7787W        W22918   5.165   5.479  12.332  0.1357  0.3495  0.2123
 7788W        W22919  10.104   9.136   0.978  0.0588 -0.1610 -0.0887
 7789W        W22920   3.453   5.167  15.039 -0.3883  0.3050  0.1221
 7790W        W22921  16.100   0.504   3.566  0.3423  0.2548 -0.2839
 7791W        W22922  16.899  16.263   0.255 -0.0650  0.1973 -0.0553
 7792W        W22923  15.224   5.497   0.684  0.1425 -0.0851 -0.1966
 7793W        W22924   7.293   3.846  14.859 -0.1586 -0.1550 -0.1957
 7794W        W22925   8.379  10.634   1.018 -0.1315 -0.2605  0.1445
 7795W        W22926   7.886   7.945  16.161  0.0917  0.1646 -0.0976
 7796W        W22927  15.715   6.421  15.567 -0.1868  0.1774  0.0380
 7797W        W22928   0.707  16.347  14.106 -0.0356 -0.1021  0.0228
 7798W        W22929  17.142   4.519   2.168 -0.1849  0.1343  0.0613
 7799W        W22930  14.159  17.107   4.335 -0.0962 -0.2047 -0.1796
 7800W        W22931   6.206   0.151   1.021 -0.1441  0.2049 -0.0292
 7801W        W22932   6.593   3.529   4.506 -0.0244 -0.2448  0.5350
 7802W        W22933   4.309  10.532   1.749  0.2197 -0.0320 -0.2088
 7803W        W22934   5.153   5.545  16.038 -0.0750 -0.3729  0.0549
 7804W        W22935  10.279  12.223   4.379 -0.0582  0.1463 -0.0298
 7805W        W22936  18.032   9.213   4.976  0.3364  0.1621  0.1988
 7806W        W22937   2.325  12.812   3.194  0.0413 -0.1641  0.2312
 7807W        W22938   4.053   1.400  13.444 -0.0755 -0.0050 -0.1130
 7808W        W22939   4.770   2.726  15.959  0.3364 -0.3043 -0.0696
 7809W        W22940   9.815   4.938   4.997 -0.0452  0.0436 -0.2538
 7810W        W22941   4.026   7.232  13.671 -0.0052  0.0308 -0.0428
 7811W        W22942   2.974  13.156   2.675  0.0785 -0.0620  0.2361
 7812W        W22943  10.995   8.494   2.759  0.1486  0.0899 -0.0001
 7813W        W22944  15.251  16.231   3.300  0.1084 -0.2823  0.2476
 7814W        W22945   3.910   4.766  13.523 -0.0495  0.2809  0.1925
 7815W        W22946  10.775   8.923   4.739 -0.0441 -0.1252 -0.1634
 7816W        W22947   6.852   7.731  13.640  0.0253 -0.0533  0.1481
 7817W        W22948  10.827  14.591   2.924  0.2075 -0.1417 -0.2332
 7818W        W22949   2.315   9.072   3.628 -0.1562  0.2683 -0.0875
 7819W        W22950  10.060   5.131  15.214 -0.1627 -0.0054 -0.0029
 7820W        W22951   4.701  12.133   1.450  0.0514  0.2728 -0.0786
 7821W        W22952  11.960  18.163  15.378  0.0961  0.1525  0.0178
 7822W        W22953   9.698   1.061   0.819  0.1141 -0.0217  0.0939
 7823W        W22954  12.416   2.026  15.763  0.2888 -0.0605  0.0807
 7824W        W22955  14.920  12.019  12.359 -0.0919  0.2138 -0.4297
 7825W        W22956   8.413   6.617   1.177  0.2624 -0.0289 -0.3955
 7826W        W22957  10.219  13.622  14.720 -0.2616 -0.1981 -0.0182
 7827W        W22958  14.510  17.586  13.854 -0.0461 -0.0979 -0.0833
 7828W        W22959   2.934   5.226  10.216 -0.1304 -0.0530  0.0247
 7829W        W22960   4.817  14.961  12.229 -0.1973 -0.0767  0.1057
 7830W        W22961  12.568   3.469   2.949  0.0678 -0.2921  0.1350
 7831W        W22962  14.901  14.981  12.407  0.0924  0.1882 -0.0909
 7832W        W22963   9.417  12.032   0.970 -0.0990 -0.0229 -0.2086
 7833W        W22964  10.375  11.586  14.611 -0.1439 -0.0038  0.3501
 7834W        W22965  10.173  10.157   5.349  0.0781  0.0208  0.1175
 7835W        W22966  13.986   7.649  13.374  0.0299  0.2840  0.1360
 7836W        W22967   2.801   4.261   5.345  0.3694  0.0232 -0.0620
 7837W        W22968   5.645   8.307   2.449  0.0937  0.3369 -0.0986
 7838W        W22969   2.593   6.440   0.242 -0.1247  0.0304  0.2464
 7839W        W22970   6.578   1.732   0.139 -0.1899 -0.1386 -0.0723
 7840W        W22971  14.600   6.116   6.038 -0.1346  0.2033 -0.2162
 7841W        W22972  10.311   9.813  14.014  0.1228  0.2539  0.1217
 7842W        W22973   9.786   9.644   0.897  0.0692 -0.1785  0.3311
 7843W        W22974   9.394  11.031   2.073 -0.1559  0.0928  0.1795
 7844W        W22975  14.309  13.055   3.827 -0.4524  0.1145 -0.2223
 7845W        W22976   5.702   6.447  14.385 -0.0325  0.4412 -0.1116
 7846W        W22977   0.043   8.033  11.211  0.0328 -0.1939 -0.3194
 7847W        W22978   0.821  10.604   0.576  0.0711 -0.1110  0.1429
 7848W        W22979  11.061   6.784   3.811  0.1348 -0.1214 -0.1294
 7849W        W22980  12.169  15.703  11.653  0.0925  0.6467 -0.0351
 7850W        W22981  16.764   4.305   1.918  0.1944  0.3897 -0.0790
 7851W        W22982   3.822   5.316   1.820 -0.0604 -0.1114 -0.1750
 7852W        W22983   2.865   3.961  15.363 -0.2192  0.1222 -0.0268
 7853W        W22984   9.548  16.727   0.912  0.2198  0.1197 -0.0542
 7854W        W22985   1.985  12.945   1.257 -0.0269  0.3761 -0.0192
 7855W        W22986  10.173   4.975   1.269  0.1870  0.3696 -0.3638
 7856W        W22987  13.843  16.894   1.591  0.1930  0.0874  0.0629
 7857W        W22988  14.198  17.675   2.982  0.4380  0.1392  0.1130
 7858W        W22989   7.130   3.275  14.333 -0.0099 -0.0773  0.2227
 7859W        W22990   7.301   4.809   1.773 -0.2482  0.0623 -0.0264
 7860W        W22991  17.486   5.712   0.824  0.3282  0.2528  0.1504
 7861W        W22992   3.877  13.084   2.922 -0.1174  0.1013  0.1494
 7862W        W22993   2.161  14.585   1.573  0.4144 -0.1858  0.2764
 7863W        W22994  12.596  14.437  11.713 -0.1990  0.1269  0.0227
 7864W        W22995   5.652  14.387  15.761 -0.1548 -0.0757  0.0216
 7865W        W22996  10.952  15.477   3.487  0.0473  0.4379  0.1240
 7866W        W22997  17.421  14.599   3.300 -0.1613 -0.2485  0.0208
 7867W        W22998  10.804   9.148  14.527  0.3452  0.0301 -0.0898
 7868W        W22999  12.793  10.748   2.006  0.0572  0.0714 -0.3674
 7869W        W23000   2.784   8.144   3.741  0.1241  0.0318 -0.1040
 7870W        W23001  17.510  13.691  15.877 -0.0377  0.0580  0.0614
 7871W        W23002  11.879  10.039  14.456  0.2383 -0.0864  0.0925
 7872W        W23003  16.552  16.058   2.368  0.1122 -0.3295 -0.2055
 7873W        W23004   1.455   9.882   1.830  0.0595 -0.2233  0.1066
 7874W        W23005  14.487   5.995   5.511 -0.1869  0.0691 -0.1064
 7875W        W23006   3.634  15.523   1.163  0.1031  0.0341  0.0560
 7876W        W23007  10.222  11.995  14.332  0.0384 -0.0331 -0.0634
 7877W        W23008  12.995   7.407  14.305  0.2270 -0.1075 -0.1840
 7878W        W23009   6.637   0.471  11.384  0.0076  0.1717  0.2971
 7879W        W23010  12.123   8.944  12.551  0.0005  0.0030  0.2218
 7880W        W23011  15.825   8.388  14.979  0.2029 -0.0651  0.3451
 7881W        W23012   1.453   2.030  13.159  0.0104 -0.0086 -0.4060
 7882W        W23013  10.222   1.654   1.060  0.0159  0.2217  0.1711
 7883W        W23014  17.263  15.730  13.613  0.1759 -0.0273  0.0243
 7884W        W23015  12.869   5.286   3.627  0.0527  0.0767  0.0935
 7885W        W23016  15.297   9.452  11.574 -0.0542  0.1886  0.2032
 7886W        W23017  10.152  11.530   1.784  0.1997  0.0214 -0.1185
 7887W        W23018  17.257   1.324   1.911 -0.2548  0.1086  0.2795
 7888W        W23019  14.714  16.956   5.160 -0.0209  0.0480  0.0798
 7889W        W23020  15.792  13.449   0.297 -0.1111  0.0340 -0.1591
 7890W        W23021  13.260  10.150   2.550 -0.1555 -0.2472 -0.2102
 7891W        W23022  17.946  14.453  14.640  0.4071  0.1072  0.0896
 7892W        W23023   3.588   5.824   0.968  0.1029 -0.0678  0.0960
 7893W        W23024   4.970  10.776  14.093 -0.0858  0.4232  0.1529
 7894W        W23025  12.768   7.053  14.993  0.2176  0.1589  0.1486
 7895W        W23026  13.348   5.968   4.093 -0.0701  0.0478 -0.0709
 7896W        W23027   7.695   8.143   4.622  0.1657  0.1333  0.1316
 7897W        W23028  11.919  16.448   4.050 -0.2849 -0.1795  0.1830
 7898W        W23029   2.501   5.594  13.196 -0.1532  0.4121  0.1593
 7899W        W23030   9.379   3.414   4.015  0.1599 -0.1201  0.2419
 7900W        W23031   1.157   0.774   3.856  0.0281  0.0038 -0.0871
 7901W        W23032   0.833   9.230  12.026  0.1890  0.1664  0.2616
 7902W        W23033   4.107   5.596  13.731  0.0556 -0.2020 -0.1638
 7903W        W23034   3.297  17.608   0.187  0.0844  0.1658 -0.1967
 7904W        W23035   9.303  12.206  11.506  0.0426 -0.4348 -0.3902
 7905W        W23036  17.214  13.419   3.907 -0.1244 -0.1442 -0.0058
 7906W        W23037  11.126   9.375   0.575  0.0049  0.0917 -0.0377
 7907W        W23038   4.870   0.803  13.415 -0.0856 -0.0676  0.0703
 7908W        W23039   6.062  13.830  14.754 -0.2317 -0.2801  0.1180
 7909W        W23040   1.218  17.425   5.456  0.0239  0.0600  0.2332
 7910W        W23041  13.416   4.094  14.781  0.2298 -0.1249  0.1222
 7911W        W23042  17.146  14.387   0.302  0.0342 -0.0639  0.2620
 7912W        W23043  15.202   3.471  13.928 -0.0771 -0.0563  0.1021
 7913W        W23044  16.448  11.340  13.727  0.2571 -0.0320  0.2059
 7914W        W23045   5.157  12.355   4.611  0.1823  0.2284 -0.0529
 7915W        W23046  13.376   1.789  14.483 -0.0633 -0.0260  0.0412
 7916W        W23047   9.463  11.661   2.508 -0.1352  0.0810  0.0948
 7917W        W23048  14.960   2.812  13.154  0.0654 -0.2259  0.5485
 7918W        W23049  11.710  16.637   3.257  0.0996  0.0601  0.4755
 7919W        W23050   1.260   0.275   3.765 -0.2199  0.1053  0.0246
 7920W        W23051   0.959  16.295  16.107  0.0566 -0.1438  0.4290
 7921W        W23052  12.202  16.997   4.043  0.2556 -0.0904 -0.0513
 7922W        W23053   1.418  14.732  11.424  0.3607 -0.0363  0.2563
 7923W        W23054  10.906  17.155  13.399  0.1330  0.0917 -0.1095
 7924W        W23055   8.651  12.371  10.507 -0.3543 -0.1128 -0.0838
 7925W        W23056   3.505  12.069   4.990  0.1667 -0.1431 -0.0492
 7926W        W23057  11.281  11.222  11.878  0.0341 -0.1316 -0.2479
 7927W        W23058   5.982   8.596  10.520 -0.4081  0.2518  0.0372
 7928W        W23059   4.975  14.911   3.215  0.2429  0.2046 -0.1057
 7929W        W23060  16.541  17.919   3.178 -0.0436  0.3005  0.0059
 7930W        W23061   1.133   5.073  12.637  0.3056  0.0845  0.0805
 7931W        W23062  15.047   1.090   5.795 -0.0560 -0.3074  0.4114
 7932W        W23063  15.230   9.858   3.720 -0.0398 -0.0462 -0.5017
 7933W        W23064   3.198  17.622  10.913 -0.0392  0.0345  0.1124
 7934W        W23065  11.329  17.068   1.326  0.2129  0.1122  0.0577
 7935W        W23066  15.105   7.870   5.664  0.1711  0.2622  0.2609
 7936W        W23067   1.849   2.844  11.459  0.0506  0.0292  0.0974
 7937W        W23068   1.368  10.743  11.641 -0.0572  0.0140  0.2407
 7938W        W23069  16.708   4.404  13.828  0.1745  0.0061  0.1175
 7939W        W23070  10.758   1.428  11.637 -0.3114  0.1987  0.2786
 7940W        W23071   0.830   1.851   3.352  0.0083  0.1112 -0.4420
 7941W        W23072   9.702  18.026   2.849  0.1392 -0.0748  0.0291
 7942W        W23073   6.407   3.836  14.448 -0.0564  0.1709  0.1808
 7943W        W23074   6.073  14.085   4.766  0.1112 -0.0529  0.0414
 7944W        W23075   3.808   8.838  15.120 -0.1019 -0.0689  0.0965
 7945W        W23076  15.868  13.381   1.756  0.0567  0.0555  0.2334
 7946W        W23077   9.177  15.582   3.706 -0.0112 -0.1565 -0.1453
 7947W        W23078   1.902   3.379  11.453  0.0141  0.0374 -0.2144
 7948W        W23079   0.447   2.532  13.106 -0.0363  0.1673  0.1700
 7949W        W23080   8.836   6.825   3.661 -0.0603 -0.3688  0.2830
 7950W        W23081  13.626   2.173  14.389  0.0156 -0.2815  0.0774
 7951W        W23082  12.752   5.688   2.889 -0.0661  0.1536  0.2172
 7952W        W23083   8.464   8.977   4.127 -0.0906  0.0142 -0.1617
 7953W        W23084   0.634  10.070  13.056  0.1169 -0.1913  0.0241
 7954W        W23085   9.324   2.368   3.603  0.1346 -0.1125  0.1445
 7955W        W23086   9.169  16.582  11.023  0.2104 -0.2663 -0.0329
 7956W        W23087  12.463   3.815   6.321 -0.0830  0.0014  0.0465
 7957W        W23088  14.430   5.579  13.208  0.1826 -0.1341  0.1327
 7958W        W23089  13.114  10.673   4.765 -0.0591  0.0302 -0.0409
 7959W        W23090   9.073  15.035   4.205 -0.0484 -0.1613  0.0451
 7960W        W23091   8.933  14.236  15.921  0.0596 -0.0817 -0.1821
 7961W        W23092   7.872   8.777  13.229  0.0434  0.1685 -0.0232
 7962W        W23093  18.181  13.221   6.009 -0.0496  0.0893 -0.1224
 7963W        W23094  16.706   8.391   2.395  0.0961  0.0096  0.0064
 7964W        W23095  17.148  14.414   5.104  0.1332 -0.4086 -0.0176
 7965W        W23096  16.629  18.109   1.742  0.0382 -0.0978 -0.1284
 7966W        W23097   4.872  16.706  13.222 -0.1664  0.1752 -0.3885
 7967W        W23098   1.588   2.541  11.781 -0.5156  0.0975 -0.0407
 7968W        W23099  10.593   7.770   5.957  0.3365 -0.2274  0.0719
 7969W        W23100   6.385   6.312   5.481 -0.1173 -0.2092 -0.1383
 7970W        W23101   5.890   1.753  14.810  0.1208  0.0504  0.2528
 7971W        W23102   3.581  15.280  15.121 -0.0733  0.0440 -0.3387
 7972W        W23103  10.030   0.089  11.891  0.4111 -0.2548  0.0611
 7973W        W23104  10.894   2.624   4.414 -0.2972 -0.2513  0.0001
 7974W        W23105  14.634   4.683  15.754 -0.0623  0.2837 -0.0732
 7975W        W23106   3.870   4.477   2.490  0.1702 -0.0044  0.1305
 7976W        W23107   4.149   5.337   4.779 -0.3902 -0.1781  0.3061
 7977W        W23108   0.571  17.334  12.491 -0.1291  0.3482 -0.0469
 7978W        W23109   9.053   0.389   2.649 -0.0259  0.1351 -0.1709
 7979W        W23110  13.642   2.377   5.638  0.0218 -0.1590  0.2977
 7980W        W23111   6.439   3.629   1.361  0.3065 -0.0826 -0.2830
 7981W        W23112   5.321   4.325   2.022 -0.1179 -0.2129  0.1443
 7982W        W23113  14.733   5.646  15.773  0.1571 -0.0206 -0.1022
 7983W        W23114  14.248  12.637   2.252 -0.2717 -0.0154  0.3927
 7984W        W23115   4.797  10.897   4.899 -0.4819  0.1877 -0.1208
 7985W        W23116   4.212   9.560  12.568  0.0728  0.0991  0.3250
 7986W        W23117   0.354  15.715   2.534 -0.1450 -0.0177  0.4686
 7987W        W23118   1.186   6.396   4.543  0.1813  0.3949  0.2949
 7988W        W23119   2.089   0.104   4.348  0.2467  0.2245 -0.0969
 7989W        W23120  13.541  11.523   0.430 -0.4292  0.3190  0.0881
 7990W        W23121   8.872  18.164   2.919  0.0336  0.1055 -0.1044
 7991W        W23122   7.055   3.141  12.990 -0.1397  0.2183  0.4623
 7992W        W23123  11.920   1.651   4.198 -0.2203 -0.0757 -0.2456
 7993W        W23124  17.120   4.623   3.535 -0.1896  0.0824  0.3554
 7994W        W23125  11.776   9.892  10.465  0.2447 -0.0438  0.0516
 7995W        W23126  10.134   6.939  15.470  0.1523 -0.2385  0.0093
 7996W        W23127  13.471   2.965  13.060 -0.0947 -0.0342 -0.2078
 7997W        W23128  17.828   0.393   3.435 -0.1670 -0.1693  0.1798
 7998W        W23129   6.288   1.310  13.841 -0.3832 -0.1588 -0.1118
 7999W        W23130  12.535  16.853   4.949  0.1212  0.0253  0.0891
 8000W        W23131  13.814  11.863   1.975  0.1727 -0.0920  0.1898
 8001W        W23132   2.981   1.605   4.475  0.2293  0.3477 -0.0351
 8002W        W23133   4.869  14.147  14.646  0.0688  0.2008  0.1105
 8003W        W23134   0.315   8.228  14.089 -0.2166 -0.0408 -0.0165
 8004W        W23135   9.829   4.267   4.287 -0.2609 -0.1794  0.2565
 8005W        W23136   1.292   1.458  13.807  0.0560  0.3267  0.1229
 8006W        W23137   3.944   7.033   5.446  0.0557 -0.2383  0.0735
 8007W        W23138   0.689  15.328  14.886  0.2532  0.0457  0.2233
 8008W        W23139  12.496   9.488  16.166 -0.0339  0.1580  0.2523
 8009W        W23140   7.107   7.451   0.251 -0.2006  0.1994  0.2786
 8010W        W23141   8.381  12.408   1.026 -0.0836  0.1624 -0.0859
 8011W        W23142   1.561  17.914   5.264  0.0334  0.1628 -0.0427
 8012W        W23143  15.135  10.596   0.355 -0.3189  0.1290  0.1032
 8013W        W23144  16.349  10.175   4.614 -0.0331 -0.3884  0.1660
 8014W        W23145  17.803  14.913   4.661  0.0532  0.2219 -0.3391
 8015W        W23146  10.918   6.207  15.641 -0.1571 -0.2023 -0.1090
 8016W        W23147  14.712  12.055  10.539 -0.2141  0.0460 -0.0536
 8017W        W23148  14.668   0.080   5.122 -0.0918  0.0948 -0.3723
 8018W        W23149  17.561  11.363  14.275  0.3221 -0.3740 -0.0216
 8019W        W23150  17.473  17.246  10.143  0.1395 -0.1009  0.2674
 8020W        W23151   0.334  10.484  12.827  0.0307 -0.2987 -0.2105
 8021W        W23152  17.958   2.411   4.666  0.0761  0.1748 -0.1496
 8022W        W23153   0.460   0.339  15.961 -0.1259 -0.1488 -0.2725
 8023W        W23154   4.788  11.831   1.840  0.0519  0.1444 -0.0287
 8024W        W23155   9.167   6.488   3.725 -0.2727  0.2445  0.0367
 8025W        W23156   8.121  15.720   2.069 -0.1636  0.0374 -0.0382
 8026W        W23157   8.594  12.861  12.031  0.1638 -0.1143 -0.1930
 8027W        W23158   0.521   1.299   3.181  0.1959 -0.2458 -0.1375
 8028W        W23159   9.238   0.142   1.730  0.0445 -0.1140 -0.1579
 8029W        W23160   2.248  17.594   4.087 -0.4429 -0.1060  0.1686
 8030W        W23161  13.095   8.859   2.563  0.2052  0.0028  0.0166
 8031W        W23162  17.104  10.962   0.716 -0.0518  0.3808  0.0630
 8032W        W23163  12.151  12.556   1.560 -0.2712  0.1023 -0.1113
 8033W        W23164   7.984  15.370  12.772 -0.2241 -0.2129  0.3030
 8034W        W23165   2.650   6.254   1.436  0.0299  0.3627  0.1135
 8035W        W23166   4.546  15.276  14.983 -0.1398  0.2471 -0.1674
 8036W        W23167  11.849  13.695  11.044  0.1257 -0.1635 -0.1420
 8037W        W23168   3.118  16.727  13.586 -0.1154 -0.0310  0.0187
 8038W        W23169   8.033   3.887   3.858 -0.0359  0.1338 -0.0855
 8039W        W23170   4.719  10.283  12.920 -0.0216 -0.0318  0.1887
 8040W        W23171   7.525   9.148   1.744  0.0968  0.0805 -0.0333
 8041W        W23172   7.874  16.928  12.099  0.0999  0.2890 -0.1971
 8042W        W23173   6.955   4.448  13.326 -0.2194 -0.1453 -0.1630
 8043W        W23174   6.274   7.918  12.090 -0.1549  0.0947  0.4914
 8044W        W23175  16.475   6.077   0.441 -0.0571  0.0794  0.6250
 8045W        W23176  12.902  16.549  13.687  0.1473  0.3556 -0.0288
 8046W        W23177   3.750   6.276   4.388 -0.0592  0.0784 -0.0997
 8047W        W23178  16.254  15.083  11.596 -0.1010 -0.1450 -0.2763
 8048W        W23179  16.188  16.452  13.477  0.1797  0.1921  0.1968
 8049W        W23180  10.649  17.567   5.067  0.2011 -0.1211 -0.0959
 8050W        W23181   2.006  11.235  11.754 -0.1950  0.1011 -0.0277
 8051W        W23182  14.928   7.473  15.683 -0.1045 -0.1187 -0.1504
 8052W        W23183   4.874   8.056   5.419 -0.1831  0.0386  0.2441
 8053W        W23184   8.089  14.048  13.980  0.0251  0.3057 -0.1217
 8054W        W23185  14.618  17.011  13.696  0.1385 -0.1279 -0.0013
 8055W        W23186   7.811   1.795   0.893  0.0560 -0.2022 -0.2013
 8056W        W23187   8.071  17.078  11.619  0.1821 -0.1432  0.0322
 8057W        W23188  11.360   5.855  15.521 -0.0312 -0.1185  0.1919
 8058W        W23189  11.614  11.449   0.640 -0.3744 -0.1336 -0.1514
 8059W        W23190  17.496   1.596   0.204 -0.1296  0.0140 -0.3157
 8060W        W23191   4.607  10.976  12.511 -0.0529  0.0345 -0.0275
 8061W        W23192   4.453  16.650   1.196  0.0682 -0.2389 -0.0871
 8062W        W23193   1.448  17.860  12.889  0.0530 -0.1090 -0.2526
 8063W        W23194  17.127   4.077  12.971  0.1934 -0.1221  0.1920
 8064W        W23195  11.164  12.352  13.372  0.0474  0.2811  0.2432
 8065W        W23196   0.521   5.779  10.566  0.0915 -0.2622  0.0871
 8066W        W23197   5.480   5.403   5.521 -0.1453  0.0755  0.4443
 8067W        W23198  12.405  10.255  12.247  0.0981 -0.0294 -0.1396
 8068W        W23199  15.362  11.335   3.605  0.1390 -0.0134  0.3735
 8069W        W23200  13.174  11.070   1.833 -0.0998 -0.0161 -0.1178
 8070W        W23201   3.597   8.558  11.816  0.1514 -0.1103  0.1467
 8071W        W23202  10.002   0.057  14.982  0.0571  0.1976  0.1506
 8072W        W23203  12.495  14.342   5.306  0.1286 -0.2735 -0.1148
 8073W        W23204  17.710  16.486   0.596  0.1968  0.0653  0.0146
 8074W        W23205   1.412   6.727   4.927 -0.0905  0.2032 -0.1206
 8075W        W23206  12.156   8.592   5.692 -0.0205 -0.0759 -0.0489
 8076W        W23207   0.494   7.625  14.188 -0.3176  0.1758  0.0658
 8077W        W23208   6.895  18.151   0.029 -0.0029 -0.0726  0.2806
 8078W        W23209   8.509  15.784   2.522 -0.1024 -0.0353 -0.0251
 8079W        W23210  15.559   5.163  15.363  0.0950  0.0914  0.1543
 8080W        W23211  10.386   0.426  13.842 -0.0476 -0.0439  0.1005
 8081W        W23212   1.848   8.106  14.704 -0.1943 -0.3382 -0.2184
 8082W        W23213   0.271  10.252   4.141 -0.1179  0.0970 -0.1307
 8083W        W23214  11.304   9.541  12.858 -0.0907  0.0846 -0.0686
 8084W        W23215  16.536   3.623   0.592  0.1917 -0.1877  0.0461
 8085W        W23216  17.461  15.612   3.634 -0.2200 -0.0587 -0.2048
 8086W        W23217  12.008   5.912  11.380 -0.0192 -0.3142 -0.1263
 8087W        W23218   5.644  16.524  14.796  0.2279 -0.2987  0.1519
 8088W        W23219   9.907   0.574  14.113  0.0271 -0.0149  0.0038
 8089W        W23220   2.856   8.092  10.730 -0.0212  0.3912  0.0753
 8090W        W23221   5.988  16.111  14.906 -0.2747 -0.2398  0.1706
 8091W        W23222   2.092  10.526   1.728  0.1310 -0.0062  0.0692
 8092W        W23223   8.619   2.104   0.542 -0.1173 -0.0425 -0.4152
 8093W        W23224   5.071  11.195   4.413 -0.1226  0.2588  0.0117
 8094W        W23225  13.513   3.564   3.892  0.1108 -0.0000 -0.3127
 8095W        W23226   4.510   9.822  12.898 -0.0465  0.0079 -0.2097
 8096W        W23227   4.199   7.302  15.085 -0.0197  0.1272 -0.3647
 8097W        W23228  16.156   6.163   1.876 -0.2756  0.1866 -0.2348
 8098W        W23229   0.165   6.916  15.511 -0.1706  0.1978  0.1988
 8099W        W23230   3.105   2.876  11.164 -0.0737  0.1283  0.1652
 8100W        W23231  14.672   2.689   4.379 -0.0618  0.1177  0.2919
 8101W        W23232  17.404   0.217   1.494 -0.0777 -0.0568  0.0576
 8102W        W23233   3.703   4.092   4.511  0.2342 -0.0629 -0.1777
 8103W        W23234   6.454   4.475   3.547 -0.0754 -0.1459 -0.1960
 8104W        W23235   9.431  11.490  13.376 -0.1058 -0.0846  0.1574
 8105W        W23236   2.334   8.167  11.833  0.0322 -0.1670 -0.1765
 8106W        W23237   8.190  17.068  15.631 -0.1026 -0.4185  0.3526
 8107W        W23238  16.751   5.851  12.719  0.4266  0.1058  0.1246
 8108W        W23239   0.241   5.937   2.340 -0.1640 -0.0677 -0.1186
 8109W        W23240   6.148   2.571   0.495 -0.1070 -0.1302  0.0931
 8110W        W23241  11.262   2.701  11.570  0.1989  0.2002  0.0680
 8111W        W23242   3.361  12.964   3.026 -0.1323  0.0830 -0.0230
 8112W        W23243   3.013  14.378  14.422 -0.0672  0.0731 -0.0089
 8113W        W23244   2.318  14.046  12.809  0.1174  0.0138  0.1272
 8114W        W23245   9.683   9.934  13.477  0.3445  0.1571  0.1714
 8115W        W23246   4.249  13.921   2.941 -0.3026 -0.0379 -0.2050
 8116W        W23247   6.166   3.661  15.544 -0.0759  0.0400  0.0493
 8117W        W23248  17.369   2.394   0.412 -0.0229  0.1094 -0.0773
 8118W        W23249  10.087   4.308  13.461  0.1181  0.1054 -0.1586
 8119W        W23250  12.536   3.160  13.501  0.2350  0.2072 -0.1595
 8120W        W23251   6.379   5.501   5.810  0.0943  0.2540  0.2657
 8121W        W23252  15.962  16.402   0.718  0.0901  0.1238  0.1106
 8122W        W23253  12.412   4.994  14.145  0.0253 -0.2822 -0.0345
 8123W        W23254  13.701   8.333   1.926  0.2029  0.2798  0.1108
 8124W        W23255   9.063  14.350  11.168 -0.0552  0.0609  0.0298
 8125W        W23256   1.690  15.460   3.065 -0.2415  0.0117 -0.0324
 8126W        W23257   8.010   4.765   3.715  0.3428  0.1873 -0.0639
 8127W        W23258  15.630  11.148  15.055  0.1241 -0.1263  0.1009
 8128W        W23259   0.688   9.654  11.876  0.0521 -0.1845 -0.0191
 8129W        W23260   5.630   4.986  15.246 -0.0969  0.3045  0.3610
 8130W        W23261   4.293   5.671  15.453  0.2452  0.1682  0.0158
 8131W        W23262  14.075   4.065  11.085  0.0969 -0.0720  0.1476
 8132W        W23263   3.454   3.421  14.927  0.0977  0.1251 -0.1706
 8133W        W23264  14.109   2.194   3.884 -0.0470 -0.1631 -0.0563
 8134W        W23265   5.619  10.219   3.507 -0.0004 -0.0396 -0.3364
 8135W        W23266  14.594   3.690  11.628 -0.0910  0.3152 -0.4089
 8136W        W23267   5.506  10.641   2.704  0.1088  0.3184  0.0833
 8137W        W23268  15.173  17.562   0.643  0.2409 -0.0522  0.2666
 8138W        W23269  10.386   0.958  11.760 -0.0952 -0.2018  0.3012
 8139W        W23270  16.674   0.456  10.157 -0.0589  0.0858 -0.4363
 8140W        W23271   3.756   7.975  14.684 -0.0466 -0.3443  0.0297
 8141W        W23272   1.590   8.509   1.342 -0.0241 -0.2162 -0.2603
 8142W        W23273  11.714   3.220   2.752  0.0746 -0.1220  0.2987
 8143W        W23274  14.204   6.293   1.398 -0.0031 -0.2080 -0.1120
 8144W        W23275  17.643  10.614   5.682 -0.2529  0.4451  0.0835
 8145W        W23276   7.956  13.101  12.490 -0.0640  0.0989  0.0440
 8146W        W23277  16.310  16.084   3.786  0.1269 -0.3030  0.2692
 8147W        W23278   6.819   7.063   2.435 -0.1825  0.0495  0.1579
 8148W        W23279   6.674  14.256  13.354  0.3762  0.1566  0.0036
 8149W        W23280   9.262   4.881   1.714 -0.0199 -0.0298 -0.1061
 8150W        W23281   4.944   1.639  11.168  0.0656 -0.1308  0.0252
 8151W        W23282  13.476  15.154  10.583 -0.0116  0.1169  0.1049
 8152W        W23283   8.353   4.147   4.372 -0.0922 -0.0637 -0.2591
 8153W        W23284  15.055  15.401  15.998  0.2472  0.1733 -0.0553
 8154W        W23285   3.686   3.861   0.600  0.1690  0.1199  0.2237
 8155W        W23286  16.004   4.911  11.349 -0.2117 -0.3896  0.0173
 8156W        W23287   5.531  17.316  11.844  0.0374  0.0730  0.3081
 8157W        W23288  11.333   9.908   0.449 -0.2216  0.0244 -0.0352
 8158W        W23289   1.876  10.763  11.886  0.5570  0.0243 -0.1494
 8159W        W23290   0.424   8.167  10.900 -0.1824  0.1617  0.1685
 8160W        W23291   1.615   3.221  14.829 -0.1220 -0.1893  0.0033
 8161W        W23292   6.812   8.442  11.192  0.1173 -0.1013  0.4407
 8162W        W23293   1.395  12.508  14.695 -0.3472 -0.1039  0.0782
 8163W        W23294  11.498   8.498   2.503  0.2376 -0.0644 -0.1105
 8164W        W23295  15.507   3.380  15.296 -0.0628  0.0406  0.0613
 8165W        W23296   3.246   2.964  16.198 -0.2289 -0.0710 -0.0099
 8166W        W23297   3.364   2.420  12.468 -0.0557  0.2217 -0.2376
 8167W        W23298  16.005   7.878   4.682  0.1623 -0.0536 -0.0859
 8168W        W23299  10.421   9.168   4.961  0.1224  0.1692  0.0046
 8169W        W23300   5.162   2.806  15.123  0.2866  0.3168 -0.0981
 8170W        W23301   7.225   7.746  12.607  0.3727 -0.0438  0.3333
 8171W        W23302   1.603  16.532  14.622 -0.2720 -0.0368  0.2913
 8172W        W23303   1.204   9.566  13.215  0.1167  0.0184 -0.0345
 8173W        W23304   8.234   2.759  15.374 -0.1473 -0.0442  0.3489
 8174W        W23305   8.261  14.965  13.882  0.0896  0.3590 -0.0964
 8175W        W23306   6.696  14.424  11.294 -0.2457  0.0706 -0.1146
 8176W        W23307  10.397   2.128  13.160 -0.1929 -0.1258  0.1351
 8177W        W23308  17.975   5.298   6.036  0.0974  0.1804 -0.2259
 8178W        W23309   1.015   7.056   5.104 -0.0034  0.1241  0.2019
 8179W        W23310  11.018   1.334   0.588 -0.0553  0.2019 -0.0527
 8180W        W23311  12.646  11.179  10.995 -0.0982 -0.0247  0.1770
 8181W        W23312   9.736  15.089  13.969  0.0996 -0.1778  0.0570
 8182W        W23313   3.825   2.643   4.821  0.0042  0.2496  0.2282
 8183W        W23314  11.137   4.329   4.865  0.0982  0.0035  0.2787
 8184W        W23315  12.675  15.000  13.837  0.1521 -0.0043  0.2036
 8185W        W23316   6.464  16.559  10.764  0.0186 -0.1991  0.4747
 8186W        W23317   9.928   1.116   0.260  0.1691  0.0652 -0.1331
 8187W        W23318   3.112  14.302  11.582 -0.0689 -0.1382  0.1538
 8188W        W23319   6.496   7.811   0.722  0.1139 -0.3228 -0.1155
 8189W        W23320  16.767   2.598  13.819  0.3283  0.1607 -0.2134
 8190W        W23321   7.591  10.395   0.402 -0.1291 -0.0812 -0.2615
 8191W        W23322  17.734   0.507  14.247  0.3556 -0.1069  0.1348
 8192W        W23323   0.768  13.327  11.105 -0.1309 -0.1297  0.0491
 8193W        W23324   4.504   6.357   3.947  0.0259  0.0881  0.1885
 8194W        W23325  15.662   7.852   1.853 -0.0119  0.0008  0.0385
 8195W        W23326  15.418  14.744  12.406  0.0368 -0.0405  0.0319
 8196W        W23327  14.711   4.387  12.671 -0.0616  0.1922 -0.0734
 8197W        W23328   5.735   3.334   5.694 -0.4079  0.1271 -0.0850
 8198W        W23329   9.192   6.042   4.508 -0.0486 -0.1192  0.0208
 8199W        W23330   4.961   4.112   5.207  0.0467  0.0845 -0.0964
 8200W        W23331  11.088  16.904   4.890  0.0317 -0.2880 -0.1472
 8201W        W23332  10.273   5.070  15.858 -0.3876  0.0769  0.1814
 8202W        W23333   1.110  10.835  14.424 -0.2680 -0.1800 -0.1673
 8203W        W23334   8.577   7.907  12.185 -0.2645 -0.0335 -0.3945
 8204W        W23335  16.222   5.405   3.017  0.2837 -0.2564  0.0219
 8205W        W23336  15.039   6.435   4.629 -0.1861 -0.2517 -0.1374
 8206W        W23337   7.832  12.965   4.413 -0.3636 -0.1166  0.2421
 8207W        W23338  15.176   1.238  14.670  0.1123 -0.2150  0.1408
 8208W        W23339   6.789  11.049   3.648 -0.0205  0.1012 -0.0380
 8209W        W23340  16.170  11.789   3.184  0.2674  0.3500  0.1418
 8210W        W23341   0.214   7.803   5.271  0.0574 -0.1147 -0.0884
 8211W        W23342  15.738   0.217  14.956 -0.1900  0.4282  0.1292
 8212W        W23343   0.725   2.240  12.775 -0.2216  0.1451 -0.1086
 8213W        W23344  11.421   6.237   1.747 -0.3204 -0.2849  0.0842
 8214W        W23345   4.164   6.329  13.122 -0.1344 -0.0509  0.0733
 8215W        W23346   6.428  12.374   1.260 -0.0886 -0.1981  0.2873
 8216W        W23347   6.844   5.233  11.934  0.1491 -0.4083 -0.1878
 8217W        W23348  14.429  15.024  12.529 -0.0439 -0.0500  0.0369
 8218W        W23349   3.709  15.408  13.522 -0.1875 -0.1116 -0.1387
 8219W        W23350  11.703  17.590   4.957 -0.2981 -0.1535 -0.0755
 8220W        W23351  16.972   4.717   4.196 -0.1373  0.0904 -0.0311
 8221W        W23352   0.025  15.581   0.879 -0.2863 -0.0688 -0.1681
 8222W        W23353  12.530   1.831   2.025  0.1064 -0.1058 -0.3513
 8223W        W23354   4.661  14.494  13.726  0.0406  0.0411  0.0002
 8224W        W23355   6.683  16.165  13.427 -0.2455 -0.0605  0.1662
 8225W        W23356   8.961   5.481   0.279 -0.0512 -0.2301  0.2898
 8226W        W23357   9.524   6.845   4.634  0.0517 -0.0462  0.1460
 8227W        W23358   7.145  15.476   4.074 -0.1567 -0.3086 -0.2285
 8228W        W23359  16.519  17.173  14.675 -0.1170 -0.0510 -0.0811
 8229W        W23360  15.159   0.990   4.738 -0.1087  0.1350 -0.2625
 8230W        W23361  13.683   2.729   4.598 -0.1172  0.0623 -0.0419
 8231W        W23362   3.300  15.825   2.964  0.1266  0.0927  0.1886
 8232W        W23363   9.551  13.748  12.114  0.1808 -0.1769 -0.2774
 8233W        W23364  16.617  13.679   1.439 -0.1230 -0.2235 -0.0268
 8234W        W23365  12.798  14.467  13.717  0.0682  0.1671 -0.0836
 8235W        W23366   3.941  14.551  11.880 -0.0514  0.1024 -0.0759
 8236W        W23367   9.449  14.629  10.923  0.3070 -0.0374  0.1446
 8237W        W23368   0.703  10.082   2.238  0.0593  0.1469 -0.2252
 8238W        W23369  17.905   8.470   3.470  0.2065 -0.4406 -0.0136
 8239W        W23370   3.307   7.231  11.557 -0.2100 -0.1605 -0.1807
 8240W        W23371   6.795  13.092  12.471 -0.1852  0.3260  0.0459
 8241W        W23372  17.194   1.200   4.668  0.0454 -0.0958  0.0513
 8242W        W23373   5.001   1.951   2.138 -0.0721  0.0166  0.1851
 8243W        W23374  13.971   0.547   4.585  0.2306  0.1400 -0.0494
 8244W        W23375   8.543  15.110   4.152  0.1803 -0.0050 -0.0057
 8245W        W23376   0.507   9.438   4.255 -0.2584 -0.1700  0.0075
 8246W        W23377  17.409  14.050   5.525  0.1749  0.1428  0.1314
 8247W        W23378   9.466   0.449   3.900 -0.0765 -0.1169  0.1066
 8248W        W23379  12.298   9.917  12.574  0.1732 -0.1601  0.3192
 8249W        W23380   1.400  17.530   5.927 -0.1359  0.1458 -0.2519
 8250W        W23381  11.460   6.531  13.026  0.2052  0.0405  0.1603
 8251W        W23382   6.971  17.591  12.856  0.1650 -0.0317  0.3168
 8252W        W23383  17.930   2.408   2.111  0.0488  0.0177 -0.0127
 8253W        W23384  16.011  11.792  13.441  0.1091 -0.0538  0.0067
 8254W        W23385  11.649  14.579  14.973 -0.1304  0.0969  0.0494
 8255W        W23386   6.774  11.090  15.919  0.3636  0.0996  0.0372
 8256W        W23387   6.776  17.949  15.541  0.1930 -0.0088  0.1905
 8257W        W23388   2.082  17.789   2.887  0.4638 -0.2118  0.0081
 8258W        W23389   5.779  15.593  11.718 -0.1220 -0.1165  0.3074
 8259W        W23390  15.381   1.965   3.891 -0.1579  0.0475 -0.3688
 8260W        W23391  13.898  15.035   3.279 -0.3077 -0.0974  0.2228
 8261W        W23392  14.790  12.442   5.166  0.0505 -0.0012 -0.4174
 8262W        W23393  13.174   3.581  15.798  0.1904 -0.2888  0.0880
 8263W        W23394  14.951   6.030   4.328  0.1035 -0.3396  0.0301
 8264W        W23395   8.947   8.436   3.588 -0.0607  0.0844  0.2181
 8265W        W23396  15.967  16.033  16.116 -0.1940  0.1062 -0.3032
 8266W        W23397  13.016   7.898   2.469 -0.0451 -0.2508 -0.2352
 8267W        W23398   3.720   0.562  14.037  0.1606 -0.0159 -0.1827
 8268W        W23399  10.639  11.466   5.110  0.2303  0.0781  0.4236
 8269W        W23400  14.052  13.622   2.613  0.2454  0.1845  0.0759
 8270W        W23401  10.712   8.286   5.894 -0.2184 -0.1327 -0.3986
 8271W        W23402   2.901  16.190   3.290 -0.2679 -0.0446  0.0659
 8272W        W23403   0.316  11.623   2.238  0.1337 -0.0563 -0.2337
 8273W        W23404   1.248   6.787   5.439 -0.3827  0.0852  0.0461
 8274W        W23405  10.047   4.591   3.760 -0.4893  0.0030  0.1103
 8275W        W23406  11.619   0.244  13.268 -0.3816  0.0923 -0.0636
 8276W        W23407   2.450  13.125  13.965  0.0439 -0.0187 -0.1134
 8277W        W23408  10.347   0.570  10.644 -0.2312  0.2552 -0.1816
 8278W        W23409   9.012   6.901  12.747 -0.3206  0.1833 -0.0445
 8279W        W23410   7.383   7.792  16.225  0.0612  0.1756 -0.1747
 8280W        W23411  17.084   0.039   4.089 -0.0710  0.0471 -0.1307
 8281W        W23412  11.971  14.488  13.225 -0.1658 -0.0453  0.2656
 8282W        W23413  10.329  14.049  10.778 -0.1874 -0.0318  0.1741
 8283W        W23414   6.213  10.343   2.010 -0.0151 -0.1034  0.0363
 8284W        W23415   9.383  16.969  14.950  0.3512 -0.2871  0.0426
 8285W        W23416  12.235  12.626  13.992  0.0594  0.0229 -0.1567
 8286W        W23417   6.161  15.212  14.218 -0.2780 -0.0487 -0.1278
 8287W        W23418   6.551   5.895   1.708 -0.0103 -0.0039 -0.3049
 8288W        W23419   6.099   0.608   4.701  0.2937  0.2359 -0.1425
 8289W        W23420   9.267   4.365   1.050 -0.1350 -0.0067 -0.1837
 8290W        W23421  17.271   0.486   2.303 -0.0074 -0.0954 -0.0668
 8291W        W23422   6.053   5.945  15.258  0.0961  0.0715  0.0247
 8292W        W23423  10.235  13.127  11.166  0.0353  0.0260  0.1867
 8293W        W23424  10.392  14.576   2.655 -0.1637  0.0188 -0.0018
 8294W        W23425  16.977  11.796  13.365  0.1609 -0.1104 -0.0179
 8295W        W23426  16.461  14.136   1.497 -0.1435  0.3549 -0.2339
 8296W        W23427   0.067  14.635  14.198 -0.0875 -0.0566  0.0643
 8297W        W23428   3.649   8.350   3.598 -0.0866  0.0448  0.2061
 8298W        W23429   9.774  14.098  11.154  0.0917 -0.2305  0.2237
 8299W        W23430  15.601  12.596   3.445 -0.1126  0.3509 -0.1686
 8300W        W23431   9.972   3.465   2.142  0.0764  0.1046 -0.0211
 8301W        W23432  12.415  16.076   2.024  0.2343  0.1712  0.1915
 8302W        W23433  12.246  15.228  12.593  0.0062 -0.1296  0.0308
 8303W        W23434   9.226  13.899  15.595  0.2525 -0.0183 -0.2449
 8304W        W23435   8.287   5.233   5.424 -0.1460 -0.2482 -0.0084
 8305W        W23436  12.955  13.588   0.638  0.0348  0.1445  0.0170
 8306W        W23437   9.953   7.565  12.795  0.2102 -0.0732  0.3147
 8307W        W23438   0.794  11.003   2.498  0.2379 -0.1132  0.3308
 8308W        W23439   5.840   1.950   4.239  0.0035  0.2149  0.1430
 8309W        W23440  14.224   5.725   0.193  0.2923 -0.1837  0.1186
 8310W        W23441  14.122  17.789  16.024 -0.0002  0.0698 -0.0888
 8311W        W23442   2.066  14.056  13.350  0.0093 -0.0214  0.1698
 8312W        W23443   3.211   4.172   4.469  0.2262 -0.2338 -0.0731
 8313W        W23444  10.014   6.982   1.847  0.0313 -0.2219 -0.0776
 8314W        W23445   8.233   2.423   0.594  0.0887 -0.3455 -0.0183
 8315W        W23446   9.611   5.769  11.162  0.0041 -0.3048 -0.0817
 8316W        W23447   2.701  14.272  13.642 -0.3994 -0.2308 -0.1789
 8317W        W23448  17.531  18.093  13.240  0.2209 -0.0089 -0.3418
 8318W        W23449  14.358   0.319  13.600  0.2017 -0.2045 -0.2949
 8319W        W23450   3.773  12.429   5.288 -0.1449 -0.2290  0.2885
 8320W        W23451  11.103   4.199   3.987 -0.0657 -0.3539 -0.1976
 8321W        W23452  12.902  11.131   3.822  0.2427  0.4060 -0.2362
 8322W        W23453   5.579  15.294  15.318  0.0520  0.5709  0.2471
 8323W        W23454   9.631  16.524  10.187  0.0296 -0.3331 -0.1036
 8324W        W23455  10.421  12.146   0.698  0.0825 -0.0211 -0.0072
 8325W        W23456   2.914   6.721  10.989 -0.1340  0.0527  0.2743
 8326W        W23457   2.748   4.419  11.277  0.1365  0.1092  0.3061
 8327W        W23458   4.916  16.665   1.308 -0.0521 -0.2470 -0.2386
 8328W        W23459   2.668  13.948  15.915 -0.0483  0.1261  0.2626
 8329W        W23460   2.607   3.134   1.692 -0.0166 -0.1309  0.0352
 8330W        W23461   1.511  12.555   1.069  0.0451  0.2592  0.0642
 8331W        W23462  11.838  11.321   3.942 -0.0597 -0.0263  0.1381
 8332W        W23463  11.276  10.434   0.269 -0.0920  0.1405 -0.0270
 8333W        W23464   1.210  10.359   4.053 -0.1657 -0.3024 -0.2562
 8334W        W23465   0.214   2.022   1.307  0.1224  0.1325  0.0143
 8335W        W23466   1.602   4.045  13.747  0.2475 -0.1965 -0.0110
 8336W        W23467   2.532   7.160   2.080  0.0019  0.1152  0.2221
 8337W        W23468  11.502   9.474   2.978  0.0316 -0.2796  0.0044
 8338W        W23469  13.728   5.254   5.574  0.0338 -0.2590 -0.0558
 8339W        W23470   4.200   6.302  14.352 -0.4021  0.1508 -0.0219
 8340W        W23471   7.364   1.457  16.084  0.0065 -0.2040  0.4349
 8341W        W23472   5.018  10.905  13.419 -0.1509 -0.3258 -0.1589
 8342W        W23473  11.330   6.276  14.763  0.3731  0.0469 -0.1114
 8343W        W23474  12.038  12.532  15.680  0.0297  0.2414  0.0860
 8344W        W23475   5.449  16.212  12.725 -0.2923  0.0208 -0.0910
 8345W        W23476   8.969   7.574   1.807  0.0094  0.0105  0.1379
 8346W        W23477  15.535   5.685   3.668  0.4812  0.0956  0.2208
 8347W        W23478   5.600   7.689   4.254  0.0793  0.3388  0.1313
 8348W        W23479   8.020   1.309   3.181 -0.1694 -0.2050 -0.0830
 8349W        W23480  14.709  15.436  15.647 -0.3115  0.0439  0.3150
 8350W        W23481  16.543  17.532   4.311 -0.1359 -0.0224 -0.0891
 8351W        W23482  12.885  15.733  11.489 -0.1318 -0.2711 -0.0571
 8352W        W23483  10.205   1.487   2.602  0.1582  0.1389  0.0606
 8353W        W23484  13.674  17.364   1.544  0.0811 -0.1057 -0.0343
 8354W        W23485  13.429   3.541   3.326 -0.5697  0.0939  0.1348
 8355W        W23486   9.913   1.738   3.949 -0.0050 -0.1015 -0.0834
 8356W        W23487   1.303  15.005   4.103 -0.1217  0.0829 -0.0910
 8357W        W23488  10.161  14.220  16.141  0.0399 -0.1955  0.0724
 8358W        W23489  12.249   5.908  11.936  0.1448  0.3655 -0.2304
 8359W        W23490   3.384   3.858   0.988 -0.1288 -0.0216 -0.1306
 8360W        W23491  17.776  16.956  12.570 -0.0163  0.0431  0.0097
 8361W        W23492  11.601   1.878  11.277  0.1069  0.1236 -0.1429
 8362W        W23493   5.794   0.526  10.873 -0.0171  0.1681  0.2659
 8363W        W23494  11.346  10.357  15.684 -0.2515 -0.4365  0.2782
 8364W        W23495  10.250   3.027  14.072  0.2195 -0.1626 -0.2031
 8365W        W23496   8.714   3.727  16.093 -0.2137  0.2168  0.1647
 8366W        W23497  14.598  12.948   6.296 -0.1728 -0.1209  0.0306
 8367W        W23498   7.487   1.508   1.218  0.1664 -0.1663 -0.0474
 8368W        W23499   8.288   2.128  14.670  0.0535  0.1228 -0.1316
 8369W        W23500   7.607   2.351  14.135 -0.0351  0.2161 -0.2352
 8370W        W23501   9.082  10.384  12.850  0.0369  0.0940 -0.2289
 8371W        W23502  17.045   1.383   0.185  0.2085 -0.0332  0.0132
 8372W        W23503   9.141  13.689   2.951  0.0680  0.1115 -0.2270
 8373W        W23504   8.548   6.198  15.050 -0.1208  0.4214  0.0969
 8374W        W23505   9.010  15.640  10.107 -0.1200 -0.1576 -0.2199
 8375W        W23506   3.136  17.490  15.318 -0.0876 -0.0487 -0.2531
 8376W        W23507   1.220  11.015   4.905 -0.0759 -0.2659  0.1442
 8377W        W23508  13.816  15.759   3.007  0.0744  0.1129 -0.0010
 8378W        W23509  17.910  15.359  13.622  0.4877  0.3748  0.1204
 8379W        W23510   6.927   3.150  15.753  0.1651 -0.0669  0.0799
 8380W        W23511  11.469  13.399   0.818  0.0138 -0.3313  0.0285
 8381W        W23512  10.253   2.833   5.460  0.0609 -0.0545 -0.2074
 8382W        W23513   4.402   6.775  10.959 -0.5603 -0.0248 -0.1599
 8383W        W23514   3.371  12.667   2.235 -0.0118 -0.0367  0.0060
 8384W        W23515  16.716   8.853   2.218  0.1294 -0.1879  0.0154
 8385W        W23516  17.761   8.316  14.868  0.1968 -0.0243 -0.1844
 8386W        W23517  12.220  14.588   2.580  0.1594 -0.2272 -0.0698
 8387W        W23518  15.698   8.029   2.696  0.3771 -0.0524 -0.1741
 8388W        W23519   7.292   0.901  10.449  0.2353 -0.0144 -0.0992
 8389W        W23520  15.581   1.049   0.525 -0.1274 -0.0366  0.0912
 8390W        W23521   6.051   2.661   4.315  0.1820 -0.1897  0.1421
 8391W        W23522  10.315   4.829   2.740  0.2219 -0.0044 -0.2287
 8392W        W23523   3.246  10.794   4.597 -0.1227 -0.0567 -0.2766
 8393W        W23524  14.422   2.651   0.150 -0.1591 -0.1209  0.0407
 8394W        W23525   9.695  16.706  12.128  0.1480  0.1679  0.1233
 8395W        W23526   5.416  16.722   1.473 -0.0706 -0.0361  0.0444
 8396W        W23527   6.525   9.912  11.108 -0.2645 -0.1259  0.0226
 8397W        W23528  10.477  15.775   4.417  0.1537  0.1476  0.2449
 8398W        W23529   8.143   2.651   1.578 -0.0829 -0.2233 -0.0355
 8399W        W23530   9.682  12.508   2.010  0.0207 -0.1659  0.0072
 8400W        W23531   0.118  17.368   4.378 -0.1184  0.0585  0.4211
 8401W        W23532  12.728   8.139  13.500 -0.2250 -0.0032 -0.1999
 8402W        W23533  14.353  11.126  15.522  0.1715  0.1376  0.0375
 8403W        W23534   7.067  16.964  14.353 -0.0650  0.0830 -0.1087
 8404W        W23535  13.923   5.450  11.794 -0.1016  0.1640  0.3461
 8405W        W23536   7.590  15.533  15.402  0.0447 -0.0053  0.3095
 8406W        W23537   0.486   2.062   1.725  0.4000  0.1374  0.2790
 8407W        W23538   3.876  17.776  15.673  0.1502 -0.0499 -0.0314
 8408W        W23539  10.259   0.503   1.788 -0.0452  0.2174 -0.1865
 8409W        W23540  17.167  15.338   0.209  0.0591 -0.4026  0.0828
 8410W        W23541  17.538  16.995   0.087 -0.5101 -0.1582  0.0139
 8411W        W23542  15.196   6.065   5.022  0.1967 -0.1371 -0.0939
 8412W        W23543  16.393   3.307  14.459 -0.1039  0.2103 -0.1366
 8413W        W23544   9.866   8.297   1.253 -0.2686 -0.1210  0.1471
 8414W        W23545  10.905   8.483  15.625  0.1541 -0.1342  0.0865
 8415W        W23546   2.670   6.661  11.809 -0.0622 -0.4649  0.0110
 8416W        W23547   6.568  12.655   4.431  0.0062 -0.2482  0.0435
 8417W        W23548  16.112   5.525   5.712 -0.0552  0.1550  0.0844
 8418W        W23549   9.465   2.779  11.992 -0.0419  0.0837 -0.1366
 8419W        W23550   6.034  16.231  15.910  0.1213  0.0086  0.5223
 8420W        W23551   6.889  11.944  14.763 -0.3263 -0.3694  0.1324
 8421W        W23552   6.288   8.211   4.596  0.2557  0.2270 -0.2987
 8422W        W23553  13.305  10.968  13.644  0.0025  0.0234 -0.0865
 8423W        W23554  12.790   4.540   0.225  0.2237 -0.2310 -0.2515
 8424W        W23555   7.786   0.466  12.185  0.2897  0.0940  0.1596
 8425W        W23556   2.913  13.917  14.962 -0.0708  0.0572  0.1792
 8426W        W23557   1.137   3.320  14.849  0.0847 -0.1248 -0.3122
 8427W        W23558  15.297  11.440   5.829  0.1308  0.1374 -0.0504
 8428W        W23559   7.530   9.089   2.705  0.1006  0.0910 -0.2033
 8429W        W23560   9.052  17.113  12.772 -0.1778  0.0559  0.2484
 8430W        W23561   4.286   6.564  12.279  0.1629  0.1043  0.0501
 8431W        W23562   4.529  13.965  13.911  0.3128  0.3252 -0.1496
 8432W        W23563   5.841  17.260   0.142  0.1581  0.3280 -0.1110
 8433W        W23564   0.590   5.099   2.367 -0.0498  0.5016  0.0627
 8434W        W23565   5.190  13.260   4.289  0.4451 -0.1304 -0.1476
 8435W        W23566  17.608   6.057   2.697  0.1439 -0.3573 -0.0108
 8436W        W23567   3.643  12.131   2.515  0.1267 -0.1131  0.1165
 8437W        W23568   3.523  10.185  14.499 -0.0599 -0.0106  0.0309
 8438W        W23569   5.087  10.427   4.212 -0.1147 -0.2359  0.1931
 8439W        W23570  13.515  15.061   0.652  0.0599 -0.3405  0.1497
 8440W        W23571   5.399  16.822  10.422  0.3616  0.2402  0.1269
 8441W        W23572   8.555  16.585   9.763 -0.0214  0.1478  0.1430
 8442W        W23573   5.829  14.561   0.101  0.0876 -0.1995  0.0066
 8443W        W23574  14.867  17.209  14.080  0.1342 -0.0727  0.2618
 8444W        W23575   2.922   0.089   4.132  0.1028  0.1190  0.0550
 8445W        W23576  11.933   3.225  12.182  0.3334 -0.0651 -0.1320
 8446W        W23577   0.268   3.303   4.039  0.1029 -0.1194 -0.1838
 8447W        W23578   0.934  11.410  15.277 -0.2214 -0.2482  0.3451
 8448W        W23579   6.878   2.149   4.177 -0.0638 -0.1009  0.0494
 8449W        W23580  11.237   3.841   2.108 -0.1280  0.0724  0.1042
 8450W        W23581   9.678  14.815  14.966 -0.3601 -0.2227 -0.3265
 8451W        W23582  15.862   6.009  13.239  0.0791 -0.0914  0.0561
 8452W        W23583   6.176  17.625   0.070 -0.2036  0.0619  0.1226
 8453W        W23584   7.281  17.788  13.643 -0.2686  0.0170 -0.0226
 8454W        W23585  17.815   9.917  14.021  0.1626  0.0669 -0.1588
 8455W        W23586   6.566  15.716   1.078 -0.1940 -0.1726  0.1061
 8456W        W23587   1.845  14.249   4.821 -0.0747  0.0014  0.0033
 8457W        W23588   7.175   2.042  15.240  0.3729  0.2726 -0.1513
 8458W        W23589  12.584   7.820   4.465  0.0249  0.4142 -0.0332
 8459W        W23590  13.972   5.301   2.687 -0.1831  0.1753 -0.1613
 8460W        W23591   0.180  11.544   4.147 -0.2041 -0.1017  0.0526
 8461W        W23592   3.110  12.980   4.049 -0.3990 -0.0926 -0.0724
 8462W        W23593   8.532  11.071   0.778  0.1583 -0.0866 -0.1274
 8463W        W23594  15.981  17.533   4.323 -0.0505  0.0803 -0.1294
 8464W        W23595   5.201  11.024  14.927 -0.1950 -0.0218 -0.1229
 8465W        W23596  16.375  12.239  12.372  0.0266 -0.1152 -0.0602
 8466W        W23597   1.739   5.069  14.758 -0.0828 -0.2877 -0.1218
 8467W        W23598   1.530   5.016  12.257 -0.0907  0.2694 -0.2099
 8468W        W23599  13.035  10.954  12.889 -0.2763 -0.0224  0.3242
 8469W        W23600  17.247   3.143   4.429  0.2460 -0.1841 -0.2363
 8470W        W23601  10.860   2.686   6.005 -0.0494  0.4079 -0.0481
 8471W        W23602   5.731  14.140  14.503  0.0257 -0.1630  0.2162
 8472W        W23603  12.575   0.876  14.601  0.1904 -0.0224  0.0048
 8473W        W23604  11.441   0.207  15.220 -0.2564  0.0588 -0.0492
 8474W        W23605   0.367   3.987  13.160 -0.3192  0.0365  0.0948
 8475W        W23606   8.579  17.416  14.687 -0.0732 -0.0236 -0.2135
 8476W        W23607   6.107  13.056  13.902  0.0474  0.1861 -0.1192
 8477W        W23608   1.702   2.745   1.368 -0.0251  0.1213 -0.1818
 8478W        W23609   1.897   1.319  13.223  0.1763 -0.0261 -0.1840
 8479W        W23610  10.464   2.234  15.682 -0.2139 -0.1063  0.1553
 8480W        W23611  14.425   3.873   0.540 -0.0603  0.1288  0.3115
 8481W        W23612  11.738  17.461  15.437  0.0135 -0.2588 -0.1211
 8482W        W23613  18.010  11.148   2.255  0.0694 -0.1360 -0.2928
 8483W        W23614  13.563   8.683   2.380 -0.2161 -0.1267  0.2519
 8484W        W23615  16.572   2.393  12.781  0.0841 -0.1787 -0.0327
 8485W        W23616  13.532   5.679  13.951  0.1399 -0.0985  0.2009
 8486W        W23617   7.827  10.785   2.324 -0.0430  0.1251 -0.3277
 8487W        W23618   4.048   7.401  13.197 -0.0883 -0.3015 -0.0802
 8488W        W23619   9.873  17.488  14.493 -0.1531  0.1926 -0.0477
 8489W        W23620  16.603   9.369   5.251  0.2605 -0.1553 -0.0447
 8490W        W23621  15.197   0.494   5.704 -0.2389 -0.1922 -0.1830
 8491W        W23622  15.232   7.787   2.745  0.2964 -0.1890 -0.1862
 8492W        W23623   0.203  12.612   3.251  0.2196  0.1226 -0.1794
 8493W        W23624  12.851   0.635  13.387  0.0798 -0.1714  0.0988
 8494W        W23625   9.353   4.408   5.751 -0.1745 -0.1030 -0.2417
 8495W        W23626   2.520  18.075  12.496  0.3657 -0.0889  0.0368
 8496W        W23627  10.528  17.486   3.462 -0.0927 -0.1421 -0.0696
 8497W        W23628   4.693  10.954  15.474 -0.1785 -0.0167  0.0541
 8498W        W23629   7.771  16.454   3.602 -0.2328 -0.0800 -0.0831
 8499W        W23630   7.505   2.547   2.708 -0.0522  0.0483  0.0496
 8500W        W23631   1.794   4.583  14.844  0.1805  0.0111  0.1261
 8501W        W23632   9.410  14.297  15.911  0.2800  0.0449  0.0267
 8502W        W23633  15.250   1.889  12.314 -0.2281 -0.1027  0.1370
 8503W        W23634   1.727   2.770  13.651  0.2073 -0.2875 -0.0491
 8504W        W23635   0.348   9.272  11.797  0.0544 -0.2381  0.0749
 8505W        W23636  12.741  15.488   3.173 -0.1404  0.3154  0.1568
 8506W        W23637  17.833  13.793   5.738 -0.1207  0.0728  0.0773
 8507W        W23638  13.475  16.576   4.469  0.0875  0.0712 -0.2214
 8508W        W23639  10.436  11.193  14.992 -0.0872  0.0536 -0.0237
 8509W        W23640  16.053  10.301  14.102 -0.0611  0.1238 -0.4299
 8510W        W23641   8.758  16.346  12.844  0.0151 -0.2479 -0.3955
 8511W        W23642  15.649   4.733  15.546  0.1048  0.0028 -0.2619
 8512W        W23643  11.027  15.973   0.068 -0.1297 -0.1104  0.2206
 8513W        W23644   5.045  14.878   1.837  0.3017  0.2651 -0.2809
 8514W        W23645   5.022   4.461   0.503  0.1508  0.0832  0.0893
 8515W        W23646  15.592  10.578   5.969 -0.1419  0.0547  0.0996
 8516W        W23647  15.376   0.190   6.074  0.1368  0.0240 -0.2195
 8517W        W23648   1.244   4.981  15.659  0.1011  0.1554 -0.0116
 8518W        W23649  18.074   7.914  15.509 -0.0721 -0.3855 -0.2844
 8519W        W23650  15.028   1.150   0.211 -0.0097 -0.3108 -0.3291
 8520W        W23651  10.582  16.484  11.157  0.0576  0.1425 -0.1551
 8521W        W23652   1.797   9.967   2.421  0.1999 -0.2920 -0.0334
 8522W        W23653  14.071  10.509   3.218 -0.1301 -0.0699 -0.0133
 8523W        W23654   1.428   5.415  11.754  0.0589 -0.1295  0.0786
 8524W        W23655  18.164   9.722   2.170 -0.0265 -0.1789  0.0630
 8525W        W23656  18.168   6.538   0.977 -0.1328  0.2291 -0.4733
 8526W        W23657  18.048   2.910   1.118 -0.1139  0.0291 -0.2827
 8527W        W23658   0.737   3.156   5.290 -0.0871 -0.3503 -0.0184
 8528W        W23659  18.171   9.739   5.701 -0.1773  0.0052  0.1083
 8529W        W23660   3.687  11.009   5.533  0.0615  0.1197 -0.1017
 8530W        W23661  10.507   5.516  10.765 -0.0919  0.1235  0.3886
 8531W        W23662  14.939   1.510  15.627  0.1967 -0.0764  0.0918
 8532W        W23663  14.418  15.828  15.547 -0.2037  0.1151 -0.1925
 8533W        W23664  16.500  15.249  15.285 -0.2309 -0.0311 -0.0430
 8534W        W23665   2.183  17.482  11.734 -0.0126  0.2304 -0.1550
 8535W        W23666  10.491   4.005  15.523  0.0781  0.1030 -0.0818
 8536W        W23667   7.783   7.445   5.591 -0.0165 -0.1330  0.2751
 8537W        W23668  14.780  13.351  10.989 -0.1934  0.2355 -0.1623
 8538W        W23669  11.987  14.232   5.400  0.0000  0.1915  0.1987
 8539W        W23670  15.087   3.992   3.890 -0.1853 -0.2349 -0.0362
 8540W        W23671  14.314   3.740  14.545  0.4483  0.1590 -0.1418
 8541W        W23672  10.299   5.506  15.592  0.0758 -0.0822  0.0075
 8542W        W23673   4.657   6.055   2.278 -0.0558  0.2197  0.0566
 8543W        W23674  11.140  13.203  14.486 -0.1424 -0.1633 -0.1252
 8544W        W23675  17.790  16.455  12.719  0.6071  0.0195 -0.5458
 8545W        W23676   5.303   4.913  13.432 -0.1541 -0.0637 -0.1247
 8546W        W23677  17.693  13.121   0.796  0.1390  0.1684  0.2188
 8547W        W23678   7.460  14.570  14.508 -0.0020 -0.1117  0.0955
 8548W        W23679  16.636   3.299  13.128 -0.2053 -0.4070 -0.2852
 8549W        W23680   5.364   9.954   3.951 -0.1766 -0.0878  0.0204
 8550W        W23681  13.080  15.437  15.635  0.3062  0.2315  0.3336
 8551W        W23682  10.135   8.007   0.826  0.2901 -0.1355 -0.0095
 8552W        W23683  13.261   2.594  14.374 -0.1697  0.1198  0.1617
 8553W        W23684   5.025  13.430  13.489  0.1455  0.1699 -0.1431
 8554W        W23685   8.425  14.350  13.042 -0.0060 -0.0932  0.2308
 8555W        W23686   3.794  17.105   2.693 -0.0291 -0.1468 -0.0183
 8556W        W23687   4.401   5.983   1.725  0.0213 -0.2267 -0.1228
 8557W        W23688   5.989   6.250  12.416 -0.2470  0.1624 -0.1134
 8558W        W23689  11.048  15.674   0.494 -0.0121 -0.0173  0.0734
 8559W        W23690   8.180  15.599  13.437  0.0448  0.3895 -0.1280
 8560W        W23691   9.073  14.551   5.054  0.2104 -0.1545  0.2012
 8561W        W23692  16.875   1.675   4.747  0.1136  0.1023 -0.0761
 8562W        W23693  13.408  10.317  15.440 -0.0770  0.1194  0.0285
 8563W        W23694   4.666   4.306  14.943 -0.1664 -0.1152  0.1561
 8564W        W23695   3.951  10.369  11.405  0.1276 -0.3564  0.1109
 8565W        W23696  12.384   4.545   4.061 -0.0213  0.2153 -0.2261
 8566W        W23697   4.130  13.551  10.650  0.0763  0.4366  0.0658
 8567W        W23698  12.205   3.913   3.133 -0.0519 -0.2334 -0.4416
 8568W        W23699  12.737   1.748   2.484  0.1669  0.2824 -0.4622
 8569W        W23700  17.533   0.305   5.806  0.2351 -0.0739  0.0660
 8570W        W23701  14.358  11.094   1.993  0.0724 -0.1119 -0.2992
 8571W        W23702   1.377   7.586  13.387 -0.0580  0.0872 -0.2359
 8572W        W23703   5.165  12.348  14.603  0.0485 -0.2096  0.2922
 8573W        W23704   0.723   0.043   2.683  0.1935 -0.0389  0.1581
 8574W        W23705   2.414   6.034   5.216  0.1140  0.1971 -0.1028
 8575W        W23706  11.728  17.360   2.760 -0.2785 -0.0262 -0.1988
 8576W        W23707  14.822   4.643  10.830  0.0843 -0.0065  0.0141
 8577W        W23708   9.459   5.434   0.151  0.2118 -0.1427  0.1084
 8578W        W23709  16.276   4.024   0.549 -0.0725  0.0422 -0.2864
 8579W        W23710   3.418  12.572   4.864 -0.2224 -0.0918 -0.1047
 8580W        W23711   3.638  12.989  16.218  0.1520 -0.1897  0.2067
 8581W        W23712   0.344  17.984   0.083  0.1760  0.1726  0.0401
 8582W        W23713  13.187   6.498  16.028  0.1868 -0.0545 -0.0792
 8583W        W23714   0.003  14.338  12.977 -0.0511 -0.2528 -0.1101
 8584W        W23715  15.725   3.349  13.044 -0.0722 -0.1265 -0.0327
 8585W        W23716   3.657  17.838  11.027 -0.0896 -0.1468  0.0342
 8586W        W23717   2.903  18.184  11.660  0.1413  0.3492 -0.0041
 8587W        W23718   4.108  16.555  14.059  0.1566  0.3009 -0.2522
 8588W        W23719  13.464  15.624   3.710  0.0544  0.0398  0.1125
 8589W        W23720   1.607  16.830   3.114 -0.1817  0.3481  0.0107
 8590W        W23721  11.140   6.462   3.438  0.1459 -0.0473  0.0627
 8591W        W23722   8.842   9.440   0.068 -0.0826 -0.2141 -0.1757
 8592W        W23723   5.271   9.269  14.291 -0.2984 -0.0565 -0.1289
 8593W        W23724  14.719   8.730   5.862 -0.0085  0.1719  0.0043
 8594W        W23725  15.832   1.786   2.464 -0.0866  0.2191  0.2695
 8595W        W23726   5.959  14.814   4.276 -0.0200 -0.2364 -0.1184
 8596W        W23727   7.946   5.324   2.180 -0.0894 -0.0305 -0.1686
 8597W        W23728   3.774   6.824  15.706 -0.0779  0.0542 -0.2284
 8598W        W23729   7.099   0.219   2.320  0.1501  0.3972  0.0982
 8599W        W23730  11.043  14.441  11.136  0.3219 -0.2342  0.1964
 8600W        W23731   4.306   7.362  15.588 -0.0625  0.2243  0.3325
 8601W        W23732   4.991   0.448  14.475  0.0303 -0.1532  0.0208
 8602W        W23733  10.684   4.372  15.289 -0.0389  0.0158 -0.1561
 8603W        W23734   5.555  17.128  12.281  0.1071  0.3930 -0.1322
 8604W        W23735   3.617   7.890   2.545  0.2124 -0.1053  0.1149
 8605W        W23736  10.191  17.887  16.142 -0.2705  0.0079  0.1251
 8606W        W23737   0.526   5.172  14.142 -0.1186 -0.2135 -0.2489
 8607W        W23738   5.133  14.487  13.716  0.1693  0.2343 -0.1816
 8608W        W23739   4.012   4.685   0.979  0.0558  0.2574  0.1482
 8609W        W23740  13.718   8.892   5.583  0.2658  0.5553  0.2013
 8610W        W23741  12.476   4.468  12.631  0.1581  0.1225 -0.1515
 8611W        W23742  18.120   0.441  15.801  0.1902 -0.1353 -0.0659
 8612W        W23743  17.663  16.451   1.949 -0.1102  0.0675 -0.0725
 8613W        W23744  10.805  17.512  12.362  0.2323 -0.1559 -0.1303
 8614W        W23745   8.110   9.369   3.314  0.2333 -0.0571  0.1038
 8615W        W23746  10.989   4.212   0.288  0.2219 -0.2495 -0.0572
 8616W        W23747  12.325   3.979   1.793 -0.2325 -0.2045 -0.2433
 8617W        W23748   4.571   8.788  14.257 -0.2603  0.2119 -0.2773
 8618W        W23749   1.555   4.270   9.780  0.1279  0.0791  0.2907
 8619W        W23750  10.098  16.666  12.537  0.1320  0.1692  0.1631
 8620W        W23751   3.145   2.617  13.799 -0.1516  0.0840 -0.0275
 8621W        W23752   9.453   9.015   2.854  0.3449  0.1659  0.1331
 8622W        W23753   1.352   2.823  11.409 -0.0794  0.0893 -0.3139
 8623W        W23754   3.064  13.182   5.398 -0.0214  0.1058 -0.0851
 8624W        W23755  13.839  15.206   3.842  0.2144  0.0846 -0.0753
 8625W        W23756   7.794   9.823   1.285 -0.2054  0.3425 -0.0941
 8626W        W23757  10.673  10.827   3.351  0.1345 -0.0158 -0.2120
 8627W        W23758  10.107  10.967  13.461 -0.1004  0.1097 -0.1661
 8628W        W23759   5.533  12.161  11.662  0.2353  0.0804  0.0500
 8629W        W23760   8.462  15.245   3.617  0.0307 -0.0853  0.0474
 8630W        W23761   0.946  11.041   0.063  0.1338 -0.1043 -0.2698
 8631W        W23762   1.007  16.772   1.628 -0.0861  0.0042 -0.2613
 8632W        W23763   9.876   1.222  15.688  0.2963 -0.1769  0.0790
 8633W        W23764  14.721  10.508   0.672 -0.2572 -0.3375  0.1200
 8634W        W23765   9.132  17.904   3.352  0.0645 -0.0782 -0.0997
 8635W        W23766   8.308  12.025   3.479 -0.0364 -0.0180  0.2393
 8636W        W23767  15.697  16.401   3.343 -0.3240 -0.0522 -0.3158
 8637W        W23768  16.559   9.304   0.940  0.1884 -0.1041 -0.1856
 8638W        W23769   5.674  16.467  10.257 -0.0011 -0.0766 -0.2428
 8639W        W23770   6.610  11.928   0.493 -0.0371 -0.1091  0.0787
 8640W        W23771  12.069   7.536   5.108  0.2601  0.1100 -0.0932
 8641W        W23772   2.864   8.549  15.416  0.0491 -0.0499 -0.0122
 8642W        W23773   9.209  16.981  12.201  0.2955 -0.2241 -0.2344
 8643W        W23774   6.612   6.496   5.069 -0.0434 -0.1233 -0.3083
 8644W        W23775   7.014  13.683  14.370 -0.0625 -0.4028  0.1292
 8645W        W23776   7.269  16.428   0.986 -0.0434 -0.0911 -0.3896
 8646W        W23777   8.282   1.520   1.001 -0.0531  0.0516 -0.0301
 8647W        W23778   1.993  16.637   2.832 -0.1661 -0.0194 -0.0752
 8648W        W23779   8.736   4.667   2.926 -0.1057 -0.0189 -0.0312
 8649W        W23780   1.203   7.706  15.101 -0.0356 -0.2129  0.0059
 8650W        W23781  17.239  13.221  13.695  0.1095  0.3866  0.1330
 8651W        W23782  16.471   4.192   3.430 -0.0986  0.1431  0.2600
 8652W        W23783   1.588   4.122   3.748  0.7409  0.0473 -0.1249
 8653W        W23784  16.422   9.794   0.758 -0.0150  0.0345 -0.1065
 8654W        W23785  17.719   8.751   2.059 -0.3194  0.0825 -0.4995
 8655W        W23786   6.258  15.211   1.957 -0.2752  0.2071  0.0346
 8656W        W23787  14.332   5.060  13.147  0.0683 -0.3871 -0.1809
 8657W        W23788   1.612  14.348   5.275  0.5807  0.1905  0.0946
 8658W        W23789  14.993   7.393   1.601 -0.0547 -0.0393  0.1818
 8659W        W23790   1.604   4.715  12.703 -0.1235 -0.0949 -0.0879
 8660W        W23791  15.474   3.538   5.612 -0.0439 -0.0948  0.0386
 8661W        W23792   0.501  14.550   4.259  0.0063 -0.1046 -0.2987
 8662W        W23793  16.154  10.562   5.221  0.0510 -0.1304 -0.0642
 8663W        W23794  13.456   8.085   4.648  0.0121 -0.0059  0.2345
 8664W        W23795   6.120   8.317   0.175  0.3277 -0.0908 -0.3191
 8665W        W23796  15.244  12.212   1.024 -0.0973 -0.1306  0.1915
 8666W        W23797  12.501  11.496   3.998 -0.0953 -0.1084 -0.0791
 8667W        W23798   0.319   8.487  12.734 -0.1049  0.1108 -0.0766
 8668W        W23799   0.220  10.144   3.582  0.2504 -0.0417  0.1878
 8669W        W23800  13.170   3.584   1.639 -0.1688 -0.0548 -0.0749
 8670W        W23801   5.041   2.006   0.744  0.0220  0.0093 -0.2571
 8671W        W23802   4.208  13.744  13.031 -0.0158  0.2310 -0.1294
 8672W        W23803   9.910  11.015  10.314 -0.0783  0.1383  0.2131
 8673W        W23804  14.586  16.004  14.065 -0.0323 -0.1203 -0.1259
 8674W        W23805  15.334  17.484  16.025  0.2345  0.0473  0.0782
 8675W        W23806  13.058   5.267  16.206  0.2426 -0.2055  0.0618
 8676W        W23807   8.549  10.129   2.899 -0.0353  0.1224 -0.0725
 8677W        W23808   4.293   9.115   3.381 -0.2679 -0.0710 -0.0587
 8678W        W23809   7.753   5.851   6.375  0.0535  0.0262  0.0792
 8679W        W23810  13.083  10.658  15.653  0.1168  0.0946 -0.1541
 8680W        W23811   0.084   8.353  14.572  0.1520  0.1904 -0.0286
 8681W        W23812   4.834  13.705  12.292 -0.2464 -0.2991 -0.2255
 8682W        W23813   2.698   2.354   1.385  0.0544  0.0140  0.2426
 8683W        W23814   8.703  16.945   3.466  0.0144 -0.0294 -0.1942
 8684W        W23815   0.893   4.705  13.417 -0.0753  0.2466 -0.2874
 8685W        W23816   4.903  12.996  11.761 -0.0635 -0.0731 -0.1170
 8686W        W23817  16.548   7.814  14.235 -0.0757  0.2575 -0.0419
 8687W        W23818  11.364   5.999  11.921  0.2457 -0.3627 -0.2825
 8688W        W23819   8.075  12.771  15.406  0.1991 -0.0220  0.0541
 8689W        W23820  17.218   1.910   2.678  0.1457 -0.1562  0.2437
 8690W        W23821  11.647   3.939   0.251 -0.2049  0.0667 -0.0126
 8691W        W23822   3.454  17.867   2.337 -0.2541  0.2014 -0.0145
 8692W        W23823   0.045   5.082  11.635  0.3397  0.2169  0.1926
 8693W        W23824   3.517   1.045   2.202  0.2951 -0.2125  0.0332
 8694W        W23825   9.280   0.519   2.087  0.1140 -0.2161  0.1715
 8695W        W23826  10.981   0.467   1.452  0.1810  0.1426  0.3984
 8696W        W23827   4.706   6.475   0.969  0.0863 -0.1473 -0.0436
 8697W        W23828   0.747   7.963  13.951  0.1993 -0.0037  0.2806
 8698W        W23829  10.407   7.002   0.690 -0.0239 -0.4093 -0.1378
 8699W        W23830  18.057   2.110  15.032 -0.0494 -0.1128  0.3549
 8700W        W23831  15.104   0.251  14.716  0.0704  0.2421  0.0206
 8701W        W23832   1.801  10.513  12.903 -0.2352  0.2080  0.0038
 8702W        W23833   4.324   0.155   3.552 -0.1343  0.0810  0.1319
 8703W        W23834   5.693   0.182   9.894 -0.0548  0.0891  0.4090
 8704W        W23835   5.709   1.860   2.216  0.1609 -0.0130  0.2827
 8705W        W23836  11.067   5.811   4.610 -0.1017  0.0666  0.1720
 8706W        W23837  15.282  13.371  12.841  0.1696 -0.3304 -0.0691
 8707W        W23838   5.346   2.310  15.313 -0.0645  0.3197 -0.1577
 8708W        W23839  17.011  17.336   4.350 -0.2592 -0.0365 -0.4068
 8709W        W23840   1.148  11.991   2.676 -0.0411  0.2135  0.2138
 8710W        W23841   9.601  12.761   1.164 -0.1771 -0.0119 -0.0436
 8711W        W23842   5.867  14.460  13.141  0.0361  0.1622  0.1963
 8712W        W23843   2.793   6.514  15.571  0.2300  0.1124 -0.1534
 8713W        W23844   8.505   3.922   4.933  0.1946 -0.0289  0.2840
 8714W        W23845   5.861   4.196   3.482  0.0945 -0.0014  0.2879
 8715W        W23846   7.236   9.894  13.817  0.1545 -0.4522 -0.2201
 8716W        W23847   1.382  12.308  12.381 -0.2840  0.2436  0.0593
 8717W        W23848   0.433   6.329  15.620  0.1016  0.0932 -0.2455
 8718W        W23849   0.694   5.642   5.445  0.0745 -0.3342 -0.0743
 8719W        W23850   7.153  10.560   0.552 -0.1336  0.1874  0.0132
 8720W        W23851  13.477   1.853  13.867 -0.5723  0.3195 -0.1878
 8721W        W23852  14.859  17.801  13.435 -0.2510 -0.0202 -0.0805
 8722W        W23853  13.226   7.423   6.019 -0.1526 -0.2316  0.0825
 8723W        W23854   4.209   8.049   0.390  0.0639 -0.0269 -0.2449
 8724W        W23855   0.645   3.505  11.161 -0.2665 -0.1019  0.0979
 8725W        W23856  13.335  13.921   0.569  0.1194 -0.0412  0.1402
 8726W        W23857  14.991  15.799   0.930 -0.0533  0.1474 -0.4034
 8727W        W23858   6.522   6.722   3.745  0.2516  0.0172 -0.1784
 8728W        W23859  13.273   1.054   0.011  0.0918 -0.1907 -0.2558
 8729W        W23860   8.389   0.885  11.526 -0.0748 -0.2080  0.0104
 8730W        W23861  17.136   1.202  15.274 -0.0521  0.5053  0.1721
 8731W        W23862   5.834   9.605   2.092 -0.1205 -0.1403  0.0052
 8732W        W23863  14.943  14.443  12.501  0.1141 -0.1556  0.1040
 8733W        W23864   4.232   9.562  14.124  0.0104 -0.1023 -0.0382
 8734W        W23865  16.614  14.620  10.592  0.3750 -0.2012  0.6208
 8735W        W23866   9.661   9.303  13.814 -0.0434  0.4029  0.2161
 8736W        W23867   9.791  12.547   5.664  0.2163 -0.2180 -0.1625
 8737W        W23868   5.828   3.721  12.008  0.0092  0.0768 -0.2992
 8738W        W23869  17.088  14.249   5.953  0.2855  0.2823  0.2921
 8739W        W23870   2.999   5.210   2.865 -0.0013 -0.3488  0.0769
 8740W        W23871   6.430   0.253  12.746 -0.1638  0.1304  0.2259
 8741W        W23872  10.401   7.234  15.197 -0.0460 -0.2123  0.1384
 8742W        W23873  11.623  15.239   0.029  0.0819 -0.0196  0.3096
 8743W        W23874   7.081   2.323   1.954  0.0270 -0.1896  0.2211
 8744W        W23875  14.831   0.108   1.946 -0.1342 -0.3410 -0.0499
 8745W        W23876  14.787  13.695  10.620  0.0407 -0.1956  0.0068
 8746W        W23877  13.982   6.773   3.077  0.0456  0.1252  0.1494
 8747W        W23878   0.064   0.154   1.993 -0.0165 -0.1398 -0.1742
 8748W        W23879  15.801   0.996  16.203  0.3544  0.1138  0.1109
 8749W        W23880  12.337   5.256   0.341  0.1509  0.1233  0.0196
 8750W        W23881  16.538   4.446  14.661 -0.0783 -0.0690  0.0221
 8751W        W23882   3.806   4.456  12.593  0.2141 -0.0811 -0.0091
 8752W        W23883  11.080   0.499   4.144 -0.0230 -0.0415 -0.0597
 8753W        W23884   5.835  15.170  10.028  0.0212  0.1388  0.0905
 8754W        W23885   3.052  12.197   4.946  0.3867 -0.3110 -0.1726
 8755W        W23886  11.489   5.514  16.202  0.1204  0.1170 -0.2889
 8756W        W23887  10.197   2.394   0.719  0.2447 -0.0904 -0.0525
 8757W        W23888  18.011   4.015   0.054  0.1290 -0.1359 -0.0592
 8758W        W23889  17.332   9.790  11.194  0.3022  0.0925 -0.2284
 8759W        W23890  17.523  11.254   0.441 -0.0551  0.0528  0.1182
 8760W        W23891  16.558   4.353  15.536 -0.2741 -0.2723  0.0661
 8761W        W23892   8.605   3.997  13.855 -0.0228  0.0465  0.1472
 8762W        W23893   5.450   9.730  15.493  0.2416  0.1455  0.0875
 8763W        W23894   1.058  13.249  12.892  0.3080  0.1129 -0.0322
 8764W        W23895   2.680   9.038  15.442  0.0227  0.2463 -0.0495
 8765W        W23896   5.493   8.909   4.207 -0.0182  0.2264 -0.1097
 8766W        W23897   3.908   7.652  13.925  0.1930  0.3030  0.0160
 8767W        W23898   0.670  15.689  12.285  0.1287  0.1256 -0.0858
 8768W        W23899   5.736   7.830   0.950  0.1700 -0.1100  0.0079
 8769W        W23900  16.528  12.606  15.947 -0.1363 -0.1901  0.1583
 8770W        W23901   8.914  12.266  14.510 -0.0452  0.0701  0.2757
 8771W        W23902   2.478  12.576   5.322  0.1217  0.2247  0.1493
 8772W        W23903   5.737   0.041  14.216  0.0692  0.1719 -0.0383
 8773W        W23904   1.881   4.853  15.254  0.1809 -0.0116 -0.0229
 8774W        W23905   2.628   7.709   0.954  0.5426  0.4129  0.2261
 8775W        W23906  15.137   8.121   3.121  0.0741  0.1481 -0.1606
 8776W        W23907   0.736  18.184   5.911  0.1604 -0.2493 -0.0176
 8777W        W23908   3.089  14.615   3.498  0.2728  0.1868 -0.1831
 8778W        W23909   1.577   6.552  13.355 -0.1581  0.0751 -0.1345
 8779W        W23910   8.735  17.668  11.956  0.2152  0.0595  0.2366
 8780W        W23911  11.230  10.443  13.204  0.1488  0.0104  0.1233
 8781W        W23912  13.913   7.344  14.953  0.1029  0.0232 -0.2112
 8782W        W23913   6.437   0.738   0.147  0.1895  0.2490  0.0738
 8783W        W23914  17.554   0.003   2.304  0.4026  0.1913  0.0860
 8784W        W23915   0.846   6.186   9.865 -0.0338 -0.0235  0.0998
 8785W        W23916   6.846  15.743  13.588  0.2049  0.1861 -0.1390
 8786W        W23917   7.074  12.414  14.938 -0.0900  0.1287 -0.3082
 8787W        W23918  17.028   2.875  13.561 -0.0948  0.1688 -0.0592
 8788W        W23919   2.230  13.647   2.881 -0.0705  0.0306  0.0704
 8789W        W23920  10.189   3.318   0.687  0.2791  0.0366  0.0136
 8790W        W23921   9.694  11.004  15.780  0.0457 -0.0278 -0.3691
 8791W        W23922   4.704  15.068   2.890  0.0240  0.3561  0.0998
 8792W        W23923  17.304   0.190  15.460 -0.2562  0.0247  0.4272
 8793W        W23924  18.133   3.257   0.757  0.0219  0.3142 -0.0899
 8794W        W23925  14.516   0.430   4.343  0.0944  0.3238  0.1826
 8795W        W23926  15.724  13.225  12.579 -0.1829 -0.0675 -0.0828
 8796W        W23927   0.837   3.293   1.653  0.1422 -0.0931 -0.5031
 8797W        W23928   1.478  12.001  10.628  0.1577  0.2930  0.2149
 8798W        W23929  11.416  11.956  11.685 -0.3912  0.0419  0.1180
 8799W        W23930   2.652   4.955  11.636  0.3553 -0.1526 -0.0581
 8800W        W23931   8.807  17.718  14.195 -0.1563  0.0294 -0.1478
 8801W        W23932  17.840   1.401   2.972 -0.1215 -0.0745  0.0860
 8802W        W23933   6.450  13.890   0.192  0.0897 -0.0393 -0.0083
 8803W        W23934  15.409  13.568   2.018  0.1927  0.0544 -0.2195
 8804W        W23935   8.602  10.398  10.237  0.3308 -0.3913 -0.0452
 8805W        W23936   3.048  12.850  11.703 -0.1398 -0.2177  0.1377
 8806W        W23937   8.126   9.370  15.710 -0.2563  0.0911  0.0459
 8807W        W23938   8.998   1.392   5.372  0.2705 -0.2214  0.0621
 8808W        W23939   6.938   2.329  11.479 -0.1810 -0.1472  0.0205
 8809W        W23940  16.220   5.016   2.173 -0.0336  0.1022  0.0099
 8810W        W23941   1.842   2.050  10.059 -0.2300  0.0616 -0.4648
 8811W        W23942   2.867   6.014   5.400  0.5482  0.1250  0.3332
 8812W        W23943   1.144  14.992   0.475  0.2382 -0.1613 -0.1116
 8813W        W23944   4.522   0.526   1.004 -0.2137  0.0731 -0.0579
 8814W        W23945  10.565  10.251  14.024 -0.0872  0.0611  0.1889
 8815W        W23946  17.652   1.101   1.493  0.2634 -0.0446 -0.1432
 8816W        W23947  12.631   4.023  13.292  0.1618  0.2478 -0.0260
 8817W        W23948  17.670  11.086  15.820 -0.1804  0.1604 -0.1509
 8818W        W23949  10.587  12.255   3.953 -0.0792  0.2146 -0.0587
 8819W        W23950  13.010  16.328  15.307  0.1796  0.0165  0.0381
 8820W        W23951   5.369   3.655   1.383 -0.0057  0.1004  0.4133
 8821W        W23952  11.432  13.497  14.098 -0.3417 -0.1296  0.0466
 8822W        W23953   0.127  10.634  11.243 -0.0178 -0.2145  0.0760
 8823W        W23954  11.186  15.241   3.965  0.0689  0.0598 -0.1955
 8824W        W23955  15.873   3.442  14.527 -0.0482  0.2462 -0.0946
 8825W        W23956   7.489   8.725  11.741 -0.0859 -0.0535  0.2785
 8826W        W23957   0.305   3.578  15.189 -0.0346  0.2597  0.1081
 8827W        W23958   6.075  17.569   4.405  0.0748  0.1723  0.2318
 8828W        W23959  12.526   6.755   0.507 -0.0134  0.2628  0.1286
 8829W        W23960   8.658  15.561   2.952  0.0509  0.0458 -0.0104
 8830W        W23961   6.566   7.042   4.222  0.0765 -0.0640  0.2325
 8831W        W23962   4.118  11.109  13.083  0.0258 -0.0553  0.0436
 8832W        W23963   9.853   2.466   5.044 -0.0420  0.0231 -0.1022
 8833W        W23964  10.515   7.176  14.074  0.0751 -0.1283 -0.0405
 8834W        W23965   5.773  16.782   5.370  0.0162  0.2406  0.0559
 8835W        W23966   6.547   0.703  14.409 -0.2556  0.2321 -0.0684
 8836W        W23967  12.902   7.206   5.667  0.2428  0.1786 -0.3012
 8837W        W23968  11.682   0.450  13.938  0.0698 -0.1341 -0.0376
 8838W        W23969  15.965  13.090  14.881 -0.3586  0.1975  0.0906
 8839W        W23970   3.890  14.180  14.620  0.2484  0.1298  0.2599
 8840W        W23971  11.240  13.955   4.649 -0.0718  0.2791 -0.2391
 8841W        W23972   7.806   0.624  15.350 -0.4983 -0.1380 -0.0373
 8842W        W23973   9.768   6.275  12.165  0.2473  0.0186  0.2541
 8843W        W23974  15.654   9.972   4.656  0.0024 -0.1195  0.1768
 8844W        W23975   0.421   9.718  11.449 -0.1626  0.1540  0.2006
 8845W        W23976  14.033   4.525  13.746  0.1942  0.1849 -0.0373
 8846W        W23977   1.042   6.481  13.334  0.2547  0.2041 -0.3194
 8847W        W23978   6.701   9.040   4.407 -0.1858 -0.3491  0.1623
 8848W        W23979   3.222   7.819   3.581  0.0782  0.2710 -0.2305
 8849W        W23980  16.346  13.926  14.614  0.0400  0.1668 -0.2412
 8850W        W23981  10.182   5.273   5.206  0.1355 -0.1259  0.0977
 8851W        W23982  12.340  10.818  15.179  0.1644  0.0642 -0.3546
 8852W        W23983  14.743  11.919   0.718  0.2140  0.0380 -0.0316
 8853W        W23984  13.103  10.194   5.116  0.0692  0.1048 -0.0751
 8854W        W23985   1.245  17.116   0.297 -0.0853 -0.0064 -0.0468
 8855W        W23986  13.874  16.733  11.585 -0.3818 -0.0314  0.1892
 8856W        W23987   2.882  15.072  10.231  0.0048 -0.1937 -0.1566
 8857W        W23988  13.701  12.582   2.964  0.0607  0.3086  0.0352
 8858W        W23989  12.076   2.506   1.775 -0.0806 -0.1778 -0.2524
 8859W        W23990   1.115   4.693   5.053 -0.2845 -0.0478 -0.7332
 8860W        W23991  12.808  11.054  15.751  0.0856 -0.0663  0.1236
 8861W        W23992   0.210   4.940   1.464  0.1455 -0.0105 -0.1069
 8862W        W23993   8.900   2.074   1.044  0.0697  0.2129  0.2083
 8863W        W23994  17.909  14.755   5.223  0.3521  0.0402 -0.1212
 8864W        W23995   5.216   6.747   3.400 -0.0752  0.0649  0.0437
 8865W        W23996  11.267  13.156  12.031 -0.0841 -0.3662  0.2278
 8866W        W23997   3.573   7.336  13.359 -0.1298  0.3996 -0.1029
 8867W        W23998  17.198   1.799   1.163 -0.1099  0.3554 -0.2056
 8868W        W23999   3.456  10.061   0.401 -0.0425 -0.0763  0.0409
 8869W        W24000  16.116  14.695   5.376 -0.0253 -0.4426  0.0293
 8870W        W24001   7.362   5.449   3.515  0.0113 -0.2083  0.0769
 8871W        W24002  16.537  11.383   4.125 -0.0062  0.2113 -0.0892
 8872W        W24003   5.072   4.741   2.115  0.1483 -0.2351  0.0392
 8873W        W24004   7.114  17.145  11.494  0.1349  0.1097  0.1334
 8874W        W24005   8.104   1.630  14.497  0.0792  0.2817  0.3869
 8875W        W24006   1.030   6.585   3.139  0.0524  0.4025 -0.1161
 8876W        W24007   1.937   3.933   5.150  0.1178 -0.0771 -0.1573
 8877W        W24008   6.782   3.053   4.460 -0.3196 -0.1232 -0.1394
 8878W        W24009   4.884   1.743   1.135 -0.2503 -0.0718 -0.2710
 8879W        W24010   1.645   0.267  15.100 -0.1294 -0.0921 -0.1885
 8880W        W24011   5.264  15.678  11.797 -0.0116  0.0758  0.0756
 8881W        W24012   9.558  17.822  13.885  0.2070 -0.0945 -0.0099
 8882W        W24013   3.262  15.606   2.468  0.2085  0.1137  0.0886
 8883W        W24014   0.597   4.308   0.061 -0.0704 -0.2290 -0.2916
 8884W        W24015   5.286  17.808  15.305  0.1398 -0.0792 -0.1899
 8885W        W24016   4.250   9.260  10.234 -0.0753 -0.3689  0.2726
 8886W        W24017   8.592  15.006  14.239 -0.0712  0.1463 -0.2600
 8887W        W24018   9.337   4.556  12.859  0.0586  0.3676 -0.0369
 8888W        W24019  10.487  15.398  15.133 -0.0541  0.0451  0.1068
 8889W        W24020   4.404   3.094  14.888  0.2781 -0.1656  0.1701
 8890W        W24021   5.778  12.825   1.798 -0.1280 -0.0338 -0.0833
 8891W        W24022   3.921   8.335   2.729 -0.3494  0.1500  0.2563
 8892W        W24023  12.783   6.088   2.589  0.0706 -0.2185 -0.0158
 8893W        W24024  14.384  15.857  13.099 -0.1573 -0.0733  0.2312
 8894W        W24025  17.344   9.084   2.290  0.2920 -0.1263  0.3080
 8895W        W24026  13.834  10.725  12.865 -0.1538  0.1251 -0.0109
 8896W        W24027  14.695   4.786  12.364  0.0414  0.1953 -0.0432
 8897W        W24028  14.958  13.070  13.620 -0.3298 -0.2465  0.0149
 8898W        W24029   3.007   4.420   0.016 -0.1020 -0.2139 -0.1558
 8899W        W24030   8.692  10.965   1.330 -0.3314  0.0294  0.1124
 8900W        W24031  11.269  15.253   4.494 -0.0427 -0.2874  0.0457
 8901W        W24032   2.092   2.186  15.499 -0.2418  0.1904 -0.0698
 8902W        W24033  17.792   7.907  13.569 -0.3514 -0.0699 -0.2368
 8903W        W24034  16.882   8.184  10.934  0.2077 -0.2633  0.0615
 8904W        W24035  14.702   2.424  11.519  0.0282 -0.0146  0.1736
 8905W        W24036   4.562   6.159   2.988 -0.0307  0.0910  0.3591
 8906W        W24037  12.076  16.671  14.607 -0.0639 -0.0945  0.2319
 8907W        W24038   5.286  16.637  14.436  0.2785 -0.1143  0.0606
 8908W        W24039   6.765   9.590   5.347 -0.2472  0.1540 -0.0883
 8909W        W24040  12.256  15.234  11.647 -0.0294  0.0406 -0.1158
 8910W        W24041  10.640   7.706   0.147  0.0018  0.0132  0.3067
 8911W        W24042   0.246  11.786  14.919  0.2484  0.0146 -0.2727
 8912W        W24043   4.576  17.013  12.133 -0.1151 -0.0341  0.4526
 8913W        W24044   2.809  15.793   5.051 -0.0272 -0.0197 -0.0127
 8914W        W24045   1.899   1.756   2.873 -0.1744 -0.1576  0.2950
 8915W        W24046   3.288   4.867  15.445  0.0626  0.1162  0.0834
 8916W        W24047   6.438   1.727   4.401  0.1422 -0.1200  0.1534
 8917W        W24048   7.225   5.415   0.204  0.4031  0.0513 -0.0153
 8918W        W24049   7.765  13.340  13.686 -0.0596  0.0335 -0.1384
 8919W        W24050   2.066   9.057  12.745 -0.0693 -0.1016  0.2254
 8920W        W24051   5.188   2.124  14.400  0.0310 -0.1037  0.3589
 8921W        W24052  11.828  16.360  11.105  0.4512  0.2386  0.3518
 8922W        W24053   8.447   6.088   2.491 -0.3542  0.2868 -0.1164
 8923W        W24054  15.167  16.105   3.865  0.4038 -0.0084 -0.0128
 8924W        W24055   6.262   9.114   3.422 -0.2523  0.1200  0.0491
 8925W        W24056   7.126   7.471  16.003 -0.0391  0.1121  0.2961
 8926W        W24057   2.873   5.153   3.820  0.5001  0.1460  0.1433
 8927W        W24058   0.738   1.665   4.474 -0.0854 -0.0388  0.1467
 8928W        W24059   3.361  15.640   0.305  0.3898 -0.0046 -0.0018
 8929W        W24060  15.112   2.131  15.788  0.2322  0.1073 -0.2540
 8930W        W24061  13.152  13.536   4.787 -0.0826 -0.2212 -0.1341
 8931W        W24062  10.350  12.485   3.561  0.0408 -0.0770 -0.2336
 8932W        W24063   2.652   2.069  10.263  0.0101  0.1023 -0.2219
 8933W        W24064   1.930  10.748   4.189 -0.1384  0.2462  0.2817
 8934W        W24065   8.519  13.695   1.373  0.0583 -0.0430  0.0315
 8935W        W24066   2.175  15.688   0.405  0.1765  0.2159  0.0269
 8936W        W24067  10.106  11.138   0.362 -0.0964 -0.0107  0.0749
 8937W        W24068   7.152   2.330   0.960 -0.2387 -0.1857 -0.1652
 8938W        W24069  13.431   1.112   5.744  0.0459  0.0278 -0.0193
 8939W        W24070   4.295   3.127   0.981  0.0970 -0.0451  0.5701
 8940W        W24071  16.927   8.064   2.772 -0.0878  0.1098  0.3323
 8941W        W24072   3.267  12.803   0.772  0.1543 -0.2337 -0.2435
 8942W        W24073   2.003  13.519   3.494  0.1054 -0.0375 -0.1755
 8943W        W24074   8.573   2.851  13.091 -0.0192  0.0517 -0.0953
 8944W        W24075  17.443   4.339   1.298  0.0701  0.0346  0.2348
 8945W        W24076  17.355   6.115   4.183  0.3797  0.0582  0.0955
 8946W        W24077   8.240   0.353  12.325  0.0065  0.1692 -0.1627
 8947W        W24078  14.217   7.337  14.448 -0.0408 -0.2112  0.0703
 8948W        W24079   6.844   8.276   0.995  0.1196 -0.1044 -0.0284
 8949W        W24080  16.773   1.754   3.639  0.0429  0.0907 -0.0281
 8950W        W24081   7.601  12.926   4.845  0.0972 -0.0496 -0.0211
 8951W        W24082  17.745   9.554   3.116 -0.1510  0.0182 -0.0715
 8952W        W24083  16.791  16.488   2.487  0.1400 -0.2324 -0.0531
 8953W        W24084  10.221  14.395   3.171  0.4339 -0.1410 -0.0676
 8954W        W24085   9.723  12.270   1.388 -0.0870 -0.0329 -0.1308
 8955W        W24086   5.556   0.719  11.974 -0.1263  0.2115 -0.0574
 8956W        W24087   8.285  13.814  13.139  0.0220 -0.2175 -0.2800
 8957W        W24088  13.582   1.679  12.924 -0.3090  0.2895 -0.1049
 8958W        W24089   1.089  11.525  11.855 -0.1025 -0.2169  0.2396
 8959W        W24090  12.100  15.214  15.182  0.0463  0.0158  0.4317
 8960W        W24091  12.520   0.858   5.609 -0.0877 -0.1850  0.1237
 8961W        W24092   0.681   4.295   0.567 -0.3386 -0.0738  0.0709
 8962W        W24093   1.734   1.887  14.970  0.1825  0.1098 -0.1864
 8963W        W24094  10.004   8.410  15.806 -0.0319  0.0145  0.0595
 8964W        W24095   3.943   4.116   2.832 -0.0592 -0.0101  0.0473
 8965W        W24096   6.395   5.111   3.825  0.1261 -0.3725  0.1388
 8966W        W24097   9.725  13.600  13.299  0.1735  0.1619  0.1611
 8967W        W24098   0.049   3.473  14.737 -0.0806 -0.3022  0.0725
 8968W        W24099   0.249  10.937  15.263  0.0249 -0.0261 -0.0164
 8969W        W24100   6.504  17.061  10.448  0.3344 -0.1271 -0.0675
 8970W        W24101   1.621   0.804  13.251  0.0005  0.2009 -0.0950
 8971W        W24102  13.313   5.830   1.713  0.3449 -0.0537 -0.0372
 8972W        W24103   9.140   6.540  15.322 -0.0154 -0.1184 -0.1634
 8973W        W24104   4.413   1.131  15.145  0.0033 -0.0034 -0.1353
 8974W        W24105  12.578   7.105   2.687 -0.0421  0.2683 -0.0261
 8975W        W24106   3.367  12.545   3.401 -0.0302 -0.2470 -0.1524
 8976W        W24107  10.030   1.916  11.712 -0.1270 -0.1292 -0.0469
 8977W        W24108  14.855   2.186  12.193  0.0027  0.2128 -0.0370
 8978W        W24109  11.626   7.088   5.188  0.1071  0.2580  0.2113
 8979W        W24110  14.230  13.462   0.209  0.1376  0.1471 -0.1459
 8980W        W24111  16.186   1.939  15.430 -0.1839 -0.2195  0.1619
 8981W        W24112   4.673  13.303   5.565 -0.0066 -0.1255 -0.3401
 8982W        W24113   6.647   4.051   0.533 -0.1298 -0.1769 -0.2058
 8983W        W24114  10.631   0.841  14.120 -0.2538  0.1913  0.1003
 8984W        W24115  14.983   3.412   3.850 -0.3971 -0.2483  0.0718
 8985W        W24116  10.628   6.073   0.368 -0.0768 -0.1463 -0.0701
 8986W        W24117   0.927  17.824   5.270 -0.2510  0.0232  0.2671
 8987W        W24118  15.996   4.391   3.455 -0.1848  0.3932  0.0399
 8988W        W24119  17.431  13.176  14.179  0.1546 -0.0114 -0.0092
 8989W        W24120  13.706   3.266   0.915  0.1426  0.3629  0.2660
 8990W        W24121  10.153   5.526   3.703 -0.1940  0.0276 -0.0471
 8991W        W24122  16.986   8.734  14.883  0.0683  0.0542 -0.1098
 8992W        W24123  12.204   4.844  15.132  0.3827  0.0636 -0.1211
 8993W        W24124   6.397  10.482   2.961  0.1650 -0.0572  0.1684
 8994W        W24125   0.656  12.425  13.119 -0.0595  0.2483 -0.0600
 8995W        W24126  14.795  12.992   2.899  0.0179 -0.2089 -0.0750
 8996W        W24127  16.989  14.228   3.278 -0.1749  0.1613 -0.1004
 8997W        W24128  17.695  13.538  11.744  0.3637 -0.0424  0.0071
 8998W        W24129   7.277   7.342  12.051 -0.3528  0.1308 -0.2001
 8999W        W24130   0.026   6.611   4.013  0.2511 -0.0835 -0.1990
 9000W        W24131  15.182  10.070  15.184 -0.0631  0.1633  0.4229
 9001W        W24132   7.118   6.286   2.810  0.0617 -0.1613 -0.3068
 9002W        W24133   6.777   2.053   2.326  0.2671 -0.3579  0.0019
 9003W        W24134  16.028  12.425  15.697  0.1597 -0.0907  0.1842
 9004W        W24135   7.786  16.569  11.775 -0.0515  0.1134  0.2478
 9005W        W24136   0.028   2.206  14.006  0.1350  0.0098 -0.2269
 9006W        W24137   5.856  12.644   5.168  0.0964 -0.1477  0.2696
 9007W        W24138   0.527   6.877  10.222  0.1230  0.2875  0.5379
 9008W        W24139  15.581   8.102   4.384  0.2215 -0.0314  0.0221
 9009W        W24140   9.949   4.549  12.026  0.3467  0.1689  0.2261
 9010W        W24141  18.094  16.411  11.384  0.0854 -0.0306 -0.1370
 9011W        W24142  13.378   0.559  13.513  0.2134 -0.0649 -0.1146
 9012W        W24143  12.546   7.881  11.776  0.0530 -0.0338  0.2645
 9013W        W24144  12.652   9.611  12.206  0.3012  0.1120 -0.0154
 9014W        W24145  10.949  17.402   1.176  0.2850  0.1032  0.1495
 9015W        W24146  15.442  14.818  14.571 -0.1947 -0.4493  0.0596
 9016W        W24147  15.299   8.215  15.588 -0.0515  0.1798 -0.1834
 9017W        W24148  18.133   3.282  13.403 -0.2494  0.1748 -0.1144
 9018W        W24149  13.770  12.775  11.196  0.0416  0.3112  0.0546
 9019W        W24150  15.430   7.623  15.528 -0.1736  0.1759 -0.0584
 9020W        W24151   9.351  10.931  10.950  0.2571  0.0991  0.1976
 9021W        W24152   8.606   3.903   2.523 -0.3070 -0.1826  0.1632
 9022W        W24153   3.886  13.800   1.750  0.0263 -0.2876 -0.0512
 9023W        W24154  15.013  18.000   0.401  0.0386 -0.2341 -0.0454
 9024W        W24155   7.666  14.280   1.577  0.1156 -0.0978  0.1965
 9025W        W24156  15.738   2.322   0.888  0.1934  0.1853  0.4562
 9026W        W24157   2.863   7.701  14.980 -0.2236  0.0742 -0.1367
 9027W        W24158   5.404   8.180  14.937 -0.1830  0.3118  0.1896
 9028W        W24159  10.210  15.874  11.865 -0.1108  0.1341  0.2028
 9029W        W24160  14.725   1.783   4.592 -0.0389 -0.0029  0.1828
 9030W        W24161  13.820   3.157  13.954 -0.2553  0.1732 -0.1497
 9031W        W24162   8.411   9.150  11.364  0.1182  0.2237 -0.1566
 9032W        W24163  13.091   2.542  10.724  0.1919 -0.0330  0.0459
 9033W        W24164   2.494   0.994  11.646 -0.2021 -0.1198  0.3360
 9034W        W24165  12.921   7.585  11.963  0.1291 -0.4252  0.1642
 9035W        W24166   2.873  15.887   2.203  0.1734  0.0065  0.1601
 9036W        W24167   5.310  10.481   2.211 -0.0615  0.0932  0.2817
 9037W        W24168   7.790   8.381  15.442 -0.0466 -0.2038 -0.0493
 9038W        W24169  17.092  11.638   0.297  0.0145 -0.2089  0.2583
 9039W        W24170  18.092  14.010   0.322  0.0458 -0.1622 -0.1384
 9040W        W24171   5.297   6.127   1.414 -0.0525 -0.0704  0.0008
 9041W        W24172  13.408   9.923  15.038  0.0535  0.1539 -0.2400
 9042W        W24173   6.735   7.159   2.984  0.2037  0.0718 -0.3399
 9043W        W24174  10.525  14.351   0.295 -0.1236 -0.1058  0.0860
 9044W        W24175  12.307  13.723  14.482  0.3875  0.0904  0.2435
 9045W        W24176   4.841   7.892  13.213  0.0804 -0.0109  0.3569
 9046W        W24177  12.532  17.900   4.138  0.2368 -0.1053  0.0681
 9047W        W24178  11.000   4.227  13.368 -0.1010  0.2273 -0.2471
 9048W        W24179   5.038   7.077   3.850 -0.1982 -0.0387 -0.1087
 9049W        W24180  14.053   2.898   0.865  0.0861  0.0696 -0.0599
 9050W        W24181   2.406   8.734  15.760  0.2804 -0.3297  0.0752
 9051W        W24182   3.468  16.915  13.188 -0.1013 -0.1137  0.3394
 9052W        W24183  10.189  12.123  12.033  0.4109  0.1563 -0.2618
 9053W        W24184  15.769  17.163  16.188 -0.1503 -0.0334  0.0529
 9054W        W24185   9.644   0.666   0.483 -0.1217 -0.2975 -0.0741
 9055W        W24186  11.815  13.222  15.908  0.2592  0.0715  0.0170
 9056W        W24187   8.990  12.959  13.259  0.0006  0.0633 -0.2811
 9057W        W24188   8.141  15.183  15.011 -0.3450  0.1202 -0.1396
 9058W        W24189  15.340  15.891  11.194  0.3088 -0.1098  0.2728
 9059W        W24190  13.866  12.739   1.383  0.0249 -0.2946 -0.1025
 9060W        W24191  12.509   2.994  15.914 -0.1816  0.0681  0.0178
 9061W        W24192   9.852  15.166  11.987 -0.2593 -0.2151  0.0341
 9062W        W24193  11.585  16.250   4.416 -0.0674 -0.2442  0.2266
 9063W        W24194  10.075   2.252  10.131  0.1239 -0.0030  0.0016
 9064W        W24195  15.606   2.385  10.469 -0.0468  0.2067  0.0898
 9065W        W24196   0.575   5.396  12.847 -0.0821  0.0158  0.1624
 9066W        W24197   0.766   8.412  12.455  0.0095 -0.0379 -0.3437
 9067W        W24198   8.286  10.689   4.225  0.0840 -0.2440  0.2217
 9068W        W24199  12.676  12.893  12.561  0.0915  0.2738 -0.0012
 9069W        W24200   4.329  11.919  11.026 -0.2179  0.5122 -0.1954
 9070W        W24201  12.472   0.234   5.143  0.3511  0.0756  0.0082
 9071W        W24202   3.713  15.388   2.166 -0.0719  0.1913 -0.0881
 9072W        W24203   5.529  17.830  15.753  0.0560  0.0722  0.1179
 9073W        W24204   6.817   4.196   3.353 -0.1451 -0.0654 -0.3930
 9074W        W24205   8.633  10.385   4.987 -0.3816  0.2775 -0.1781
 9075W        W24206  14.912  12.263  11.558  0.0079 -0.3404  0.3020
 9076W        W24207   5.608  10.694   4.474 -0.0710  0.3147 -0.1180
 9077W        W24208   8.130   1.068   1.680  0.0584 -0.0990 -0.3271
 9078W        W24209  17.757  15.375   5.321 -0.0438 -0.1533 -0.0169
 9079W        W24210  15.271   7.812   4.672  0.0736  0.0537  0.3755
 9080W        W24211  13.361  15.031   1.586 -0.0296  0.2486  0.0347
 9081W        W24212   4.203  14.964   1.546  0.0171  0.2462  0.0943
 9082W        W24213   7.924   4.466  11.898  0.0272 -0.0751  0.1882
 9083W        W24214   7.827   3.208   2.230  0.2246  0.0307  0.0637
 9084W        W24215  14.314  13.338   5.536 -0.0466  0.1945  0.5587
 9085W        W24216  16.085  10.615  11.482  0.3593  0.1098  0.3467
 9086W        W24217  10.719  12.582   4.363 -0.1439  0.2919  0.1707
 9087W        W24218   3.732  16.187  11.627 -0.1295  0.1533  0.1635
 9088W        W24219   2.247   4.704   1.046  0.2968 -0.2375  0.0327
 9089W        W24220   5.526  16.614   0.490 -0.0287  0.1637  0.1578
 9090W        W24221   4.589  14.197   2.067 -0.0754 -0.1103 -0.1235
 9091W        W24222   4.317   2.695   4.551 -0.1470  0.1241  0.1554
 9092W        W24223   1.630   5.591   1.344 -0.2894  0.1604 -0.0664
 9093W        W24224   4.607  15.766  10.529 -0.1448 -0.1689 -0.1495
 9094W        W24225   4.879  12.260   4.187 -0.0704 -0.1438  0.2893
 9095W        W24226  17.367  12.232  13.668 -0.2443 -0.1803 -0.1933
 9096W        W24227   0.459  13.096  10.722  0.1129 -0.2229  0.1813
 9097W        W24228  11.760   1.850   5.010 -0.1141 -0.1332  0.2124
 9098W        W24229   2.809   2.188   3.100 -0.0353 -0.1756  0.0511
 9099W        W24230   1.721  14.597  14.924 -0.2039  0.2377 -0.1542
 9100W        W24231  11.702   5.819  15.878 -0.1445 -0.1514  0.2631
 9101W        W24232   0.862  14.693  13.871  0.0747  0.1626  0.4193
 9102W        W24233  11.197  15.238  11.934  0.1877 -0.1379 -0.1975
 9103W        W24234   8.050   1.665   3.532 -0.2123  0.1318 -0.1179
 9104W        W24235   9.307  15.770   2.323 -0.0942  0.2113 -0.1971
 9105W        W24236  11.714  11.318  14.185  0.4044 -0.0960  0.1194
 9106W        W24237   9.686   7.911  12.077  0.0003  0.2686  0.1335
 9107W        W24238   8.096  10.552  11.817 -0.1179  0.0937 -0.1176
 9108W        W24239   0.597  16.317   0.300  0.2116 -0.1814  0.0234
 9109W        W24240   8.975   6.932  14.565  0.3279  0.3551  0.0940
 9110W        W24241  11.852   7.111   3.172 -0.0723 -0.4768  0.2685
 9111W        W24242  12.025   4.998   0.674  0.1256 -0.0650  0.2249
 9112W        W24243   1.247   5.860   2.533 -0.0574 -0.1274 -0.1249
 9113W        W24244   5.198  12.799   4.466 -0.2542  0.0145  0.3531
 9114W        W24245  10.409   4.248   2.294  0.2562 -0.1387  0.2705
 9115W        W24246  13.284   4.340  11.345 -0.1101 -0.0380 -0.0815
 9116W        W24247  11.149  11.057  14.975  0.0455 -0.0645 -0.3242
 9117W        W24248  12.214   5.900   4.525  0.0244 -0.1254  0.1159
 9118W        W24249  17.272  10.321  15.668  0.1206 -0.2305 -0.2507
 9119W        W24250   5.364   6.788  14.116  0.0038 -0.0326 -0.0259
 9120W        W24251   3.612   0.439   1.577  0.0835 -0.2355 -0.0252
 9121W        W24252  16.003   8.633   6.004 -0.3069 -0.0367  0.1092
 9122W        W24253  15.182  15.977   1.759 -0.2051  0.2200  0.4836
 9123W        W24254   9.071   9.336  15.099 -0.0800 -0.0731 -0.4151
 9124W        W24255  14.464  15.484  12.249  0.1460 -0.0487  0.2369
 9125W        W24256   3.558  17.184  15.093 -0.2224  0.1299 -0.1456
 9126W        W24257   8.902   3.616  13.785 -0.0217 -0.3020 -0.2147
 9127W        W24258   6.783   4.271   3.842 -0.0457  0.1919  0.1255
 9128W        W24259  16.937  12.414  14.300 -0.2104 -0.3553 -0.1052
 9129W        W24260   7.142  10.425  10.753 -0.4462 -0.1874  0.1253
 9130W        W24261  17.087   0.918   2.614 -0.0019  0.0512 -0.2418
 9131W        W24262  16.918   9.606   1.123  0.0210  0.1053 -0.0364
 9132W        W24263  10.903  11.122  10.234  0.1727 -0.3134 -0.0441
 9133W        W24264   1.084  15.451   5.037  0.2277 -0.1961  0.0085
 9134W        W24265   7.815   8.218   1.450  0.3518  0.2443 -0.2792
 9135W        W24266   1.182  10.162   1.463  0.2664 -0.1205  0.0199
 9136W        W24267   2.491  16.631  11.142 -0.0584  0.2426 -0.0802
 9137W        W24268  10.862  12.297   2.988 -0.2002 -0.1209  0.2584
 9138W        W24269  15.136   5.404   5.699 -0.1430 -0.2208  0.2068
 9139W        W24270   7.809  12.786   3.912 -0.0531  0.3745 -0.1707
 9140W        W24271  11.103   0.511   0.247 -0.0500 -0.0592 -0.1493
 9141W        W24272  18.054   7.919   4.593 -0.2659 -0.0521 -0.0215
 9142W        W24273  12.481  15.034  14.319  0.0740 -0.3288  0.2596
 9143W        W24274   5.352   6.319  11.885  0.1133 -0.1300 -0.3123
 9144W        W24275   6.037  18.107   0.068  0.1996  0.1601  0.1778
 9145W        W24276  11.106   9.355   4.606  0.1529  0.1456 -0.1485
 9146W        W24277   5.895  13.335  15.540  0.0220  0.1187 -0.1206
 9147W        W24278  17.708  17.072  15.826  0.4748  0.1582  0.0530
 9148W        W24279   5.899  12.685  10.046 -0.1641  0.0797  0.5730
 9149W        W24280   0.142  16.048   3.945  0.2776  0.0990  0.2916
 9150W        W24281   0.131  13.768   6.778 -0.1227 -0.0955 -0.2140
 9151W        W24282  17.743   0.906   5.790  0.1689 -0.3201  0.0215
 9152W        W24283   6.289   5.589   0.678  0.1628 -0.2902 -0.2359
 9153W        W24284  18.114  10.838  15.946 -0.3626 -0.1293  0.2667
 9154W        W24285   8.226   0.699  14.286  0.3249  0.1446  0.1610
 9155W        W24286   6.151   5.626  11.868  0.0637  0.1669 -0.2474
 9156W        W24287   1.762  12.586   1.494 -0.1063  0.1817  0.0479
 9157W        W24288  13.500  12.300   2.176  0.1505  0.0308 -0.0524
 9158W        W24289  15.560  13.760  13.092  0.1386 -0.1711 -0.1282
 9159W        W24290   3.704   2.256   1.601  0.2352  0.1561 -0.3280
 9160W        W24291  11.548   2.569  13.819 -0.1035  0.1060 -0.3794
 9161W        W24292  17.781  15.605   4.031  0.1216  0.1757 -0.0025
 9162W        W24293   2.802   6.184   2.527 -0.1492  0.0705 -0.0077
 9163W        W24294   7.871   5.378   0.929  0.0760  0.1754  0.0137
 9164W        W24295   9.060  16.843   3.796  0.1100 -0.0045 -0.0465
 9165W        W24296  14.790  13.581  11.440  0.1018  0.2130  0.0324
 9166W        W24297   8.315  10.033   5.165 -0.2841 -0.1889 -0.4647
 9167W        W24298   4.423   7.021   5.155 -0.0255 -0.3798  0.1487
 9168W        W24299   5.024   5.687  13.916  0.2334 -0.4816 -0.1309
 9169W        W24300  17.933   6.068   2.293 -0.0366 -0.0494  0.0823
 9170W        W24301   5.827  14.810  15.130 -0.0619 -0.1314 -0.1872
 9171W        W24302   4.095   4.636   0.453  0.0226  0.1558  0.1870
 9172W        W24303   7.080  16.364  15.303  0.3362 -0.0321 -0.2043
 9173W        W24304  17.252   6.734   1.057  0.1248 -0.0021  0.1564
 9174W        W24305   8.862   8.627   0.931  0.1669  0.1248  0.2891
 9175W        W24306  17.823   5.342  15.280  0.0408  0.2783 -0.0870
 9176W        W24307   0.770  14.652  15.593 -0.3399  0.0890 -0.1514
 9177W        W24308   0.716  12.083   0.435  0.0566 -0.0544 -0.2554
 9178W        W24309  11.014  14.367  13.675 -0.6259 -0.0537 -0.1091
 9179W        W24310  12.308  15.797  15.807 -0.0124 -0.1660 -0.0848
 9180W        W24311  16.553  15.372   0.177 -0.0863 -0.2035 -0.1228
 9181W        W24312   3.322   7.953   2.105  0.0001  0.0528  0.0863
 9182W        W24313  12.666   8.685  14.914 -0.5583 -0.5468  0.0366
 9183W        W24314  14.146  11.057   4.824  0.0977 -0.0825 -0.1030
 9184W        W24315   6.307   6.896   4.699  0.0209 -0.0351  0.1663
 9185W        W24316  13.116  12.320   4.815 -0.1434 -0.4120 -0.2372
 9186W        W24317   6.394  13.721  15.186  0.1757 -0.0696 -0.1172
 9187W        W24318   2.430  15.856   2.678  0.3091 -0.1209 -0.1897
 9188W        W24319   8.583   6.331  11.916 -0.2515  0.0176 -0.2253
 9189W        W24320  17.685  10.679   2.284 -0.0067 -0.0361  0.2038
 9190W        W24321   8.933  16.549  16.042  0.2141 -0.2223  0.1758
 9191W        W24322   1.726   1.592  14.065  0.1786 -0.0795 -0.2796
 9192W        W24323  14.224   6.053   2.135 -0.0763 -0.0210  0.1025
 9193W        W24324  11.279   1.515  14.695 -0.3462 -0.2299 -0.1202
 9194W        W24325   8.371  10.808   0.405  0.0529 -0.0574 -0.2610
 9195W        W24326  12.996   8.537  14.582 -0.1535  0.1260 -0.1236
 9196W        W24327  13.937   8.643   4.249  0.0794 -0.0567  0.0180
 9197W        W24328  13.385   6.517  13.278  0.2130 -0.1287 -0.2572
 9198W        W24329   4.171   7.569   0.679 -0.0306 -0.4806 -0.1776
 9199W        W24330   9.719   1.877   4.406 -0.1697 -0.1416 -0.1712
 9200W        W24331   5.825   4.954  16.223 -0.1866 -0.0936  0.1670
 9201W        W24332  15.296   1.864   3.223  0.1122 -0.0991  0.0834
 9202W        W24333   7.123   1.316   2.276 -0.1036 -0.1935  0.1383
 9203W        W24334   8.652   0.208  11.601  0.0509 -0.0680  0.1231
 9204W        W24335  17.377   3.701   1.368  0.2363 -0.2256  0.0536
 9205W        W24336   9.751   9.174   2.543 -0.0556 -0.1670 -0.2224
 9206W        W24337  15.707  13.121  13.536  0.2254  0.1692  0.1375
 9207W        W24338   7.089   2.388   4.916  0.0242 -0.0543  0.1857
 9208W        W24339   8.074   9.450  15.179  0.0862  0.0008  0.1201
 9209W        W24340   4.536  11.664   2.244 -0.3894 -0.0699  0.0733
 9210W        W24341  14.098   9.918   0.096 -0.3182 -0.2901 -0.0769
 9211W        W24342  14.769  15.968   4.859  0.1431 -0.1141 -0.2014
 9212W        W24343   0.168   3.561  15.646  0.1393 -0.1327 -0.2186
 9213W        W24344  10.872  16.963   5.701  0.1741 -0.1170 -0.1207
 9214W        W24345   0.427   4.200   5.963  0.2290 -0.1858 -0.2597
 9215W        W24346  11.620  10.888   3.666  0.1108 -0.0812  0.0248
 9216W        W24347   4.994  13.568   3.808 -0.1649  0.1523  0.1022
 9217W        W24348   8.897   5.863   1.219  0.1369 -0.3617  0.1742
 9218W        W24349  13.618   8.883   1.754 -0.1045 -0.1222  0.4890
 9219W        W24350  13.988   2.310  12.469  0.0985  0.2234 -0.1274
 9220W        W24351  14.259  11.987  10.920 -0.1802  0.0567 -0.4563
 9221W        W24352  11.139   6.765   4.638  0.2822 -0.2410 -0.0055
 9222W        W24353  12.551  14.607   4.760  0.0044 -0.0666 -0.2636
 9223W        W24354  12.715  15.378  13.451 -0.0428 -0.1298 -0.4466
 9224W        W24355   9.701  16.353  12.641 -0.1699  0.0678  0.2302
 9225W        W24356   8.460   3.662   4.513 -0.1007  0.1425  0.1274
 9226W        W24357  14.185   4.398   4.172  0.0768 -0.1259  0.2823
 9227W        W24358   9.300   0.886  13.086  0.2059  0.1193  0.0810
 9228W        W24359  16.297  11.931   5.856 -0.1837  0.0963 -0.1659
 9229W        W24360   3.264  16.592  15.095 -0.1428 -0.3316  0.3363
 9230W        W24361   8.519  11.272  12.429 -0.0589  0.0556  0.0181
 9231W        W24362   4.671   4.621  12.853 -0.0991 -0.4127 -0.2561
 9232W        W24363   8.861   9.418   4.911 -0.2973 -0.2301 -0.0623
 9233W        W24364   4.487   3.908   1.065  0.0882 -0.2987  0.3239
 9234W        W24365  17.383   9.161  13.052 -0.0012  0.3903  0.0245
 9235W        W24366   9.887   6.721  10.607 -0.2345 -0.0098  0.2100
 9236W        W24367   7.166   6.317   3.848 -0.1138 -0.2995 -0.1671
 9237W        W24368  17.822  10.641  12.097 -0.1584  0.0817 -0.0996
 9238W        W24369  10.752   3.105  12.401  0.0998  0.1357  0.2813
 9239W        W24370  13.261  12.322   0.231  0.1203  0.0586  0.1009
 9240W        W24371   7.114   4.628   4.045  0.1111  0.1670  0.1733
 9241W        W24372   7.009   2.899   2.804 -0.0233 -0.4638 -0.1522
 9242W        W24373  12.163   8.366   2.723  0.2230 -0.1027  0.1126
 9243W        W24374  13.649  16.743   1.161 -0.0245  0.3319  0.0661
 9244W        W24375   6.486  11.727   2.978  0.1732  0.1401  0.0650
 9245W        W24376   6.551   6.744  14.471 -0.2537  0.1137  0.1114
 9246W        W24377  17.355   8.377   1.843  0.0636 -0.0423 -0.0193
 9247W        W24378  17.295  14.351  12.250 -0.0720 -0.3475 -0.1278
 9248W        W24379   9.364   3.864   0.922  0.1896 -0.1277  0.1823
 9249W        W24380   7.673  16.014   0.993  0.0683  0.1491  0.0529
 9250W        W24381  16.478  12.248  13.984 -0.1682  0.0012 -0.0258
 9251W        W24382   6.246  16.913  13.638  0.0746  0.0958 -0.0973
 9252W        W24383  15.838  10.669   2.023 -0.2115  0.0684  0.0855
 9253W        W24384   0.808   7.726   1.624 -0.1868  0.1730  0.1602
 9254W        W24385   6.865  16.580  12.559  0.2357 -0.0071 -0.0840
 9255W        W24386   5.197   1.773  15.925 -0.2249  0.1452  0.1125
 9256W        W24387  10.391  12.229   3.121  0.2389  0.3749  0.2380
 9257W        W24388   5.076  10.381   2.643 -0.0225 -0.2828 -0.0315
 9258W        W24389   3.192   1.330   3.462 -0.0854  0.0618 -0.1936
 9259W        W24390  13.660   5.137   0.764  0.0702 -0.0455 -0.0798
 9260W        W24391   2.002  16.432  10.565  0.3250 -0.3068 -0.1437
 9261W        W24392  17.743   7.346   3.927 -0.1278 -0.1698  0.2111
 9262W        W24393   5.800   9.360   0.251 -0.1048  0.3035  0.0640
 9263W        W24394   0.259  15.695  11.980 -0.2631  0.0546 -0.2038
 9264W        W24395   4.783   2.260   2.465  0.3311  0.2599  0.0857
 9265W        W24396   3.912   8.563   3.156 -0.0585  0.0420  0.3511
 9266W        W24397   2.799   8.736  16.195  0.1329  0.0460  0.1689
 9267W        W24398   7.631   4.280   0.161  0.2264 -0.0255  0.0080
 9268W        W24399  16.521  10.214   5.114  0.0063  0.1104 -0.1928
 9269W        W24400  12.645  12.484  13.538  0.1640 -0.1221  0.1724
 9270W        W24401  16.580   0.563  13.789  0.2723 -0.1075 -0.0429
 9271W        W24402   4.005  15.263  13.885 -0.0456 -0.3059 -0.1064
 9272W        W24403   0.191  14.040   5.407  0.2513  0.1183 -0.3618
 9273W        W24404  10.358   8.293   1.232  0.0414 -0.0030 -0.0539
 9274W        W24405  11.401   7.151   3.513 -0.0399 -0.3506 -0.0924
 9275W        W24406   9.403  10.982  14.266  0.2072 -0.2550  0.1587
 9276W        W24407  16.383  13.930   6.332  0.1005  0.0409  0.0075
 9277W        W24408   7.246   7.523   5.720 -0.0241 -0.3272  0.0579
 9278W        W24409  11.893  14.771  13.848 -0.1427 -0.4489  0.2877
 9279W        W24410  12.845   7.804   1.556 -0.1708  0.1546  0.0786
 9280W        W24411   6.821  15.257   1.822  0.2980  0.4449 -0.0697
 9281W        W24412   9.342  13.716   5.327  0.1923 -0.1180 -0.1197
 9282W        W24413   0.401   3.214   3.554  0.3094 -0.2876 -0.3221
 9283W        W24414  16.178   9.373   3.013 -0.0548  0.0020  0.2542
 9284W        W24415  15.679   0.770  10.511  0.1171  0.1778  0.1564
 9285W        W24416  10.744  13.851   4.562  0.0143 -0.1615  0.0498
 9286W        W24417  15.235   8.689  11.213  0.1651  0.1171 -0.1592
 9287W        W24418   1.426  15.917  11.267  0.1477 -0.2434 -0.0321
 9288W        W24419  18.074   9.176  11.877 -0.0509 -0.0264 -0.0471
 9289W        W24420  14.373  15.551  13.698 -0.0780 -0.1317  0.0572
 9290W        W24421  15.673  18.163  13.007 -0.2275  0.0053  0.1493
 9291W        W24422  12.164  14.520   3.135  0.2234  0.0895  0.0090
 9292W        W24423   7.551   5.422   2.590  0.2711 -0.3497  0.0001
 9293W        W24424  13.027   8.435  15.404  0.0781  0.1934 -0.1692
 9294W        W24425   6.622  11.262  11.200  0.1357  0.1493  0.0750
 9295W        W24426   7.746  12.571   1.647 -0.1733  0.3457  0.0586
 9296W        W24427   4.607   1.356  14.170  0.3397 -0.1209  0.0093
 9297W        W24428  12.162   9.166   0.765 -0.1234 -0.0447  0.0460
 9298W        W24429  11.769   8.892   2.656  0.0563  0.0608 -0.1367
 9299W        W24430   1.711   4.863   2.504 -0.2479 -0.0024 -0.0966
 9300W        W24431  13.004   2.234  13.523 -0.3444  0.0648 -0.0391
 9301W        W24432  10.189  10.630  14.156 -0.0257  0.2497 -0.1206
 9302W        W24433  12.749   8.512   0.530  0.1516  0.1225  0.0402
 9303W        W24434   8.917  14.548  14.243  0.0440  0.0817 -0.1709
 9304W        W24435  10.922   1.843  15.907  0.3640 -0.1945 -0.0342
 9305W        W24436   4.278  16.638  14.892 -0.1554 -0.4928  0.0575
 9306W        W24437  17.841   3.954   4.492 -0.1568  0.1035  0.1838
 9307W        W24438   7.611  10.066   3.913  0.0477  0.1524 -0.0832
 9308W        W24439   8.880  14.519   1.865 -0.2188  0.0106 -0.0199
 9309W        W24440   4.315  13.679   5.167 -0.0918  0.0582  0.2150
 9310W        W24441  10.366   5.999   3.874  0.0531 -0.2480 -0.0853
 9311W        W24442  10.630   5.070  16.208 -0.1418 -0.3550 -0.3331
 9312W        W24443  10.011  15.129   3.217 -0.1147  0.0034  0.1313
 9313W        W24444   4.316  17.372   0.075 -0.1389 -0.0473 -0.2506
 9314W        W24445   6.204  13.085  10.821 -0.0209  0.0367 -0.0556
 9315W        W24446  14.793  13.947  11.041  0.3077  0.2224 -0.1446
 9316W        W24447  13.915   3.588   3.618  0.2184  0.2782  0.0275
 9317W        W24448  14.426  12.656   0.024 -0.0503 -0.3448  0.0774
 9318W        W24449   5.054  12.193  14.157  0.0173  0.3105  0.0354
 9319W        W24450   6.252  17.422   0.551  0.1601 -0.1739  0.1187
 9320W        W24451   2.423  13.489  16.030  0.2530 -0.4135  0.2034
 9321W        W24452   8.612   9.985   1.383 -0.0236 -0.1704  0.1393
 9322W        W24453   9.040  16.863   0.541 -0.4615 -0.4245 -0.0639
 9323W        W24454  16.199  16.656  11.909 -0.0256  0.0646 -0.1751
 9324W        W24455   9.388  12.069   1.964  0.0844 -0.2195 -0.0301
 9325W        W24456  14.928   2.689   0.173 -0.0826  0.1635 -0.1896
 9326W        W24457   5.563  17.445  11.169  0.0997  0.3753 -0.0959
 9327W        W24458   6.081  16.795   1.913  0.1679  0.0563 -0.1783
 9328W        W24459   0.674  13.449   1.169  0.1116 -0.2113 -0.3493
 9329W        W24460   4.112  12.656  11.489 -0.0770 -0.0446 -0.1891
 9330W        W24461  12.094   5.269   2.293 -0.0813  0.0649  0.0466
 9331W        W24462  11.252  12.590   4.183  0.1962  0.1347 -0.0410
 9332W        W24463  14.486  13.666   2.415  0.0073 -0.2348  0.1765
 9333W        W24464   3.243  16.972  15.450  0.0785 -0.1523  0.0369
 9334W        W24465   0.328  15.325   3.596 -0.2028  0.0768  0.0290
 9335W        W24466   6.589   5.701  12.100  0.3551 -0.1414 -0.0738
 9336W        W24467  15.465  13.501   1.091  0.1801 -0.0314 -0.0248
 9337W        W24468   0.944   7.397  12.723  0.1282 -0.0778 -0.0002
 9338W        W24469   9.962  14.209   2.709  0.0591  0.2000 -0.2065
 9339W        W24470  10.875  10.754  13.009 -0.1136 -0.0915  0.2420
 9340W        W24471   2.041  12.914   4.439 -0.1669  0.1780  0.2119
 9341W        W24472  17.079   0.480   4.981 -0.0604  0.2230 -0.1025
 9342W        W24473   6.901  12.170  12.338 -0.1011 -0.0871  0.0891
 9343W        W24474  17.684  13.986  13.758 -0.0271 -0.1303  0.0335
 9344W        W24475   3.956  12.369   4.825  0.0237  0.1539 -0.2696
 9345W        W24476   0.017   7.807  14.191 -0.1703 -0.1462  0.4213
 9346W        W24477   8.300  11.470   3.890 -0.0592  0.0458 -0.2865
 9347W        W24478   1.196  16.905  15.670 -0.1630  0.0210 -0.4315
 9348W        W24479   1.784   8.767  15.714  0.2255 -0.1238  0.1636
 9349W        W24480  16.231  15.221  12.243  0.0028 -0.2898 -0.0939
 9350W        W24481   3.967  12.606   3.859  0.1220 -0.0883  0.0704
 9351W        W24482  10.471   2.139  10.956  0.2017  0.2751  0.1234
 9352W        W24483   0.313   0.184  14.668 -0.4228  0.2548 -0.0932
 9353W        W24484   1.221  10.836  15.259 -0.1231 -0.1671 -0.2259
 9354W        W24485   1.251   6.288  14.958  0.1386  0.0236  0.1655
 9355W        W24486  15.510  12.314   2.520 -0.0039  0.3439 -0.2799
 9356W        W24487  16.998  12.964  14.278 -0.0270 -0.2710 -0.0764
 9357W        W24488   1.815   4.119   0.025 -0.0908 -0.3998 -0.2452
 9358W        W24489   0.981   6.073   4.195 -0.1083 -0.1623 -0.1153
 9359W        W24490  12.358   1.021   1.800 -0.1682  0.0675 -0.0089
 9360W        W24491   5.836  13.064   0.613  0.2413 -0.0564  0.1667
 9361W        W24492   2.222  10.283  15.084  0.1345 -0.3447  0.0975
 9362W        W24493  13.071  16.579  16.194 -0.2319  0.2123  0.0230
 9363W        W24494   6.732   3.909   4.184 -0.1892  0.0106 -0.1396
 9364W        W24495   6.316   6.839  16.122  0.1737 -0.2149 -0.0851
 9365W        W24496   6.805  16.207  14.460  0.0140  0.0170 -0.0530
 9366W        W24497   6.362   9.805  15.513 -0.0034  0.0173 -0.0092
 9367W        W24498   1.237   3.710   5.732 -0.0800 -0.1555 -0.2324
 9368W        W24499  12.563  13.589  11.556  0.1141 -0.0839 -0.0827
 9369W        W24500   2.273   9.508  14.646 -0.0587 -0.0200 -0.1074
 9370W        W24501   3.218   2.915   1.837 -0.0091  0.0310 -0.0745
 9371W        W24502   5.949   2.274   2.467 -0.0208 -0.1944  0.1100
 9372W        W24503   0.158   6.186   0.642 -0.2365  0.2313  0.2066
 9373W        W24504   2.819   7.096  15.832  0.0284  0.0046 -0.3901
 9374W        W24505   4.411  17.735   0.451 -0.1502  0.4050 -0.0896
 9375W        W24506   0.750   6.018   2.530  0.2702 -0.3948  0.2283
 9376W        W24507   3.275  11.200  15.027 -0.0325  0.0251  0.1972
 9377W        W24508  11.095  12.601   0.064 -0.5022  0.3756 -0.0654
 9378W        W24509   1.388   7.266  11.803  0.3434 -0.0338 -0.1154
 9379W        W24510   6.617   8.068  13.210  0.1618 -0.3261  0.0132
 9380W        W24511  10.561   6.081   4.705  0.0639  0.1583  0.0880
 9381W        W24512  15.844   4.916   0.878  0.0343 -0.1953 -0.2667
 9382W        W24513   9.272  15.135  11.088 -0.1725  0.0611  0.1887
 9383W        W24514  16.976   1.023   1.616 -0.0261  0.1177  0.1916
 9384W        W24515  10.477   1.669   4.047 -0.0091  0.1876 -0.1722
 9385W        W24516   4.656  12.029  15.639 -0.1288  0.2812  0.1958
 9386W        W24517  14.353   7.485   2.712  0.0940  0.2744  0.2536
 9387W        W24518   4.804   7.234  11.141 -0.1578  0.1775  0.1579
 9388W        W24519  15.935   4.525   5.865  0.1679  0.1283  0.0648
 9389W        W24520  10.985  15.233   0.784 -0.1104 -0.1024 -0.0622
 9390W        W24521  13.993   6.672  13.098  0.1251 -0.1852 -0.1218
 9391W        W24522  11.243  16.085   2.873 -0.2180 -0.2032  0.0367
 9392W        W24523   7.963   1.611  11.521 -0.1250  0.0953 -0.0732
 9393W        W24524   1.765  14.266  13.772 -0.2027 -0.2385  0.0488
 9394W        W24525  15.053   6.305   2.646  0.1398 -0.0216 -0.3162
 9395W        W24526  11.328   4.867  14.877 -0.0244 -0.3456 -0.1041
 9396W        W24527   9.811   8.006  16.075 -0.3022 -0.1289 -0.1814
 9397W        W24528  12.536  10.137   0.861  0.2488  0.2048  0.4136
 9398W        W24529  16.976   3.759   5.500  0.2954  0.2319  0.1805
 9399W        W24530  15.569   4.790   6.037 -0.1315  0.0706 -0.1377
 9400W        W24531  17.343   7.106   4.603 -0.0585  0.1191 -0.0294
 9401W        W24532  17.262   9.627   3.044 -0.3597 -0.0342  0.1848
 9402W        W24533  11.232   2.806   5.712  0.0010 -0.0568  0.0343
 9403W        W24534   1.433   6.958   0.533  0.1104 -0.2726 -0.0020
 9404W        W24535   3.336  10.199  15.469 -0.0689  0.2194 -0.0355
 9405W        W24536   1.167   4.833   4.543 -0.2586  0.4920 -0.0298
 9406W        W24537  14.914  10.460  15.161  0.0785 -0.2496 -0.2045
 9407W        W24538   7.942   7.246  15.112 -0.4040  0.1714 -0.0249
 9408W        W24539  11.150  17.242  14.866 -0.1763  0.5409  0.0937
 9409W        W24540  13.751  17.186  14.536 -0.0548 -0.0050 -0.0944
 9410W        W24541  10.676   1.610  15.479 -0.1986 -0.2565 -0.3045
 9411W        W24542  18.142   6.972  11.587 -0.1187  0.0123  0.2112
 9412W        W24543   0.905   3.284  15.717 -0.0207  0.1090 -0.0095
 9413W        W24544   3.693  11.827  13.764  0.3184  0.0026 -0.2925
 9414W        W24545  10.019   3.400  12.490 -0.2900 -0.0376  0.0163
 9415W        W24546   7.698  16.729   0.947 -0.2781 -0.1474  0.2274
 9416W        W24547   7.994  16.472  12.284 -0.1430 -0.0326 -0.0024
 9417W        W24548  14.876   9.118   2.729  0.2518  0.3222  0.1953
 9418W        W24549   9.397  14.355  14.285  0.0454  0.2340  0.2792
 9419W        W24550  13.472   8.221  15.159 -0.1605 -0.3272  0.1452
 9420W        W24551   3.909  14.041  11.963  0.0154 -0.0666 -0.0732
 9421W        W24552  11.078   0.389   0.899 -0.0428 -0.4934  0.4140
 9422W        W24553   9.638   2.800  14.785  0.1005  0.3833  0.0164
 9423W        W24554  13.766   4.346  13.149  0.1201 -0.1024  0.2671
 9424W        W24555   4.266  16.642   0.049 -0.0513  0.4905 -0.0599
 9425W        W24556  16.199   8.720  14.007 -0.1483 -0.0737  0.0516
 9426W        W24557  17.587   1.030  15.545  0.0120  0.1499 -0.1563
 9427W        W24558   6.187   0.163  12.257  0.0360  0.1325  0.1095
 9428W        W24559  12.115  16.772   0.850 -0.0285  0.2794  0.2053
 9429W        W24560   0.315   3.546   0.300 -0.2383  0.1196  0.1736
 9430W        W24561   5.952  11.827  14.497 -0.1100  0.2242  0.1803
 9431W        W24562   1.147  10.725  13.694 -0.2701  0.0947  0.0272
 9432W        W24563   0.601  13.720   2.465 -0.0486  0.3067  0.0400
 9433W        W24564   6.585  14.334   0.665  0.2044 -0.1089  0.1946
 9434W        W24565   0.632   0.049   2.079  0.2853  0.1208  0.0996
 9435W        W24566   5.332   4.615  15.376  0.0402 -0.0346 -0.1110
 9436W        W24567   5.073   5.217  13.749 -0.0599  0.0487  0.1957
 9437W        W24568  18.183   6.997   0.642  0.3432 -0.0030  0.2118
 9438W        W24569   2.372   3.840   2.837  0.0744  0.3681 -0.0811
 9439W        W24570   6.956   0.608   4.562 -0.0139  0.0353  0.0450
 9440W        W24571  13.905  10.839   1.126 -0.1423 -0.2703 -0.0135
 9441W        W24572  11.665   0.273   0.875 -0.1319 -0.0877 -0.0808
 9442W        W24573  17.190  15.175   6.233  0.3627  0.0501  0.1253
 9443W        W24574  13.505   9.158   2.579 -0.1063 -0.0264 -0.2065
 9444W        W24575   7.019   2.697  10.830  0.0081 -0.0467  0.1420
 9445W        W24576  11.643   9.121  13.987  0.0352  0.1821 -0.1706
 9446W        W24577   8.168   6.187   1.325  0.3539 -0.2197  0.2191
 9447W        W24578  14.472   3.817  10.772 -0.0458 -0.0542  0.2382
 9448W        W24579   6.082   9.440  15.980 -0.0562  0.0572  0.0597
 9449W        W24580   2.300   6.372  14.262  0.1356  0.0802  0.3788
 9450W        W24581  16.792   0.944   3.026  0.2211 -0.1581  0.0878
 9451W        W24582  10.841  13.458   5.719 -0.0650  0.2095  0.0891
 9452W        W24583   7.228   3.501  16.193  0.0023 -0.0308 -0.0145
 9453W        W24584   2.769   2.814   3.554 -0.1717 -0.0951 -0.3742
 9454W        W24585  13.943  17.150   1.118  0.0003 -0.1677  0.0886
 9455W        W24586   0.687  10.472  14.561  0.2204 -0.4653 -0.2510
 9456W        W24587   5.385  17.825   0.896  0.0183  0.1577  0.2328
 9457W        W24588   5.341   8.012  11.627  0.0276  0.2369 -0.0216
 9458W        W24589   5.881   8.480   4.532 -0.2986  0.1975 -0.0986
 9459W        W24590  12.732  10.596   0.997  0.1974  0.1756  0.1561
 9460W        W24591   5.152  17.859  11.985  0.2454 -0.1425 -0.4392
 9461W        W24592  16.088   6.861  11.391  0.0819  0.0579  0.1115
 9462W        W24593  17.212  12.139   2.034  0.0540 -0.2999  0.0675
 9463W        W24594  11.825   2.714  16.138 -0.1524  0.2775  0.1151
 9464W        W24595   6.246   4.818   2.793 -0.0012  0.0439  0.3179
 9465W        W24596   9.737   8.223   3.081 -0.1124  0.2918  0.0275
 9466W        W24597   1.860   7.816   3.639  0.4614 -0.3880  0.0983
 9467W        W24598   5.483   5.830  14.536  0.1243  0.0050  0.1078
 9468W        W24599   7.776   5.780  14.490  0.1141 -0.3981 -0.0511
 9469W        W24600  17.122  17.709  14.582  0.0589  0.3108 -0.4592
 9470W        W24601   3.593   1.615  11.752  0.0295  0.2456  0.1165
 9471W        W24602   0.816   3.544  15.261 -0.1071 -0.2650 -0.0379
 9472W        W24603   4.246  15.725  15.151  0.0734 -0.1013 -0.1770
 9473W        W24604   4.520  13.469   1.956 -0.0916  0.0113  0.2376
 9474W        W24605  11.632   2.737   3.977 -0.1470 -0.0810  0.2642
 9475W        W24606  15.696   6.794   5.439  0.0322 -0.0761  0.0711
 9476W        W24607  10.048  10.332  12.134  0.0902 -0.2462  0.1711
 9477W        W24608  15.701   4.158  10.520 -0.1157 -0.0475 -0.2700
 9478W        W24609   6.758  12.102   5.140 -0.1602 -0.0256  0.2798
 9479W        W24610   3.429  12.887  10.694  0.0494  0.0365 -0.0332
 9480W        W24611   2.522  17.996   4.153  0.1133 -0.2358  0.1939
 9481W        W24612   8.609   0.896  16.005  0.0705 -0.2315 -0.0891
 9482W        W24613   1.959  18.162   0.119  0.2355 -0.0667 -0.1651
 9483W        W24614   1.448   4.859   3.537 -0.1264 -0.0675 -0.1833
 9484W        W24615   2.839   2.587  12.531  0.1077 -0.4441 -0.2243
 9485W        W24616   3.050   8.562  10.673 -0.1371 -0.1688  0.1833
 9486W        W24617   2.157  11.371   2.736 -0.3754  0.1347 -0.2167
 9487W        W24618  15.967   4.681   4.510  0.1617  0.1756 -0.0851
 9488W        W24619   7.624  17.306  12.807  0.1314  0.2529  0.1695
 9489W        W24620   5.782   8.437   0.531  0.2768 -0.3306  0.0471
 9490W        W24621  15.125  13.314  14.706  0.3024  0.0541  0.1664
 9491W        W24622   3.980  13.884  16.143 -0.1242 -0.3833 -0.1257
 9492W        W24623   3.920  17.273   4.603 -0.0184  0.0675 -0.0354
 9493W        W24624   7.146   9.717  14.311 -0.2733 -0.0713 -0.1276
 9494W        W24625   0.949   9.387  15.545 -0.0846  0.1914  0.1108
 9495W        W24626   1.020   6.576   0.328 -0.1230  0.4870 -0.4451
 9496W        W24627  14.617   1.456   0.426  0.4170  0.0022  0.2186
 9497W        W24628   9.363   8.203  15.892  0.2009  0.0031  0.0049
 9498W        W24629  16.490   0.210  16.087 -0.0944  0.1006 -0.0792
 9499W        W24630   4.141  17.840  11.081  0.0399 -0.2407  0.4534
 9500W        W24631  10.992   8.886  13.028 -0.2818 -0.0832 -0.1665
 9501W        W24632   0.724   2.196  14.052  0.3812  0.2189 -0.1042
 9502W        W24633  17.966   3.910   2.988 -0.1191  0.0225  0.0744
 9503W        W24634   0.253   8.833  12.001 -0.0033  0.1370 -0.2100
 9504W        W24635   8.893   9.588   4.389 -0.2596 -0.1733  0.1202
 9505W        W24636   2.522   2.287  11.207  0.0083 -0.0782 -0.1324
 9506W        W24637   8.738   2.413   2.866  0.0139 -0.1346 -0.0739
 9507W        W24638   4.984  14.091   3.447  0.1224 -0.0508  0.2247
 9508W        W24639  12.399   2.153   1.038  0.0278  0.1303 -0.2798
 9509W        W24640  16.695   8.330   1.029  0.1155 -0.1039  0.1116
 9510W        W24641   2.488   4.233  13.046  0.1309  0.0779  0.0968
 9511W        W24642  10.142   0.675   4.903 -0.0572 -0.0259  0.0402
 9512W        W24643  17.950   4.789   1.669 -0.0316  0.2444 -0.0995
 9513W        W24644   2.061  12.016   3.366  0.2052 -0.2218  0.4330
 9514W        W24645  13.716  16.964  14.079 -0.1116  0.0061 -0.2212
 9515W        W24646  13.287  17.435   4.926  0.2034  0.1656  0.0981
 9516W        W24647  14.754  11.268  11.259 -0.1945  0.0592 -0.1991
 9517W        W24648   1.074  17.172  13.975 -0.2462  0.1613  0.0374
 9518W        W24649  10.074  10.311  13.335 -0.4039  0.0202  0.0211
 9519W        W24650   9.892   0.869   1.326  0.2593  0.0960  0.0237
 9520W        W24651   3.477  15.953   4.088  0.1364  0.0242 -0.0429
 9521W        W24652   4.051   2.250   3.277  0.1691 -0.0941 -0.1641
 9522W        W24653   4.389  13.378   3.542  0.0479 -0.3393  0.0087
 9523W        W24654   9.620   1.568   0.698  0.1360  0.0622  0.0113
 9524W        W24655   3.017   1.631   0.462  0.0191  0.0547 -0.2263
 9525W        W24656   7.394  17.517   1.189  0.2344  0.2046 -0.2825
 9526W        W24657   7.053   6.944   4.482  0.3551 -0.2535 -0.1860
 9527W        W24658  17.257  15.974   5.660  0.1179  0.4353 -0.4864
 9528W        W24659   5.575   8.255  14.384  0.4536 -0.0371 -0.2417
 9529W        W24660   1.369  17.078   1.072 -0.1471  0.0202  0.0014
 9530W        W24661  12.029  16.908   2.393  0.1216  0.0885 -0.0479
 9531W        W24662  11.610   4.239   3.780  0.0902 -0.0823 -0.2848
 9532W        W24663  10.789   0.364  14.384  0.0946 -0.1650 -0.0404
 9533W        W24664   3.693  11.825   1.862  0.0539  0.2327 -0.1100
 9534W        W24665   2.621   7.674   0.459  0.0455  0.2438 -0.0324
 9535W        W24666   7.637  11.627   4.015  0.1281  0.1006 -0.0495
 9536W        W24667   9.741   6.355   5.800  0.0720 -0.1308  0.2238
 9537W        W24668  11.139   3.755   2.614 -0.0702 -0.2618  0.0399
 9538W        W24669  11.007  11.697  16.167 -0.2575 -0.6074  0.1159
 9539W        W24670  17.554   1.568   2.569  0.0984  0.1539  0.0728
 9540W        W24671  10.476   2.587  13.288 -0.0416 -0.3546 -0.0442
 9541W        W24672   5.178  12.150   1.505 -0.4837 -0.0166  0.0092
 9542W        W24673   5.028   7.262  12.407 -0.1840  0.1458 -0.1757
 9543W        W24674  12.379  15.660   0.786  0.1599  0.0009 -0.1653
 9544W        W24675   8.151  12.750  13.826 -0.0913  0.1230  0.1097
 9545W        W24676  17.217  10.012   1.291  0.0831  0.1183  0.0206
 9546W        W24677   3.504  15.030   5.334  0.1366 -0.3254  0.2181
 9547W        W24678   0.733   1.083   1.555 -0.0339  0.2313  0.3096
 9548W        W24679   3.268   0.145  12.990  0.1901 -0.2109  0.2742
 9549W        W24680   4.590   2.810   5.124 -0.0673  0.1107 -0.2210
 9550W        W24681   8.630  16.889   1.144  0.1736  0.1411 -0.2120
 9551W        W24682  17.123  17.113   0.977  0.1588 -0.3201 -0.1545
 9552W        W24683  16.679   0.513   6.332 -0.0062 -0.0064 -0.0862
 9553W        W24684  16.879   5.748   4.322 -0.0134  0.1059 -0.0504
 9554W        W24685   2.097  18.126   1.896 -0.1712  0.2613  0.2833
 9555W        W24686  13.444   3.168   4.533  0.0080  0.0100 -0.0619
 9556W        W24687   8.952   9.216   1.975 -0.1277 -0.2877 -0.0987
 9557W        W24688   1.075   6.932  12.813 -0.1603  0.0989 -0.4056
 9558W        W24689  13.266  13.311   1.387 -0.0638 -0.0235  0.1186
 9559W        W24690   1.626   0.933   2.442 -0.0689  0.0739  0.2975
 9560W        W24691  16.424   2.586  12.326  0.0003 -0.0607  0.0834
 9561W        W24692  16.988  13.837   2.307 -0.3076 -0.1425 -0.2130
 9562W        W24693   8.186  12.474  10.827 -0.2122 -0.1365  0.0685
 9563W        W24694   1.082   9.728   5.572 -0.3283 -0.1524 -0.3419
 9564W        W24695  11.107  14.943   0.421 -0.3010 -0.1228  0.4222
 9565W        W24696  11.751   1.031   0.063 -0.0291 -0.0111  0.0369
 9566W        W24697   1.244   9.386   4.053  0.2300 -0.1908 -0.1834
 9567W        W24698  14.574  13.582   0.542  0.1213  0.2130 -0.1325
 9568W        W24699  10.766   8.453   4.610  0.0040  0.1000 -0.2312
 9569W        W24700  16.168   0.499   0.563  0.2109  0.0429 -0.2817
 9570W        W24701   3.166  10.534  15.164 -0.4872  0.0379 -0.0352
 9571W        W24702   4.528   2.527   2.833 -0.2800 -0.2074  0.2091
 9572W        W24703   5.286  15.059   0.776  0.0026 -0.4147 -0.0361
 9573W        W24704   5.831  14.833   2.106  0.4663 -0.4897  0.2544
 9574W        W24705  18.181  13.131  10.458 -0.2204  0.3320  0.3693
 9575W        W24706   1.596   2.683  10.954 -0.0927  0.2208 -0.0091
 9576W        W24707  13.355   2.815  14.823  0.2837 -0.0332  0.2112
 9577W        W24708  18.006   3.679   5.342 -0.0708 -0.3102 -0.2722
 9578W        W24709  12.430  13.463   4.915  0.1287  0.2681  0.3119
 9579W        W24710   4.200   9.915  15.494 -0.2503  0.0074 -0.1575
 9580W        W24711   7.765   4.146  14.191  0.0096 -0.1825  0.0929
 9581W        W24712   4.845   5.844   1.486 -0.0835  0.0295  0.1970
 9582W        W24713  13.564   9.095  15.363 -0.3094 -0.3839  0.1624
 9583W        W24714  18.108   9.316  14.031  0.4474  0.3423  0.3609
 9584W        W24715   6.234  15.512   3.109  0.0555  0.0313  0.3283
 9585W        W24716  10.728   0.142   1.164 -0.0957 -0.0632 -0.1281
 9586W        W24717   6.044   7.329  11.406 -0.0461  0.1043 -0.0608
 9587W        W24718   7.514  10.215   3.031 -0.2930 -0.2004  0.1550
 9588W        W24719  12.349  10.373   1.949  0.0510  0.2540 -0.0813
 9589W        W24720   3.598  10.627  14.832  0.0971 -0.1246 -0.0719
 9590W        W24721  16.694   7.786   3.137  0.2656 -0.0773  0.0460
 9591W        W24722  12.493  16.861   2.555  0.1474  0.0310  0.1971
 9592W        W24723   9.469  11.538  12.335 -0.2697  0.0220  0.0564
 9593W        W24724  14.692  17.762  12.929  0.2329  0.0583  0.0458
 9594W        W24725  13.544   7.475  14.479  0.1136 -0.3071 -0.2125
 9595W        W24726  14.193   3.978   3.387  0.0677  0.0157  0.0041
 9596W        W24727   4.118   0.853  14.238 -0.1552 -0.0782  0.0800
 9597W        W24728   1.534   5.151  16.045 -0.0918 -0.0613 -0.1631
 9598W        W24729   7.202  11.679  14.152  0.1426 -0.0142  0.0347
 9599W        W24730   9.397  17.069   2.405  0.1112 -0.3287  0.0213
 9600W        W24731  13.260  16.357   1.281 -0.0574 -0.2106 -0.0332
 9601W        W24732  10.655   8.489   0.256  0.3011  0.2159  0.0790
 9602W        W24733   3.638  16.628   0.592 -0.1357 -0.1381 -0.1024
 9603W        W24734  14.235  18.109   2.175  0.0541  0.0225  0.0306
 9604W        W24735   8.085   7.655  12.164 -0.0171  0.1373 -0.1792
 9605W        W24736  12.769   9.611  14.212 -0.0621  0.4131  0.0207
 9606W        W24737   1.469   1.118  11.794 -0.0918 -0.0191  0.2598
 9607W        W24738   5.037  15.387   3.717  0.2141 -0.1369  0.0239
 9608W        W24739   3.655   9.176   3.588  0.4873  0.3854 -0.0336
 9609W        W24740  13.900   0.515  12.220  0.0364 -0.1902 -0.2180
 9610W        W24741   7.744  16.852   2.656  0.0923  0.2056  0.0025
 9611W        W24742  13.614   8.822   0.963 -0.0098 -0.2757  0.0197
 9612W        W24743   9.984  16.457   1.923 -0.0743  0.3335 -0.0635
 9613W        W24744  13.865  17.803  11.864 -0.1282  0.2221  0.0406
 9614W        W24745   8.651  14.607   9.666  0.0038 -0.1933 -0.2243
 9615W        W24746  10.623   7.333   4.221 -0.0685  0.3276  0.2474
 9616W        W24747   3.631   4.590   0.201 -0.2943 -0.0968 -0.5148
 9617W        W24748  15.893   8.375   0.006  0.2025 -0.2150 -0.5213
 9618W        W24749  12.271  13.462   1.765 -0.1727 -0.1864 -0.1562
 9619W        W24750   7.716   2.329  13.312  0.1689  0.1123  0.0913
 9620W        W24751  14.270   2.020  15.809 -0.1128  0.1263  0.0854
 9621W        W24752   3.851   7.968   4.449 -0.4099  0.1215 -0.2358
 9622W        W24753   6.046  10.820  15.906  0.1245 -0.3291 -0.0540
 9623W        W24754   7.909   1.036  11.498  0.0498 -0.0207  0.0404
 9624W        W24755   6.322   2.542  16.205 -0.0342  0.2107 -0.1352
 9625W        W24756  10.652   6.672   1.282  0.3845  0.2222 -0.0568
 9626W        W24757   5.838   7.077   5.170  0.0013 -0.2023  0.1990
 9627W        W24758  15.507  14.368  14.686 -0.0860  0.0208 -0.3595
 9628W        W24759   5.042   9.628   3.252 -0.0132 -0.0213 -0.0139
 9629W        W24760  13.664  13.351   0.981  0.4069 -0.1487  0.2839
 9630W        W24761   3.778  12.822  15.196 -0.0651  0.1244 -0.1666
 9631W        W24762   2.317   7.234  13.796  0.1900 -0.3717  0.0499
 9632W        W24763   5.892   6.416  11.797  0.1140 -0.1796  0.4057
 9633W        W24764  10.684   1.746   1.348 -0.3490 -0.3052  0.1898
 9634W        W24765  11.196   5.842  15.993 -0.0654 -0.0550  0.0599
 9635W        W24766  12.957  13.445   4.256 -0.0661 -0.0553  0.0411
 9636W        W24767   8.460   4.708   1.188  0.0616 -0.3167 -0.0039
 9637W        W24768   2.471  13.867   5.124  0.5184 -0.0279 -0.0945
 9638W        W24769   9.993  16.442   3.896  0.1606  0.0997  0.1205
 9639W        W24770  16.240   8.651   2.461 -0.0104 -0.3249  0.2268
 9640W        W24771  13.875  13.000  12.648 -0.0815  0.2967 -0.0182
 9641W        W24772  17.689   7.522   2.954 -0.1989 -0.3108 -0.3086
 9642W        W24773   9.872  13.404  11.937 -0.0007  0.1444  0.0530
 9643W        W24774   3.296   3.328  15.555 -0.0294  0.1992  0.1212
 9644W        W24775  12.071  16.894   6.260  0.0686 -0.2701  0.1766
 9645W        W24776  15.651  17.494   3.239  0.0336 -0.0372  0.0140
 9646W        W24777   4.876   8.076  10.975  0.2780 -0.0165 -0.2883
 9647W        W24778   4.069  10.248  13.485 -0.1621  0.2197 -0.0374
 9648W        W24779   6.938  16.896   1.563  0.2180 -0.1981  0.1688
 9649W        W24780  11.903   3.344   4.016  0.0223 -0.0683 -0.1533
 9650W        W24781   2.528  10.403   0.349 -0.3571 -0.0224  0.0587
 9651W        W24782   3.340   4.220  13.943 -0.2706 -0.2080 -0.2081
 9652W        W24783   6.026  12.398  15.866 -0.0580  0.0336  0.1685
 9653W        W24784   7.977  12.849  11.906  0.0049  0.1903  0.0327
 9654W        W24785   5.493   8.046   2.823  0.2153  0.1910 -0.0694
 9655W        W24786  11.508  13.189  12.540 -0.3545 -0.0277  0.1531
 9656W        W24787   2.775   0.701  15.090 -0.2512 -0.2305  0.0003
 9657W        W24788   8.346   7.182  15.432  0.0754 -0.2244 -0.0841
 9658W        W24789  12.709  13.601   0.101  0.0141  0.1565 -0.0738
 9659W        W24790  10.396   5.278  13.096 -0.0236  0.2484  0.6304
 9660W        W24791  18.051  13.294  12.178 -0.2103 -0.0592 -0.1240
 9661W        W24792   3.949  11.370   4.444 -0.1331  0.3931  0.2829
 9662W        W24793  14.909   3.842  13.045  0.1683  0.2294  0.0299
 9663W        W24794   4.388  17.049  15.326  0.0733  0.3423 -0.1845
 9664W        W24795  15.576   7.260  12.052  0.0031 -0.1135 -0.1555
 9665W        W24796  13.387  14.893   2.929  0.0279  0.0628 -0.0119
 9666W        W24797  16.375   0.656   0.101  0.1682  0.0942 -0.0382
 9667W        W24798  16.655  14.971   3.193  0.2432  0.2153  0.1557
 9668W        W24799   6.103  15.576  10.980  0.0467  0.2870 -0.0843
 9669W        W24800   3.673  10.621  11.066 -0.2650  0.0329 -0.0616
 9670W        W24801   6.186  18.040  14.391  0.1739 -0.1177  0.0081
 9671W        W24802  17.055   0.932   6.422  0.0576 -0.1408  0.2128
 9672W        W24803  10.850  13.356  10.299  0.3371  0.3275 -0.2313
 9673W        W24804  10.604   9.437  14.136  0.0322 -0.1786  0.0500
 9674W        W24805   5.719  15.409   0.691  0.0567  0.1779 -0.0569
 9675W        W24806   6.070   3.773   5.271  0.0412 -0.1364  0.2536
 9676W        W24807  13.089   0.306   1.773 -0.1119 -0.3521 -0.1353
 9677W        W24808  11.351   4.293   0.612  0.0960  0.0586  0.0499
 9678W        W24809  15.432  14.582  14.137 -0.1789  0.2326  0.0031
 9679W        W24810   9.612   6.079   3.552  0.2315  0.0860 -0.1601
 9680W        W24811  11.375  15.675   3.774  0.1847  0.2144 -0.0523
 9681W        W24812  12.198   9.399  11.364 -0.0031 -0.2089 -0.0385
 9682W        W24813   9.698  12.213  11.830 -0.0532  0.1336  0.2107
 9683W        W24814   8.060  15.494   4.900  0.2156 -0.2516 -0.2542
 9684W        W24815  11.814   5.700  12.265 -0.1101  0.5587 -0.3081
 9685W        W24816   8.535   3.044   3.687 -0.3090 -0.1259  0.0886
 9686W        W24817   9.078  11.261   2.559  0.2186  0.1824 -0.0747
 9687W        W24818   7.630   1.743  15.256 -0.2986 -0.2051  0.2894
 9688W        W24819   9.258   5.244   0.610  0.1799  0.1083 -0.2961
 9689W        W24820  16.363   4.816  14.983 -0.1720 -0.0286 -0.1364
 9690W        W24821   3.531   2.046  12.096 -0.2352  0.1831 -0.1463
 9691W        W24822   3.094   2.076   1.311 -0.0751 -0.2508 -0.2946
 9692W        W24823   5.033   9.748  14.263  0.1340  0.3298  0.2376
 9693W        W24824  11.389  11.930   2.166 -0.2280 -0.1141  0.1510
 9694W        W24825  15.788   6.541   5.829 -0.0401 -0.1322 -0.2769
 9695W        W24826  11.498   3.866   4.864 -0.0763 -0.1578 -0.1012
 9696W        W24827   2.781  10.583   4.189 -0.1153  0.2111 -0.1048
 9697W        W24828   4.950  11.342   0.421  0.0281  0.0824 -0.1964
 9698W        W24829  12.095   9.304   1.566  0.3284  0.1726  0.0644
 9699W        W24830   3.209   5.920  10.671 -0.0721  0.2200 -0.0908
 9700W        W24831  17.153  10.713  13.674 -0.2318 -0.4542 -0.2711
 9701W        W24832  13.673  12.611  15.628 -0.1541 -0.0413 -0.1450
 9702W        W24833  17.902  12.798   5.854 -0.0522 -0.0235  0.0307
 9703W        W24834   2.783   1.863  11.251 -0.0416 -0.2996  0.1708
 9704W        W24835  12.149   1.364  15.715 -0.2415  0.1379 -0.0000
 9705W        W24836  15.819  10.107   3.492 -0.0495 -0.0412  0.0580
 9706W        W24837   9.911  12.364  14.530 -0.2176  0.0268 -0.0447
 9707W        W24838   7.234   9.225  15.344 -0.0847 -0.0388 -0.0245
 9708W        W24839   4.401   2.028   4.155  0.4612  0.1855  0.0432
 9709W        W24840   2.612  12.484   3.475  0.2022  0.2227 -0.0529
 9710W        W24841  11.811   8.988   3.740 -0.0996  0.1166 -0.0678
 9711W        W24842  16.502   8.282  15.382 -0.0451 -0.1150  0.0776
 9712W        W24843   7.827   5.074   1.740  0.3543  0.2663  0.0647
 9713W        W24844   9.346   6.599   5.100  0.2625  0.2249  0.2226
 9714W        W24845   5.675  17.850  14.617  0.0133 -0.0697 -0.1531
 9715W        W24846   3.868  12.038   0.383  0.1405  0.1247 -0.2486
 9716W        W24847   9.347   9.334   4.551 -0.3256  0.1511  0.1364
 9717W        W24848  10.521  16.039  15.239 -0.0493 -0.1534  0.0528
 9718W        W24849   4.412   0.534  13.149  0.0731  0.0086  0.0209
 9719W        W24850  17.156   2.578  16.220  0.0916  0.0365 -0.0677
 9720W        W24851   3.991   9.003  15.568 -0.4036  0.1810 -0.0005
 9721W        W24852  11.034   7.000   2.127  0.2063  0.2179 -0.0997
 9722W        W24853  15.578   6.334  12.766 -0.1784  0.0057  0.3967
 9723W        W24854   8.041  10.112   2.697 -0.0133 -0.1274 -0.0039
 9724W        W24855   9.050   4.227  14.647 -0.2294 -0.2412  0.3927
 9725W        W24856  14.684   6.540   6.343 -0.2585  0.0438 -0.2467
 9726W        W24857   6.028  16.087   0.157 -0.1802 -0.3751  0.0942
 9727W        W24858  14.996   8.381  13.745  0.1829 -0.2967  0.1344
 9728W        W24859   0.178  18.151   4.919 -0.0858  0.0667 -0.0575
 9729W        W24860  13.119   3.424  12.853 -0.2199 -0.2503  0.1373
 9730W        W24861  10.848  10.234   1.638 -0.1194  0.0674  0.1786
 9731W        W24862  17.689  12.963  15.016  0.1169  0.0031 -0.0436
 9732W        W24863   2.526  15.602  10.716  0.0070  0.0975 -0.1646
 9733W        W24864   8.911   6.428   0.540  0.1024 -0.0637 -0.3002
 9734W        W24865   6.675  14.678  10.824 -0.0790  0.0348  0.1558
 9735W        W24866  16.491   1.177  12.115  0.2466  0.2561  0.1448
 9736W        W24867   5.232   1.959   1.368  0.0459  0.0409  0.1385
 9737W        W24868   3.240  15.139  10.697 -0.3306  0.0008  0.1607
 9738W        W24869   9.804   8.316  13.846  0.1195 -0.1817  0.2807
 9739W        W24870   6.781  12.051   1.030 -0.0334  0.4065 -0.1132
 9740W        W24871   3.007  15.299  15.851 -0.1212  0.2688 -0.2486
 9741W        W24872   0.899  14.988   4.863 -0.0259 -0.0530  0.1255
 9742W        W24873   3.273  17.111   0.460  0.0288 -0.2585  0.0956
 9743W        W24874   6.027   6.501   1.861  0.0050 -0.0919  0.0909
 9744W        W24875   6.913   7.509  10.935 -0.0092  0.0765 -0.2964
 9745W        W24876   6.934   5.492   5.757 -0.0527  0.0582 -0.0179
 9746W        W24877   0.138   9.397   1.735 -0.1899 -0.1561 -0.1712
 9747W        W24878   4.093  10.977   1.528  0.1604 -0.1405  0.2836
 9748W        W24879   8.131  10.917  15.247 -0.0725 -0.1197 -0.1173
 9749W        W24880  10.012   6.594   4.656  0.3092  0.2042 -0.0651
 9750W        W24881   7.388   0.831   5.634 -0.0125 -0.3126 -0.1680
 9751W        W24882   8.986   0.554   3.825  0.1025  0.1280  0.1814
 9752W        W24883   3.310  15.348   1.552 -0.1104 -0.0484  0.1741
 9753W        W24884   9.873   0.492   2.206 -0.1142 -0.0195  0.2746
 9754W        W24885   0.841  14.501   3.884 -0.2184 -0.0090  0.1064
 9755W        W24886   6.932   0.579   1.869 -0.0255 -0.1062  0.1677
 9756W        W24887   6.481  16.400  14.795 -0.2449 -0.3717  0.3150
 9757W        W24888   1.940  17.374   2.604 -0.0104  0.1478 -0.0809
 9758W        W24889   4.500  14.178   5.238 -0.0697 -0.0385 -0.2158
 9759W        W24890   9.892  15.511  11.581  0.0721  0.1645  0.2186
 9760W        W24891   0.577   1.408   0.461 -0.0707  0.2579  0.4643
 9761W        W24892   2.872  17.304  12.348 -0.0828 -0.0485 -0.2238
 9762W        W24893   9.851  17.603  12.212 -0.0364  0.0464  0.0993
 9763W        W24894  15.787  10.281  15.923  0.3528  0.1366 -0.1507
 9764W        W24895  15.462   4.140   5.163  0.0229 -0.2427 -0.0368
 9765W        W24896   2.644   2.623  10.134  0.0959 -0.2010 -0.3127
 9766W        W24897   3.714  17.666   1.043 -0.1822 -0.0964 -0.0176
 9767W        W24898  13.056   1.380   3.316 -0.2049 -0.0419 -0.1351
 9768W        W24899   3.032   8.013  15.457 -0.1031 -0.2185 -0.2751
 9769W        W24900  17.299   1.886   3.595  0.2750  0.0352 -0.1860
 9770W        W24901   2.794   1.156  10.606  0.0066 -0.1405  0.2276
 9771W        W24902  16.009   1.454   0.165 -0.2079  0.1486 -0.0968
 9772W        W24903  10.099   6.718  12.075 -0.0420  0.1327 -0.0595
 9773W        W24904   1.343  12.473  10.743 -0.3670 -0.1549  0.2583
 9774W        W24905  13.299  17.634   2.501 -0.4628  0.0513 -0.4125
 9775W        W24906   8.578   8.212   4.153  0.1184 -0.1868 -0.1562
 9776W        W24907   8.867   9.054  13.329 -0.0304 -0.4203  0.2601
 9777W        W24908   7.278  17.722  10.500 -0.1542 -0.0016  0.1894
 9778W        W24909  15.239   5.764   1.639 -0.2218 -0.2031  0.0446
 9779W        W24910  10.625  16.112  12.808 -0.0777  0.0858  0.1265
 9780W        W24911  14.747   3.828   6.241  0.0639 -0.1611  0.0223
 9781W        W24912  11.901  13.603  15.428 -0.0505  0.1792  0.0693
 9782W        W24913   0.599  17.208  11.957 -0.0739  0.2508  0.0402
 9783W        W24914   1.936  12.470   4.145  0.0446  0.3476  0.0558
 9784W        W24915   6.819  10.018  16.130 -0.0138  0.1178  0.0849
 9785W        W24916  17.510  11.170  14.727  0.1350  0.1938  0.2405
 9786W        W24917  13.936  10.127   3.517  0.1117  0.0223 -0.1454
 9787W        W24918  14.704   3.362  13.798  0.3089 -0.1837 -0.1081
 9788W        W24919  12.800   4.903  12.246  0.1110  0.2134  0.1084
 9789W        W24920  17.523   4.059  14.984  0.1448 -0.0450  0.2264
 9790W        W24921   9.629   7.142  11.245 -0.2116  0.2439 -0.0404
 9791W        W24922  12.022   9.941  15.323  0.1750  0.0593 -0.2553
 9792W        W24923   3.574   2.953   3.924 -0.1729 -0.2307 -0.0521
 9793W        W24924  14.411  17.902   5.027 -0.0436  0.4851 -0.0580
 9794W        W24925  15.437  12.407  12.048  0.2429  0.0160 -0.3458
 9795W        W24926  16.631   4.151  15.937  0.0354  0.1002 -0.2807
 9796W        W24927   2.855  14.358   1.506 -0.1180 -0.1560  0.1357
 9797W        W24928   8.495   0.081  15.910 -0.0489  0.0517 -0.0128
 9798W        W24929  18.144   5.800  13.918 -0.0040 -0.1388 -0.0366
 9799W        W24930  15.640  10.301  15.344  0.0537 -0.3436  0.1471
 9800W        W24931   2.486   6.926  12.213  0.0642  0.1859  0.2337
 9801W        W24932  12.638   5.644   4.547 -0.2210 -0.0211  0.0181
 9802W        W24933   7.455   0.189  14.760 -0.2127 -0.0445  0.0936
 9803W        W24934  14.840   9.491  13.569 -0.0527  0.0722  0.2600
 9804W        W24935   8.151   3.887  15.309 -0.0194 -0.2014  0.2065
 9805W        W24936   1.367  14.222  12.892 -0.1150  0.0045  0.0305
 9806W        W24937  12.702  18.054   4.942 -0.1162  0.2056  0.3128
 9807W        W24938   4.508  15.573   4.701 -0.0805 -0.0035  0.0723
 9808W        W24939   0.634   6.063  14.625  0.2048  0.2275 -0.1055
 9809W        W24940   0.893   9.291  13.649 -0.2417  0.1939  0.0975
 9810W        W24941   5.535  16.849   0.009 -0.5767  0.0737  0.2543
 9811W        W24942  15.936  12.352   4.957  0.4544 -0.4507  0.2227
 9812W        W24943   9.487   1.050  14.776 -0.0897 -0.1870  0.0474
 9813W        W24944   2.166   7.236  15.612 -0.2116  0.1356  0.2415
 9814W        W24945   0.120   5.869  13.479  0.0611  0.0971  0.1137
 9815W        W24946  17.011   5.973   2.808  0.0685 -0.1161  0.0290
 9816W        W24947  13.785  12.462  13.210 -0.2942  0.2221  0.1200
 9817W        W24948   5.075   6.888  11.894  0.1380  0.2200 -0.0987
 9818W        W24949  10.113   2.844  13.585 -0.2516 -0.0050  0.2435
 9819W        W24950  10.895   3.379   0.718 -0.1451  0.2066  0.2192
 9820W        W24951  11.914   2.000   1.951  0.2038 -0.0803  0.2278
 9821W        W24952  14.959   2.830   1.832  0.4024  0.3347  0.2234
 9822W        W24953  10.128   5.622  15.102 -0.0727 -0.0077  0.2019
 9823W        W24954   1.577   3.693  11.284  0.1067 -0.2428 -0.1249
 9824W        W24955  16.741   6.755  15.557  0.1464 -0.2716  0.0341
 9825W        W24956  15.780   8.049  14.638  0.0260  0.3632  0.2347
 9826W        W24957  15.776   7.207  15.537  0.1116 -0.0152  0.0689
 9827W        W24958   1.054  11.462   1.011  0.0712  0.0130 -0.0712
 9828W        W24959   2.269   6.360  12.515 -0.1325 -0.0814  0.0622
 9829W        W24960  16.300  12.720  12.138 -0.1707 -0.1285  0.0309
 9830W        W24961   5.178   1.126   0.694 -0.0992  0.0616  0.2449
 9831W        W24962   5.876  10.400  13.180 -0.0323 -0.3282  0.3056
 9832W        W24963   6.232   6.638  12.692  0.0261 -0.1516  0.2035
 9833W        W24964  17.032  11.751   5.400 -0.2083 -0.1783  0.3277
 9834W        W24965   8.883   8.166   1.181  0.2249  0.0016 -0.1593
 9835W        W24966  14.925  11.521  12.244  0.1760 -0.2657 -0.0407
 9836W        W24967  10.212   5.005  12.117  0.0663  0.1264 -0.2181
 9837W        W24968   2.517  18.011  14.801  0.1926 -0.1413 -0.1868
 9838W        W24969  12.386  10.184  15.112 -0.1131  0.0866 -0.1808
 9839W        W24970   8.553  11.562  13.942  0.2294 -0.2257 -0.0777
 9840W        W24971  17.597   9.049  13.528 -0.1641 -0.0814 -0.0657
 9841W        W24972   1.758   1.479   2.512 -0.3361 -0.1512  0.3456
 9842W        W24973  12.227  17.679  15.533  0.0393 -0.4968  0.3500
 9843W        W24974  16.731   7.867  12.599 -0.0830  0.3187  0.0360
 9844W        W24975  16.852   0.840  11.889  0.1305  0.0056  0.1105
 9845W        W24976   2.267  15.882   4.837 -0.3719  0.1709 -0.0224
 9846W        W24977   7.483  12.632  16.041  0.2472  0.3794  0.2707
 9847W        W24978   6.617   8.789   1.113  0.1642  0.1449 -0.2129
 9848W        W24979  15.703   4.318  15.788  0.1497  0.0563 -0.3059
 9849W        W24980   2.620  17.629   4.448 -0.3463 -0.0202 -0.0789
 9850W        W24981  12.484   6.101   2.116  0.1444 -0.1071  0.0754
 9851W        W24982   5.417  11.740  12.008  0.2810  0.1796  0.1169
 9852W        W24983   8.134   4.079  10.457  0.4741 -0.2932 -0.3341
 9853W        W24984   1.821  10.440   1.117 -0.1626  0.0540 -0.0237
 9854W        W24985   3.325   4.860   2.682  0.4998  0.3263 -0.0419
 9855W        W24986   3.582  13.342   2.616  0.2742 -0.0894  0.2408
 9856W        W24987  11.587  16.435  12.064  0.3147 -0.1123  0.2910
 9857W        W24988  13.842  10.005  15.308 -0.1035  0.0209  0.0078
 9858W        W24989  18.094   5.289   0.203 -0.0382  0.1065 -0.0961
 9859W        W24990   2.540   9.676  10.921  0.0132  0.0138 -0.1343
 9860W        W24991   3.487   6.772  13.098  0.2820 -0.0172 -0.3110
 9861W        W24992   9.671  17.958   3.327  0.3765  0.1047 -0.0603
 9862W        W24993  12.822   6.499   2.269 -0.0740 -0.3478  0.2968
 9863W        W24994  11.562  13.981  15.793 -0.3911  0.1324 -0.1864
 9864W        W24995  14.967  17.387  13.108 -0.2964  0.0867  0.0100
 9865W        W24996   7.425   7.046   4.881  0.0011  0.0080  0.1262
 9866W        W24997   7.167   5.244  10.474 -0.0680  0.0004  0.0118
 9867W        W24998  11.358  12.366   1.127 -0.2334 -0.2017 -0.0663
 9868W        W24999   4.477   1.853  11.998  0.0297  0.0041 -0.0109
 9869W        W25000   6.831   1.037  10.624 -0.1845 -0.0126  0.1558
 9870W        W25001   9.111   6.764   2.173  0.0380 -0.0458 -0.2740
 9871W        W25002   4.957   3.480   3.803 -0.0296 -0.3842  0.2671
 9872W        W25003   2.901  12.097   3.090  0.1419  0.0475 -0.0845
 9873W        W25004   1.711  16.386   5.198  0.0870  0.0702 -0.0751
 9874W        W25005  15.732  10.590   3.289  0.1947 -0.0529  0.1418
 9875W        W25006   6.688  16.845   2.646 -0.0998 -0.0847  0.1194
 9876W        W25007   2.288   1.518  12.132 -0.0935 -0.1332 -0.1961
 9877W        W25008   1.224   6.312   5.583  0.0122 -0.1571 -0.0858
 9878W        W25009  14.909  15.871  13.091  0.2380 -0.2492 -0.2000
 9879W        W25010  15.214  17.194   5.985 -0.2409  0.0637  0.1548
 9880W        W25011  12.553  18.176   3.550 -0.0261  0.4193  0.1258
 9881W        W25012  15.322  17.036   3.951 -0.0382 -0.1989  0.1307
 9882W        W25013   9.659   2.013   5.015 -0.1818 -0.0710 -0.0392
 9883W        W25014  16.286  16.245  12.210  0.2775 -0.0471 -0.0062
 9884W        W25015   3.162  11.612  13.938 -0.0344  0.1223 -0.1577
 9885W        W25016  12.445   7.823  16.167  0.2085 -0.0213 -0.0261
 9886W        W25017   3.913   0.256  13.679 -0.1399  0.0601 -0.0622
 9887W        W25018   5.478   8.639   1.305 -0.0579 -0.3641  0.0310
 9888W        W25019  11.336   7.761   4.783 -0.0031 -0.0339 -0.0321
 9889W        W25020  17.769   2.706   5.084 -0.0787  0.1862 -0.0681
 9890W        W25021   4.826  16.956   0.854 -0.1007  0.0883  0.1372
 9891W        W25022  14.979   4.784   1.993  0.1209  0.0782  0.1161
 9892W        W25023   7.085   6.723   3.115 -0.0048 -0.0289 -0.0743
 9893W        W25024  14.711   7.052  13.292  0.2311  0.1763 -0.2292
 9894W        W25025   6.277  10.941  10.807 -0.2160 -0.1672  0.2482
 9895W        W25026   0.012   6.545  12.335  0.1691  0.2211  0.3132
 9896W        W25027   4.614   3.095   0.011 -0.4563 -0.2215  0.4512
 9897W        W25028   2.097  11.898   2.756 -0.2189 -0.3644  0.1373
 9898W        W25029   6.786   2.088  13.728  0.0388 -0.0464 -0.2627
 9899W        W25030   5.108   3.748  14.554  0.0187  0.4826 -0.0831
 9900W        W25031  13.383   9.694   2.744 -0.4154  0.3243 -0.0653
 9901W        W25032   6.315  12.943   1.791 -0.1505  0.2270  0.0092
 9902W        W25033   0.001   7.618  12.350  0.0187 -0.4426 -0.3335
 9903W        W25034   5.252  12.597   3.010 -0.2156 -0.2506  0.2432
 9904W        W25035  11.584   1.770  12.624 -0.0971  0.1156  0.1129
 9905W        W25036   8.850   5.995   5.401 -0.0274 -0.1749  0.2681
 9906W        W25037   3.571   8.306   1.825  0.0375  0.0604  0.0535
 9907W        W25038   1.130   4.452   3.372  0.0287  0.0293 -0.2260
 9908W        W25039   6.976   6.603  13.299  0.0980 -0.1753  0.0373
 9909W        W25040   5.968   7.199  12.742 -0.0326  0.1335  0.0194
 9910W        W25041  16.196  11.462   1.180  0.0393  0.0463  0.3423
 9911W        W25042   7.168  11.983  13.666  0.1620 -0.0331 -0.2055
 9912W        W25043  12.695  10.002  15.557 -0.2482 -0.0699 -0.1206
 9913W        W25044  16.339   1.428   3.717  0.1313 -0.2640 -0.4266
 9914W        W25045  14.738   5.776   0.011 -0.0790  0.0575  0.2423
 9915W        W25046  15.531  17.328   2.456  0.2430 -0.1105 -0.2477
 9916W        W25047   4.551  15.639   1.602 -0.0884 -0.0365  0.1016
 9917W        W25048  16.311   9.261  13.318  0.1055 -0.0805  0.0964
 9918W        W25049  10.618  11.409  11.324 -0.0158  0.2666  0.4550
 9919W        W25050  14.625   3.568   1.018  0.0380 -0.0839 -0.0260
 9920W        W25051  17.334   2.903  12.738  0.2046 -0.0433 -0.3166
 9921W        W25052   5.142   4.644  15.935  0.2669  0.2191  0.4215
 9922W        W25053  18.108   7.877   0.333  0.0987 -0.1476  0.3001
 9923W        W25054  15.405   2.408   4.769 -0.1114  0.0426  0.1053
 9924W        W25055   6.149   2.138  14.986 -0.1680  0.1387  0.2562
 9925W        W25056  11.162  11.455   5.672 -0.2269  0.0221 -0.1843
 9926W        W25057   9.360   1.277  15.720  0.3236  0.0374 -0.0588
 9927W        W25058   5.436  11.913   4.882 -0.0153  0.1326  0.0598
 9928W        W25059   7.070   4.310   1.605  0.0139  0.2423  0.1233
 9929W        W25060   3.473   0.513  11.032  0.0335  0.3286  0.2560
 9930W        W25061  10.102   7.704   0.332 -0.0058 -0.0475 -0.0761
 9931W        W25062  12.830   7.664  11.415 -0.1610 -0.2082  0.1977
 9932W        W25063   3.902  14.387   3.974 -0.3205 -0.1210 -0.0825
 9933W        W25064   2.617  10.531  16.084 -0.2503  0.3237  0.0566
 9934W        W25065   6.753   1.855   0.602 -0.0301  0.0483  0.1035
 9935W        W25066   5.846   6.241   4.632 -0.0589  0.0421 -0.2538
 9936W        W25067   5.997  10.579  10.564  0.1479 -0.1366  0.0204
 9937W        W25068   9.726   5.536  13.674 -0.1422  0.1561 -0.0027
 9938W        W25069   5.072  10.819  11.466 -0.1752 -0.0868 -0.0845
 9939W        W25070  10.821   4.336   0.924  0.1914  0.4001 -0.0886
 9940W        W25071   1.794   8.244  15.730  0.1102  0.3188 -0.0716
 9941W        W25072  13.232  17.282   1.847  0.0703  0.0317 -0.0817
 9942W        W25073  12.142   8.916   4.422 -0.0621  0.2202  0.0060
 9943W        W25074   9.685  14.460  15.405 -0.0697 -0.2405  0.2775
 9944W        W25075  14.221   1.704  13.617  0.0222  0.3408  0.1240
 9945W        W25076   0.141  17.258  15.665 -0.0706 -0.2028  0.3266
 9946W        W25077   9.061  17.192  14.581 -0.3325  0.0377  0.0434
 9947W        W25078  16.969  13.405   5.878  0.0514 -0.1822  0.0192
 9948W        W25079  12.973  15.178  14.177 -0.1392  0.1548  0.2297
 9949W        W25080  11.203  15.262  15.719 -0.3112 -0.1869  0.3668
 9950W        W25081   3.465  12.692  13.030  0.1738  0.1834 -0.2603
 9951W        W25082  13.527  16.762  10.123  0.1465  0.0079 -0.1614
 9952W        W25083  16.534   6.423   2.165  0.2677 -0.0065 -0.1555
 9953W        W25084  15.909  15.354   0.908  0.0582  0.1537  0.0504
 9954W        W25085  13.224  14.855  14.493  0.0029 -0.1616 -0.1150
 9955W        W25086   8.895   3.141  11.223  0.0123  0.0364  0.0110
 9956W        W25087   3.827   2.198  12.500  0.4642 -0.0291 -0.5032
 9957W        W25088  17.282  14.362   0.941  0.0680 -0.0614 -0.0013
 9958W        W25089   9.484  16.519   3.803  0.1656 -0.1613  0.0541
 9959W        W25090   7.056  14.146   1.016 -0.1316 -0.0626  0.2409
 9960W        W25091  12.161   8.824   2.953 -0.1570  0.2850  0.0702
 9961W        W25092  15.702   0.822   2.036 -0.2898 -0.3433 -0.2106
 9962W        W25093   1.180  11.305   3.529  0.1691  0.2133  0.2696
 9963W        W25094   6.085   8.146   2.317 -0.2513 -0.0636  0.4669
 9964W        W25095   4.157   8.787   5.281  0.0865 -0.2704 -0.1169
 9965W        W25096   2.266   6.949   3.288  0.2960  0.0310 -0.0675
 9966W        W25097  13.827  13.875  12.821  0.0864  0.0788 -0.0486
 9967W        W25098   1.286  14.477   0.467  0.4457 -0.3173  0.1148
 9968W        W25099   0.550   6.078   5.188 -0.1041 -0.2111 -0.1315
 9969W        W25100  14.705   0.520   2.881  0.2951 -0.1295 -0.1662
 9970W        W25101  16.061   4.689  10.830 -0.2798  0.0538  0.1021
 9971W        W25102   6.837  13.257   3.870  0.2155 -0.2537  0.1411
 9972W        W25103   3.428   0.662   4.825  0.0989  0.0188  0.0089
 9973W        W25104  12.935  10.399   3.817  0.0241 -0.0973 -0.2369
 9974W        W25105   5.320  16.196   3.796 -0.1589  0.0895  0.0859
 9975W        W25106  13.163  15.787   6.005 -0.0980  0.0218 -0.1620
 9976W        W25107  11.792  13.317  14.548 -0.0337 -0.0982  0.0865
 9977W        W25108  16.857  12.046  12.420 -0.1309 -0.1115 -0.0308
 9978W        W25109  18.069  12.138  12.927 -0.0627 -0.2184  0.1649
 9979W        W25110  11.978  16.325  15.409 -0.0661  0.1449  0.0853
 9980W        W25111  11.446  10.402   5.763  0.0034 -0.0871 -0.1120
 9981W        W25112  11.054  16.599   1.153  0.1027 -0.1234 -0.1397
 9982W        W25113   5.419   6.437  12.821  0.3046 -0.0614 -0.1553
 9983W        W25114   9.718   7.103  15.748 -0.3757  0.0687  0.1657
 9984W        W25115  16.280  13.854  10.988  0.0277 -0.4459 -0.0051
 9985W        W25116  13.749   0.092   4.828 -0.3070 -0.2122 -0.3033
 9986W        W25117  10.304  11.539  14.116 -0.2602 -0.0479 -0.2509
 9987W        W25118  17.961   5.481  11.577 -0.3291  0.1339  0.0799
 9988W        W25119   9.498   9.369  11.498  0.2562  0.2245  0.0537
 9989W        W25120  11.126   7.701  14.524 -0.0250  0.0834 -0.2166
 9990W        W25121   5.607  12.901   3.090 -0.2188  0.1757  0.0413
 9991W        W25122  12.734   7.188  11.250  0.1431  0.2148  0.0218
 9992W        W25123   6.372  17.095   2.307  0.0776 -0.0198 -0.0905
 9993W        W25124  17.153   1.901   0.439  0.4544  0.0185 -0.2075
 9994W        W25125  13.451  14.208   1.715  0.1870 -0.2576  0.0025
 9995W        W25126   5.662   2.397   4.112  0.0279  0.2571  0.2133
 9996W        W25127  16.615  10.335  13.950 -0.0280 -0.1321  0.0556
 9997W        W25128   4.880  12.091  11.664  0.1474  0.0906  0.2678
 9998W        W25129   4.308   1.073   2.811 -0.0174  0.0420 -0.1512
 9999W        W25130   5.208   0.697  12.320 -0.0745 -0.3768  0.1071
10000W        W25131   8.500   9.613   0.613  0.0376  0.2665  0.0098
10001W        W25132  13.603   3.506   4.884 -0.2813 -0.2049 -0.1365
10002W        W25133   9.017  10.877  12.759  0.2019 -0.2156 -0.0556
10003W        W25134  14.322   4.278  14.470  0.0235  0.0564  0.2551
10004W        W25135   3.851   9.024   2.595  0.0287 -0.3003 -0.0160
10005W        W25136  16.395  12.559   1.032 -0.1818  0.2331  0.2536
10006W        W25137  13.057   9.419   3.542 -0.0279 -0.0420  0.0474
10007W        W25138  15.540  15.266  12.972  0.0479 -0.0958  0.1125
10008W        W25139  13.932  10.840   5.979 -0.1249  0.0953  0.2625
10009W        W25140   5.660  12.040  15.734  0.1493  0.0180 -0.1293
10010W        W25141  14.034  13.120   2.335  0.0867 -0.1114 -0.0035
10011W        W25142   0.527  10.149   4.654 -0.2091  0.0759 -0.3367
10012W        W25143   2.723   8.484  13.223 -0.3784  0.1872  0.0831
10013W        W25144  16.231   3.444  11.938  0.0279 -0.0137 -0.2476
10014W        W25145  13.431   2.111   0.938 -0.1957 -0.2213  0.0531
10015W        W25146  13.768  14.793  15.735  0.0063  0.1563 -0.3448
10016W        W25147   3.312  14.243  13.147 -0.2410  0.1311  0.1738
10017W        W25148  14.318  13.769  12.860 -0.1386  0.0171  0.1625
10018W        W25149   0.584   6.270  13.492  0.2550  0.0167  0.1429
10019W        W25150   5.485   8.595  13.936  0.3643 -0.1111 -0.0118
10020W        W25151   3.244   9.240   1.420  0.1641  0.3164 -0.1098
10021W        W25152  17.628  15.803  14.663 -0.0776  0.0340  0.0355
10022W        W25153  15.015   1.956  11.700 -0.0413 -0.0264 -0.2660
10023W        W25154  11.770   4.180  16.025 -0.0634 -0.0598  0.1007
10024W        W25155  14.593  11.500  11.878 -0.1377 -0.0373 -0.3591
10025W        W25156   2.506   2.052   5.552 -0.0671 -0.0301  0.0617
10026W        W25157   5.740  16.647  15.349  0.2001 -0.2866 -0.3219
10027W        W25158   5.641   4.785  15.808  0.2800  0.0765 -0.0325
10028W        W25159  13.262  12.564  14.328 -0.0575  0.1529 -0.1685
10029W        W25160   9.214  16.782   4.284  0.1406 -0.0679 -0.1230
10030W        W25161   7.119  14.361   1.574  0.2108  0.4511 -0.2483
10031W        W25162   6.010   6.602  11.357 -0.0901 -0.0518 -0.0341
10032W        W25163   3.790   2.188   4.986  0.1899  0.1295  0.3627
10033W        W25164   1.018   6.104   2.040  0.1835 -0.1338 -0.0152
10034W        W25165  14.979   6.891   1.273 -0.0292 -0.1837  0.1486
10035W        W25166   9.403  16.400  13.364 -0.1177  0.2481  0.2075
10036W        W25167   1.997   9.251   5.245  0.0951 -0.1864 -0.1347
10037W        W25168  17.284  13.346  11.915 -0.0636  0.3181 -0.0776
10038W        W25169  11.775   8.989   4.769  0.1939 -0.0416 -0.1388
10039W        W25170   1.643  17.791   2.433 -0.2221 -0.1824  0.1046
10040W        W25171   3.552   0.305  15.449  0.0320 -0.1561 -0.0400
10041W        W25172   7.002   0.403  12.276  0.1716 -0.2479  0.1174
10042W        W25173  10.835   2.612   0.214 -0.0909  0.0211  0.1292
10043W        W25174  15.702   2.287   6.054 -0.0522 -0.0762 -0.1073
10044W        W25175  15.670  13.321  15.297  0.0672 -0.2874  0.1546
10045W        W25176   4.478  15.062  13.742  0.0666 -0.2495  0.1423
10046W        W25177  12.912  15.711   5.444  0.1198  0.1250 -0.2937
10047W        W25178  16.479   5.073   5.699 -0.0332  0.2168 -0.1181
10048W        W25179   4.495  16.027   3.768 -0.2222  0.4759  0.1060
10049W        W25180  12.996   5.673   3.333 -0.1330 -0.3458  0.1038
10050W        W25181  12.434   5.714  15.406 -0.0977  0.3418  0.1095
10051W        W25182   5.783   8.856   3.381 -0.1827  0.0099  0.2361
10052W        W25183   6.855   3.715   2.956  0.0488 -0.1677  0.0844
10053W        W25184   0.474   8.362   5.203  0.0545 -0.0843  0.0138
10054W        W25185   8.903   3.987   0.245 -0.3928  0.2503  0.0873
10055W        W25186   7.199  18.008   3.316 -0.2376  0.2870  0.1420
10056W        W25187  12.876  16.870  10.783  0.0137  0.1916 -0.0600
10057W        W25188   3.525   8.218   3.025 -0.0380  0.1169  0.3064
10058W        W25189  11.039  12.042   0.982  0.0204 -0.0254 -0.0390
10059W        W25190   6.518  16.387  11.278  0.1983 -0.1976 -0.1301
10060W        W25191   5.008  15.899   1.625  0.0599 -0.0374  0.2032
10061W        W25192  16.767  15.490   2.441 -0.0527 -0.1386 -0.3957
10062W        W25193   9.395  12.316  13.669  0.1602  0.2341 -0.0664
10063W        W25194   8.863   9.377  14.160 -0.1434  0.3410  0.1993
10064W        W25195   6.438  10.827  15.573  0.2685 -0.0584 -0.1459
10065W        W25196  12.738   9.133  14.501 -0.1158 -0.0801 -0.3205
10066W        W25197  17.940  14.395  12.201  0.1888 -0.1548  0.1674
10067W        W25198  11.691   8.451   3.677 -0.1119 -0.0799  0.1505
10068W        W25199  15.000   3.875   2.486 -0.2868  0.1013 -0.0013
10069W        W25200   7.053   1.965  12.877 -0.0336  0.1282 -0.0389
10070W        W25201   5.839   2.478  13.611  0.1930  0.1026 -0.1585
10071W        W25202   5.946   8.762   2.594  0.0008 -0.0682 -0.1376
10072W        W25203   9.750  13.151  11.024 -0.1018 -0.0331 -0.4168
10073W        W25204  15.911   5.082   2.631  0.0176 -0.0829  0.2414
10074W        W25205   7.404  13.552   3.204  0.0969  0.1363  0.2370
10075W        W25206  16.748   6.129  14.868  0.0755  0.1580  0.2762
10076W        W25207   6.443   2.946  12.265 -0.3199  0.2300  0.0610
10077W        W25208  16.297  15.141   1.770  0.2823 -0.1609 -0.1165
10078W        W25209   1.052   9.581  14.622  0.2570 -0.0292  0.0391
10079W        W25210   1.555  13.922   4.575  0.1464 -0.0201 -0.0552
10080W        W25211  13.718  10.703   5.456 -0.2655  0.0485  0.3244
10081W        W25212  18.063  13.274   1.055 -0.0636  0.2879  0.0258
10082W        W25213  12.670   4.694  15.085  0.2550 -0.0482  0.2819
10083W        W25214   3.025  16.051   3.771 -0.2180 -0.2867  0.0140
10084W        W25215  17.106   2.780   1.253 -0.0478 -0.3042  0.0119
10085W        W25216   4.766  16.267   4.291  0.0819  0.1121 -0.2516
10086W        W25217   8.285   9.269  16.234 -0.0177 -0.3839  0.2259
10087W        W25218   8.158  17.094   0.847  0.1675 -0.0343 -0.1271
10088W        W25219  11.339   8.536  12.322  0.1064 -0.0100  0.0896
10089W        W25220   3.975  14.840  12.398  0.0759  0.0891  0.5191
10090W        W25221  17.728   8.803   5.026 -0.1945  0.0771 -0.0440
10091W        W25222   8.210   6.733  13.021 -0.0993 -0.3420  0.1192
10092W        W25223  10.917  12.873  14.871 -0.1267  0.0869  0.0386
10093W        W25224   9.087   6.999  15.074 -0.0212 -0.1084  0.2993
10094W        W25225   4.418  10.081   3.600 -0.0785 -0.1761 -0.0710
10095W        W25226   4.765  11.125  10.564 -0.1329  0.0294  0.0674
10096W        W25227   2.201  10.624  14.277 -0.3368 -0.1598  0.0417
10097W        W25228   1.219  17.179   1.544  0.1295 -0.0806 -0.0203
10098W        W25229   4.251  16.072   0.188 -0.2855  0.0903  0.1446
10099W        W25230  17.162   3.272  14.913  0.3750  0.1493 -0.0878
10100W        W25231  10.486  10.971   1.161  0.1028  0.0674  0.0689
10101W        W25232   5.807   9.353   3.467 -0.1875  0.0139 -0.0270
10102W        W25233   9.434   1.983   1.008 -0.1217 -0.0453  0.4271
10103W        W25234  18.008   3.295  10.084 -0.1414  0.2162  0.2288
10104W        W25235   2.552   9.490  13.907  0.1697 -0.1416 -0.0856
10105W        W25236   2.897  17.692   3.928  0.4010 -0.3055 -0.1230
10106W        W25237   4.761   2.359   5.154  0.0530 -0.3842  0.0341
10107W        W25238   0.668  17.399  10.823  0.1150  0.1215  0.0792
10108W        W25239  14.221   7.074   1.990 -0.0864  0.1028  0.3204
10109W        W25240  16.628  17.759  13.073 -0.1872 -0.0312  0.0682
10110W        W25241  13.376   7.894  10.833 -0.2367  0.1614  0.2400
10111W        W25242  15.442  16.704  15.746  0.0999 -0.2037  0.0903
10112W        W25243   1.692   1.432  10.983 -0.0517  0.0187 -0.0286
10113W        W25244   9.214   7.043  12.307  0.0902 -0.1195 -0.0954
10114W        W25245   6.626  17.163  11.705  0.1336  0.1196 -0.2861
10115W        W25246  10.236   3.316   1.739  0.1701  0.0504  0.0128
10116W        W25247  15.780  10.669  14.994  0.1009 -0.1518 -0.0135
10117W        W25248   6.631  12.197   4.541 -0.2241  0.0364  0.0592
10118W        W25249  17.853  14.029  15.989  0.2774  0.3977  0.0041
10119W        W25250   6.625   0.555   0.976 -0.0424 -0.3630 -0.0586
10120W        W25251  16.384   3.337   4.551 -0.0478 -0.0019 -0.0525
10121W        W25252  10.795   6.552  12.420  0.2008 -0.1271  0.1724
10122W        W25253   9.181   8.682  11.224  0.1987  0.3021 -0.2966
10123W        W25254   0.643   9.435   5.208 -0.0239  0.1290  0.1312
10124W        W25255   9.804   1.614   0.202  0.0655  0.0944  0.1490
10125W        W25256  11.881  13.747   3.504 -0.0680  0.1518 -0.0925
10126W        W25257  15.612  16.882  11.740 -0.1483  0.1133  0.1232
10127W        W25258  14.120   6.006  13.000 -0.0684  0.2568 -0.0615
10128W        W25259  15.733  11.129  15.531  0.1077 -0.0329 -0.0425
10129W        W25260   3.754  16.341  15.899 -0.0732 -0.1046  0.2318
10130W        W25261   8.983   6.005  15.834  0.1062 -0.1348 -0.0759
10131W        W25262  13.709  17.349   2.095 -0.0800 -0.0150 -0.1188
10132W        W25263   3.464  12.336   0.094 -0.0239  0.2274 -0.1173
10133W        W25264  15.032  17.295  12.368 -0.2273 -0.1295 -0.1071
10134W        W25265  15.357  15.014   2.889  0.1139  0.2756 -0.0686
10135W        W25266  14.643  14.917   3.744 -0.2960  0.3439 -0.2775
10136W        W25267  16.001   2.383   3.761  0.3942 -0.2081  0.0672
10137W        W25268  12.735   6.736  13.626 -0.0319  0.0175 -0.0181
10138W        W25269  17.692   8.225   0.936  0.1381  0.1825  0.0773
10139W        W25270  10.574  12.757   2.460 -0.0363  0.2753 -0.0554
10140W        W25271  15.572   6.145   4.751  0.1479 -0.1774  0.4307
10141W        W25272   2.228  10.452   3.254 -0.2110 -0.4196  0.0624
10142W        W25273   1.435  11.633  14.221  0.1305 -0.3349  0.0200
10143W        W25274  11.793   0.356  11.560  0.3451  0.1774 -0.0247
10144W        W25275   9.647  16.812  14.037 -0.1010  0.1946  0.1007
10145W        W25276  17.850  16.368  14.702  0.2068 -0.0874  0.1838
10146W        W25277   2.272  16.069  15.249 -0.2014  0.0032 -0.0743
10147W        W25278   3.508  17.385   1.889  0.4086  0.1712 -0.0237
10148W        W25279   9.903   7.206   0.596  0.2295  0.0766 -0.4139
10149W        W25280  15.756   3.516  16.150  0.2021  0.0450  0.1311
10150W        W25281  11.286   1.763   0.531  0.3894 -0.1860  0.3426
10151W        W25282   9.027  10.162  15.488  0.1482 -0.2259 -0.1660
10152W        W25283  12.260  13.896   3.918  0.1005  0.0711 -0.1442
10153W        W25284  16.525   8.323   1.523 -0.2218 -0.1636  0.4106
10154W        W25285  10.267   5.972  12.584  0.2920 -0.1201  0.0989
10155W        W25286   2.793  16.362  13.323 -0.0837 -0.1284 -0.0290
10156W        W25287  15.215  11.016  13.127 -0.2326  0.0459  0.0697
10157W        W25288   1.664  14.330   0.227  0.0310  0.1991  0.0572
10158W        W25289  17.358   8.263   6.170 -0.1090  0.2929  0.1448
10159W        W25290  14.233  14.463  11.684 -0.1025 -0.0183 -0.0729
10160W        W25291  16.402  10.817  11.873 -0.0167  0.2880 -0.0302
10161W        W25292   1.727   5.724   2.450 -0.0908 -0.0562  0.2601
10162W        W25293   2.033  16.311   3.675  0.0220 -0.0878 -0.2620
10163W        W25294  14.775   1.305   4.766  0.1045  0.1241 -0.2029
10164W        W25295   5.246   9.035  11.365 -0.3136  0.3555  0.0176
10165W        W25296  15.442   3.166   4.989 -0.0631  0.0583 -0.3237
10166W        W25297  14.930   2.911   6.070 -0.0778 -0.0761  0.2916
10167W        W25298   9.925   4.549  10.296  0.1941  0.2202 -0.0817
10168W        W25299   1.551  13.473   2.555  0.0956  0.1691 -0.3717
10169W        W25300  15.284   5.632   2.164 -0.1444  0.3827  0.1799
10170W        W25301  10.239  13.066  14.213 -0.1348 -0.1941 -0.0263
10171W        W25302   5.022   5.239   2.435  0.0010  0.1446  0.0005
10172W        W25303   7.994  15.187   2.042 -0.1107 -0.0288 -0.2280
10173W        W25304   2.713  17.269   3.501 -0.1415  0.3206  0.1345
10174W        W25305   5.152  10.562   3.654  0.0253 -0.0931  0.4214
10175W        W25306  17.675   2.084   1.806  0.0376 -0.2234 -0.0833
10176W        W25307   3.123  17.553   1.422  0.0130  0.0782 -0.2359
10177W        W25308   7.767   5.080  14.822 -0.1882  0.2287  0.3129
10178W        W25309   5.944   7.469  10.931 -0.0400  0.0498  0.3513
10179W        W25310   6.340  15.909  13.703  0.0024 -0.1174  0.0620
10180W        W25311  11.203   1.561   0.030  0.4805 -0.1616  0.0708
10181W        W25312   6.003  16.464   2.275  0.2036 -0.0533 -0.4440
10182W        W25313   5.614  16.937   1.884 -0.1027  0.0614 -0.0590
10183W        W25314   2.514   7.143  14.949 -0.1227  0.0640 -0.1957
10184W        W25315  14.215  14.928   3.991 -0.1630  0.0049 -0.0337
10185W        W25316   2.382   2.496  12.757 -0.2848  0.0261  0.2252
10186W        W25317   5.964   1.244  11.348 -0.0730  0.1488  0.0846
10187W        W25318   1.225   6.771   1.356  0.1102 -0.2337  0.1979
10188W        W25319   6.705   7.278   0.012 -0.1080 -0.1950  0.0522
10189W        W25320   5.645  14.273   4.151  0.0551  0.1061 -0.0046
10190W        W25321   5.671   7.119  11.186 -0.1861 -0.0857  0.1125
10191W        W25322  17.905  13.335   5.604  0.0647  0.3768  0.5815
10192W        W25323   6.845   8.729   2.235  0.1033  0.1702  0.1145
10193W        W25324   0.026   5.248   2.276 -0.0727 -0.0070 -0.2850
10194W        W25325   7.501  12.085  13.245 -0.0990 -0.4313 -0.3947
10195W        W25326   0.381  15.754   1.286 -0.0916 -0.1062 -0.1356
10196W        W25327  17.306   0.897  12.259  0.0162  0.0128 -0.1971
10197W        W25328   4.822  16.328   2.412  0.0290  0.0390 -0.1398
10198W        W25329  13.537   9.615  10.907  0.0159 -0.0427 -0.0789
10199W        W25330   4.695   0.150   3.235 -0.1603  0.2229  0.5192
10200W        W25331   4.379  10.352   1.148  0.0205  0.1468  0.1889
10201W        W25332  17.871  11.565   5.315  0.1335 -0.5076  0.2911
10202W        W25333   0.790   9.936   4.237 -0.2534 -0.0379 -0.0855
10203W        W25334  17.245  13.904  12.574  0.1048 -0.3879  0.0522
10204W        W25335   7.976  17.040   1.695  0.1637  0.1888 -0.0187
10205W        W25336  11.125   0.732   5.000  0.0004  0.0806  0.0547
10206W        W25337   9.799   0.410   4.441  0.3505  0.0113 -0.1866
10207W        W25338  16.121   5.924   4.859 -0.3354  0.2317 -0.0467
10208W        W25339   6.309   3.436   3.551 -0.1449  0.0635 -0.0174
10209W        W25340   1.200   8.008  11.448 -0.0469  0.1452 -0.1153
10210W        W25341  12.872   8.185   4.468  0.1355  0.0079  0.2457
10211W        W25342  16.554   1.904   1.742 -0.0895 -0.2421 -0.0342
10212W        W25343  15.489   6.302   5.449  0.1913  0.2281  0.4005
10213W        W25344   7.023   6.559  14.422  0.1913  0.2956  0.0954
10214W        W25345  10.862   3.497   4.545 -0.1876 -0.2009 -0.0975
10215W        W25346   0.501   5.013   2.915  0.1762  0.1828  0.1030
10216W        W25347   6.546  16.408  12.914  0.1228  0.2343  0.1693
10217W        W25348   7.643   0.785  14.899  0.0309 -0.1063  0.1534
10218W        W25349   5.380   7.388   2.162 -0.1436 -0.0060 -0.3172
10219W        W25350  14.896  12.405  12.044  0.0818  0.0089 -0.1032
10220W        W25351  16.160  13.636  11.841  0.0175  0.0668  0.0460
10221W        W25352  12.667  11.672   4.432  0.3175 -0.0555 -0.0091
10222W        W25353   4.422  10.429  12.354  0.1609 -0.1559 -0.3099
10223W        W25354   7.651  13.048  11.618  0.0324  0.0186 -0.0692
10224W        W25355   6.746  17.378   0.489  0.1153 -0.0647  0.0723
10225W        W25356  17.570   8.367   5.333 -0.2241  0.1798  0.0614
10226W        W25357   0.921   2.485  11.479 -0.0948 -0.2199  0.4796
10227W        W25358  11.049   4.720  11.364  0.2531 -0.1738 -0.0997
10228W        W25359   8.112   4.253   4.760 -0.0016 -0.2945 -0.0444
10229W        W25360  15.696  13.480  12.130 -0.4468  0.2692 -0.1318
10230W        W25361  13.722   5.892   2.004 -0.0133 -0.1189 -0.3758
10231W        W25362  15.313  15.248   5.281  0.0230 -0.1279  0.5459
10232W        W25363   7.474   6.386  11.106  0.0723 -0.2788  0.2386
10233W        W25364  10.998  14.110  14.651 -0.1279  0.1627 -0.1363
10234W        W25365   1.774  13.012   2.297  0.3709 -0.2085  0.1057
10235W        W25366  15.462  18.061  14.730  0.0734  0.1787  0.2549
10236W        W25367   7.914   7.676   1.312 -0.1081  0.0840 -0.1196
10237W        W25368  16.060  10.183   1.467  0.1983 -0.0280  0.1189
10238W        W25369   3.376   2.404  14.207 -0.0945 -0.0779 -0.1334
10239W        W25370   5.589  13.505  12.797 -0.1162 -0.2804 -0.1510
10240W        W25371   8.079   4.401   1.870  0.1703 -0.0987  0.2049
10241W        W25372  10.539  16.560   4.075  0.2141  0.2092  0.1428
10242W        W25373   2.145   8.082   3.994 -0.0133 -0.0395  0.1406
10243W        W25374  14.520   4.136   1.376 -0.2624 -0.1354 -0.1416
10244W        W25375  17.204  14.947  11.162  0.1098 -0.0871  0.2454
10245W        W25376   5.730  17.552   0.625  0.0476  0.0527  0.1765
10246W        W25377   2.060   5.311   3.649 -0.0924 -0.0746 -0.1062
10247W        W25378   5.937  17.443   9.540  0.0342  0.1517  0.1103
10248W        W25379   9.530   8.950   4.185 -0.1123  0.1015  0.0789
10249W        W25380  14.418   0.193  10.514 -0.0550  0.1513 -0.0032
10250W        W25381   8.889  13.354  11.990  0.1919 -0.1420  0.3780
10251W        W25382  18.171   4.915  11.191 -0.1160 -0.0964  0.1481
10252W        W25383  15.645  11.193   5.644  0.1980 -0.2104  0.1314
10253W        W25384   3.192   3.482  12.942 -0.1606  0.0098  0.2463
10254W        W25385  18.128  13.836   2.256  0.3197 -0.1295 -0.2513
10255W        W25386   4.705  14.315  11.526  0.4007  0.1305  0.1151
10256W        W25387  17.537   3.306  13.465 -0.0038  0.1199  0.0893
10257W        W25388  12.401   1.390  13.088 -0.2112 -0.0781 -0.0164
10258W        W25389  14.235   1.694   1.539  0.1424 -0.1847  0.3155
10259W        W25390   8.445   0.527   1.135 -0.3647  0.1366 -0.0712
10260W        W25391   9.925  11.192   2.109 -0.3773 -0.0149  0.1852
10261W        W25392  18.070  14.412   0.640  0.1793 -0.1224  0.2424
10262W        W25393  15.629  10.242   0.123 -0.1683 -0.2290 -0.4175
10263W        W25394   2.259   0.110   2.879  0.2001 -0.2676 -0.0310
10264W        W25395  10.572  10.380  12.212  0.2071 -0.0887 -0.2037
10265W        W25396  10.297  17.268   1.836 -0.0511  0.1158 -0.0704
10266W        W25397   6.369   1.801   3.451  0.1298  0.0722  0.5078
10267W        W25398   5.691   6.345   2.716 -0.1713 -0.1342 -0.0699
10268W        W25399  14.094  18.076  15.034  0.0876 -0.3152 -0.1045
10269W        W25400   7.370  10.349   5.772 -0.0590 -0.0704  0.0470
10270W        W25401   3.536  17.943  12.767 -0.0295  0.2270  0.1117
10271W        W25402   0.045   0.173   0.007  0.0598  0.0468  0.0790
10272W        W25403   1.350  11.085   0.854  0.2471 -0.1451 -0.3043
10273W        W25404  14.340   0.025   2.909 -0.4507 -0.1790 -0.2601
10274W        W25405  13.656   7.736   0.108  0.2534  0.3915 -0.3698
10275W        W25406   0.843   1.963   2.567 -0.2972 -0.1045  0.1666
10276W        W25407   4.032  10.195   2.047  0.0010 -0.1298  0.2080
10277W        W25408   0.264  17.867   2.026 -0.0714 -0.0490  0.0354
10278W        W25409   5.015   5.960  14.362 -0.0548  0.0332 -0.2966
10279W        W25410  16.704   3.475  10.608  0.5745 -0.0336  0.0808
10280W        W25411   3.448   3.843  14.648 -0.0169 -0.1483 -0.2645
10281W        W25412   7.920  16.320   3.106 -0.5579  0.0965 -0.0760
10282W        W25413  13.544   9.772  14.519 -0.2103  0.0816  0.1094
10283W        W25414  13.748   1.843   5.205 -0.0504 -0.0098  0.1650
10284W        W25415   8.552   0.191   2.586  0.1902 -0.0398 -0.1616
10285W        W25416  15.210  10.263  16.106 -0.1458 -0.0747 -0.1099
10286W        W25417   1.343  11.277   4.340  0.1994 -0.0322 -0.2843
10287W        W25418  15.474  12.308   1.987  0.0297 -0.2833  0.1435
10288W        W25419  15.543   9.040   1.916 -0.0668  0.1609  0.4416
10289W        W25420  11.080   8.504  16.114 -0.0440 -0.0082  0.0948
10290W        W25421  15.238   5.528   5.082 -0.2054 -0.1788  0.2065
10291W        W25422   5.385  15.708  10.937 -0.0742 -0.1195  0.0740
10292W        W25423   4.696   0.961   0.835  0.0363 -0.0060 -0.2306
10293W        W25424   2.316  13.782  15.594  0.0754  0.0288 -0.0052
10294W        W25425  14.367  16.143  10.939  0.3077  0.2939 -0.2541
10295W        W25426  14.090   1.260   0.509 -0.0823 -0.2742 -0.2760
10296W        W25427  11.407   4.045   1.091  0.2965  0.1474  0.0485
10297W        W25428  11.707  17.155  13.457 -0.0451  0.3355 -0.0054
10298W        W25429  16.134   4.970  14.139 -0.4170 -0.1127 -0.1118
10299W        W25430  17.983  16.355   1.521 -0.0129  0.1178  0.3435
10300W        W25431  14.015   0.262  10.807 -0.0248 -0.1708 -0.3488
10301W        W25432   1.451   1.279  14.786 -0.0115 -0.1282 -0.0602
10302W        W25433   6.938  14.536   5.483  0.1985  0.0449  0.0549
10303W        W25434  17.753  11.896  13.931  0.0640 -0.0287  0.2834
10304W        W25435  15.972  17.483   1.916 -0.2071 -0.1643 -0.0847
10305W        W25436  14.554  10.459   2.099  0.0422 -0.2758 -0.3147
10306W        W25437   5.806   5.829   4.068  0.2697 -0.0230  0.2079
10307W        W25438  17.002  15.399   3.877 -0.1109  0.0230  0.1069
10308W        W25439  11.852   5.740   5.763  0.2443 -0.0720  0.2746
10309W        W25440  12.440   0.539   0.091 -0.3719 -0.3742  0.2371
10310W        W25441  10.675   3.959   0.610  0.0429 -0.2433 -0.4451
10311W        W25442  10.251   8.962  10.397 -0.1782 -0.0453  0.1313
10312W        W25443   2.066   8.830   4.977  0.1658  0.0019  0.3098
10313W        W25444   0.567   6.970   1.662 -0.0060  0.0928 -0.0257
10314W        W25445   2.770   6.473   4.355 -0.2472 -0.0434 -0.3442
10315W        W25446  10.053   6.120  13.062 -0.1747  0.0091  0.1281
10316W        W25447   4.775   9.955  11.293 -0.1303  0.0961  0.0550
10317W        W25448   8.903   9.082   4.552  0.2055 -0.0382 -0.0576
10318W        W25449   7.512  10.773   4.413  0.1246  0.0992 -0.1620
10319W        W25450   5.259  17.030   0.323 -0.1067  0.1222 -0.2717
10320W        W25451   7.546   8.210  14.474 -0.0891  0.0570  0.1821
10321W        W25452  17.300  11.741   3.592 -0.0087 -0.2464  0.0613
10322W        W25453  17.128  18.050   5.854  0.5507 -0.0990  0.1683
10323W        W25454   9.667  10.260  14.252 -0.2610  0.1457 -0.0992
10324W        W25455  12.731   4.164   0.983 -0.1557  0.3244  0.1620
10325W        W25456  12.800  16.854  14.162 -0.0424  0.0486  0.1226
10326W        W25457   5.630   5.745   6.169  0.0986 -0.1125  0.0790
10327W        W25458  17.457  17.216   2.637  0.0957  0.0102 -0.2249
10328W        W25459   6.796   5.438   6.205  0.2658 -0.1278  0.0095
10329W        W25460   0.559  16.964   5.785  0.0028 -0.2382 -0.0409
10330W        W25461  12.226   3.260   0.723  0.2194 -0.1441 -0.0181
10331W        W25462   6.547   3.273  11.787 -0.0851 -0.2172 -0.0191
10332W        W25463   0.907   5.057   3.618 -0.0639 -0.1354  0.0855
10333W        W25464   4.864  17.185   1.290  0.2222 -0.2071 -0.2386
10334W        W25465   2.883  12.317   0.842  0.0103 -0.1578  0.2656
10335W        W25466   3.378  15.302  13.212  0.2240  0.3402 -0.0846
10336W        W25467   0.174   4.030   2.282 -0.0707 -0.0132  0.2352
10337W        W25468  14.678   5.799   0.930 -0.2101  0.2392 -0.0497
10338W        W25469   4.462   1.803   4.651 -0.0045  0.4200 -0.0456
10339W        W25470   8.230   7.253   2.507  0.2034 -0.1659  0.1798
10340W        W25471   0.525   9.871  15.339  0.0747 -0.2663  0.1969
10341W        W25472  14.799   8.052   0.662 -0.0455  0.2925  0.1469
10342W        W25473   4.817   7.336  14.315  0.0835 -0.0242 -0.2690
10343W        W25474  12.894  13.508  12.846 -0.2521  0.0589  0.0306
10344W        W25475   7.557   7.130   0.457 -0.1665  0.3251 -0.6279
10345W        W25476  10.057   5.776   2.701  0.1870  0.2082  0.2910
10346W        W25477  13.102   2.024  14.176 -0.1387  0.3236  0.1974
10347W        W25478   3.051  15.268  12.658 -0.1321  0.0394  0.3651
10348W        W25479   1.023   5.222  12.139 -0.0861  0.0989  0.1755
10349W        W25480  14.186   2.487   0.570  0.1803  0.0949 -0.1820
10350W        W25481  14.533   1.645  15.305  0.0344  0.0878 -0.0097
10351W        W25482   2.762   3.860  11.240 -0.0119 -0.0228 -0.3679
10352W        W25483   7.905   8.036   0.524 -0.1279 -0.0242  0.3121
10353W        W25484  13.464   0.820  14.234  0.1974 -0.1831  0.1135
10354W        W25485   2.881  17.956  11.216  0.2906 -0.2340  0.1382
10355W        W25486  15.753   1.456  15.927  0.0745  0.0195  0.3266
10356W        W25487   7.370   9.688  15.891 -0.2289  0.0739  0.0525
10357W        W25488  10.471  14.906   3.113  0.1323 -0.2889  0.0721
10358W        W25489   7.166   2.532   3.127  0.1136 -0.1360 -0.2273
10359W        W25490   5.549  13.300  13.310 -0.0039  0.2651 -0.0202
10360W        W25491  14.308   0.646   0.699  0.1909  0.0512 -0.2349
10361W        W25492   4.257   4.040  10.969 -0.4461  0.0750 -0.0017
10362W        W25493   2.799  12.011   6.004 -0.2197  0.4154 -0.1905
10363W        W25494  17.116   4.218  15.295  0.3131 -0.0989 -0.0635
10364W        W25495   8.522  12.745   4.518  0.0639  0.3336 -0.0570
10365W        W25496   4.739   2.654   0.214 -0.5799  0.1313 -0.4194
10366W        W25497  15.020  15.717   3.218  0.1673  0.0234 -0.0164
10367W        W25498   8.637   1.865  15.532  0.0575 -0.0105  0.0681
10368W        W25499  16.067   1.650  12.170  0.1206  0.1404  0.2350
10369W        W25500   4.891  14.875  13.434  0.2823 -0.1367  0.2011
10370W        W25501  12.459   2.675  13.823  0.0143 -0.1535  0.0232
10371W        W25502  17.939  17.977  15.153 -0.1833 -0.1362  0.0591
10372W        W25503   0.104   5.907  11.627 -0.1608 -0.1517  0.0381
10373W        W25504   8.920  17.499  12.438 -0.1135  0.1423 -0.3048
10374W        W25505   9.067   5.392  11.434  0.0747  0.0159  0.0962
10375W        W25506  10.283  15.722   0.575 -0.2810  0.2468  0.1707
10376W        W25507   6.053  13.212   9.994  0.0291 -0.0937  0.1952
10377W        W25508  14.844  14.550   1.887 -0.1904 -0.1541 -0.0294
10378W        W25509   6.919   8.321   2.555  0.2878  0.5813  0.1208
10379W        W25510   9.367   5.277  15.915 -0.4314  0.2314 -0.0821
10380W        W25511  11.976   0.288  14.812  0.1341 -0.0322  0.1380
10381W        W25512   9.547  17.999  12.460 -0.0722  0.0260 -0.1635
10382W        W25513  13.173  11.207  10.766 -0.1161 -0.1377  0.2809
10383W        W25514   1.012  11.122   4.004 -0.0961 -0.0114  0.0077
10384W        W25515  11.085   0.477  10.834  0.3171  0.0457 -0.0381
10385W        W25516   9.075   6.555  15.792 -0.2678  0.0149 -0.2211
10386W        W25517  15.909   9.416   1.946 -0.0200 -0.1779  0.2190
10387W        W25518   2.842  17.970   1.266  0.1895 -0.0517  0.3514
10388W        W25519  17.665  15.070  12.724  0.0835  0.1828 -0.0001
10389W        W25520  16.360  10.564  14.834  0.1187  0.0864  0.0368
10390W        W25521  15.821  18.078   5.944 -0.4133 -0.2493  0.0115
10391W        W25522  17.027   5.508   2.324 -0.3033 -0.0452 -0.1680
10392W        W25523  11.331   0.454  10.392  0.0553  0.1329  0.0615
10393W        W25524  14.086  17.081   0.303  0.1302  0.0004  0.1405
10394W        W25525  17.965  14.983  14.615 -0.1752 -0.1404 -0.3998
10395W        W25526   9.556   0.816  15.671 -0.1588  0.1483 -0.0336
10396W        W25527   8.856   2.519   3.933 -0.2593  0.1003 -0.0631
10397W        W25528  14.459   9.456   4.230  0.1968  0.2296  0.0165
10398W        W25529   5.786  10.554  13.647  0.2414 -0.0704  0.0553
10399W        W25530   1.932   1.738  15.369 -0.1187 -0.1993 -0.0957
10400W        W25531   2.218  14.662  11.764 -0.1751 -0.2245 -0.1007
10401W        W25532   6.925  10.626  13.330  0.3114 -0.0785  0.1645
10402W        W25533  13.482   9.721   0.477  0.6352 -0.0319 -0.0755
10403W        W25534   5.693   7.256  15.910 -0.2153  0.0308  0.0564
10404W        W25535   8.712  15.869  10.420 -0.0601  0.2941 -0.0006
10405W        W25536  14.968  11.729  14.380  0.2095  0.1537 -0.1561
10406W        W25537   5.482  12.791   0.405  0.3308  0.0753  0.1503
10407W        W25538   8.965   9.885  15.016  0.0336  0.0034 -0.0930
10408W        W25539  15.449   4.799   2.568  0.3231 -0.0646 -0.0211
10409W        W25540   6.695   1.183   0.054  0.0458  0.0546 -0.1333
10410W        W25541   9.653   6.672  11.045  0.3502 -0.0560  0.2450
10411W        W25542  12.897   4.146  14.357 -0.0149  0.1091  0.1276
10412W        W25543   2.114  17.262  10.929 -0.1298  0.1010 -0.1347
10413W        W25544   8.968  10.538  14.234 -0.0384 -0.3660  0.2591
10414W        W25545  13.488   0.457  14.601 -0.3703 -0.0847  0.0424
10415W        W25546   2.745   9.182   4.410 -0.2123 -0.2179 -0.1671
10416W        W25547   1.517   5.736  12.826  0.2516 -0.0324  0.1076
10417W        W25548  11.631   7.459   4.525 -0.1490 -0.2102 -0.2956
10418W        W25549   0.410  12.205  10.688 -0.1519 -0.0938  0.3485
10419W        W25550  11.230   8.386  11.263 -0.0769  0.1043 -0.1211
10420W        W25551   2.918   6.971   3.796  0.3732  0.1090 -0.4698
10421W        W25552  11.821  15.535  12.831 -0.0757  0.4635  0.0458
10422W        W25553   4.575  17.268  11.091 -0.1780  0.0521 -0.1467
10423W        W25554  11.430   6.946   4.201  0.3520 -0.1891  0.0136
10424W        W25555   8.911   3.583   4.277 -0.0164  0.1340 -0.0708
10425W        W25556  14.755   2.987  15.567  0.2511  0.2171 -0.3568
10426W        W25557  17.154   0.764  13.300  0.0537  0.0000 -0.1538
10427W        W25558  12.778  10.874   0.389  0.0310  0.0098  0.0870
10428W        W25559  13.877   3.474   3.102 -0.0794 -0.0202 -0.2655
10429W        W25560   1.815   7.452  15.330  0.1372  0.1359 -0.0009
10430W        W25561   0.281  12.118   3.945  0.0509  0.0734 -0.3406
10431W        W25562  15.676   3.563  13.928 -0.1249  0.1827 -0.2170
10432W        W25563  12.377   2.474  11.587 -0.2483  0.1494  0.0159
10433W        W25564   5.653  14.401  11.338 -0.0147  0.1160 -0.3799
10434W        W25565   8.586   2.343  13.295 -0.0946 -0.1246 -0.0844
10435W        W25566   2.431   0.979   4.620  0.2873  0.1421  0.0910
10436W        W25567   4.745   5.666  15.152  0.0911  0.0492 -0.2031
10437W        W25568  12.266   9.685  13.085 -0.0177 -0.0054 -0.1313
10438W        W25569  13.973   1.191  15.672  0.1027 -0.0873  0.1296
10439W        W25570   2.604   5.715  11.937 -0.3884 -0.4104  0.0761
10440W        W25571  10.555  17.265  12.001 -0.2409  0.1008 -0.4644
10441W        W25572   5.244  13.366  14.271 -0.1034  0.0092  0.1421
10442W        W25573  11.576   9.740  11.381 -0.0130  0.0938 -0.1670
10443W        W25574  17.314   2.454   4.333  0.2605 -0.0662  0.0084
10444W        W25575  17.780  12.513   1.361 -0.1911 -0.3679  0.2051
10445W        W25576  11.668   0.647   4.367  0.0377  0.0438 -0.0404
10446W        W25577   2.940   1.091  15.626 -0.0544  0.0488  0.2241
10447W        W25578  10.665  10.338  13.356 -0.0660 -0.0829  0.1935
10448W        W25579  14.591  16.407  12.688  0.4129  0.0452 -0.2954
10449W        W25580  12.157   3.903  10.347 -0.1198  0.0647 -0.1138
10450W        W25581   7.665  14.849  14.163  0.2674  0.1804  0.1079
10451W        W25582   1.199  13.192  11.386  0.1658  0.0282  0.0587
10452W        W25583  10.313  11.721  12.278 -0.1809  0.0895 -0.1552
10453W        W25584  14.386   2.346  12.068  0.1853 -0.0318 -0.2031
10454W        W25585   7.627  15.986   2.878 -0.1505  0.1933 -0.1959
10455W        W25586   2.214   2.079  14.964  0.1974  0.1831  0.0923
10456W        W25587   9.658  17.709   1.110  0.0045  0.3436 -0.0550
10457W        W25588   5.194  10.889   1.855  0.0420  0.0095  0.1513
10458W        W25589   6.232  15.832  15.580 -0.1658 -0.2098  0.2063
10459W        W25590   6.927   9.440  12.647  0.1854  0.2668 -0.0348
10460W        W25591  14.570  16.110   0.948 -0.0851  0.2630  0.0948
10461W        W25592   9.643   6.334  15.185 -0.0288 -0.0564 -0.2527
10462W        W25593   7.553  11.701  13.563 -0.0895  0.0285 -0.0880
10463W        W25594   0.278  11.149  11.582 -0.2021  0.1003  0.0983
10464W        W25595  13.116   0.347   0.610  0.1155 -0.1267  0.4066
10465W        W25596   1.905   9.783   4.049 -0.1760  0.0925 -0.2664
10466W        W25597   5.247  13.956  14.390  0.0008  0.0357  0.0370
10467W        W25598  11.592   2.428   3.103  0.3496  0.0504 -0.1725
10468W        W25599   3.358   8.138  13.092  0.0526 -0.0757  0.1400
10469W        W25600  13.363  16.704  15.153 -0.2852  0.0743  0.1730
10470W        W25601  13.310   4.804   2.030 -0.0034  0.2506  0.0080
10471W        W25602   5.445  14.254  13.414 -0.1062  0.0546  0.0510
10472W        W25603   4.662   9.039  13.489  0.0427 -0.4028 -0.1181
10473W        W25604  15.932   9.609   5.805 -0.0725 -0.0259 -0.0761
10474W        W25605  17.445   5.760   4.626 -0.1973  0.0225 -0.1032
10475W        W25606  12.177  14.282  13.643 -0.3876  0.2912 -0.1683
10476W        W25607   8.908   6.127   2.859  0.0389 -0.1602 -0.0250
10477W        W25608  13.927   7.770   2.379 -0.0527 -0.0620 -0.1475
10478W        W25609  15.312  13.963   4.584 -0.0979  0.1686 -0.0684
10479W        W25610   6.270   6.140  12.004  0.1561  0.6727 -0.2227
10480W        W25611   3.344   8.443  15.270 -0.1353 -0.2778  0.1403
10481W        W25612   5.231  14.999  14.413  0.0127  0.2098  0.1533
10482W        W25613   2.701   1.176   3.291  0.2079 -0.0281 -0.1532
10483W        W25614   5.547   8.813  10.964 -0.2017  0.0054 -0.0223
10484W        W25615  11.995  10.594   3.532 -0.0280  0.0611  0.2060
10485W        W25616   3.575   3.065  15.283  0.1156  0.1365  0.0798
10486W        W25617  17.128   9.552  12.808 -0.0961 -0.0185 -0.0646
10487W        W25618  15.806  16.636  13.168  0.1376  0.1407  0.2149
10488W        W25619  12.318   1.265   1.355 -0.1186 -0.3229  0.2279
10489W        W25620   1.335   5.155  11.334 -0.2459 -0.0041 -0.2155
10490W        W25621   9.229  16.594  12.800  0.1168  0.2759 -0.0779
10491W        W25622   8.242  14.593   2.886 -0.1646  0.0840 -0.1069
10492W        W25623  16.315   8.204  10.189 -0.2500 -0.0369 -0.0485
10493W        W25624   5.806  10.549  12.717  0.0890  0.0495  0.3226
10494W        W25625   1.371   5.670   0.004  0.0334  0.1788 -0.1126
10495W        W25626   1.089   7.632   1.133  0.2648 -0.1873  0.0343
10496W        W25627  17.645   7.583   3.451  0.3467 -0.2120 -0.0050
10497W        W25628   5.604  17.063   0.716  0.0849 -0.1753  0.2864
10498W        W25629   0.940  15.462   0.488  0.2147 -0.0925  0.0957
10499W        W25630   2.133   0.676   3.689  0.0955 -0.1051  0.0388
10500W        W25631  10.168   8.321   5.296 -0.1077 -0.0273 -0.1978
10501W        W25632  15.042   7.765  12.420 -0.0166  0.0163  0.2030
10502W        W25633   3.210  11.201  14.222  0.1188  0.1512 -0.0793
10503W        W25634  16.190   5.542  15.690 -0.1741 -0.3513 -0.0457
10504W        W25635   6.689  11.575  10.391 -0.1872 -0.1502 -0.0376
10505W        W25636  10.037  17.900  12.561  0.2356  0.1679 -0.2549
10506W        W25637   5.225   5.210   1.879 -0.1736  0.1786  0.0603
10507W        W25638  11.514  13.094   4.606 -0.1834 -0.2627  0.2667
10508W        W25639   7.195  14.277  15.852  0.3156 -0.1975  0.1720
10509W        W25640   2.231   2.537   4.998 -0.0494 -0.0726 -0.2123
10510W        W25641  12.409   1.162   0.865  0.0533 -0.0001 -0.0806
10511W        W25642  14.267   7.353   4.816  0.0265 -0.0084 -0.1241
10512W        W25643   6.281  10.287  12.761  0.2053 -0.1775  0.1321
10513W        W25644   5.266   0.836   4.132  0.0466 -0.1578 -0.0008
10514W        W25645   0.259   1.347  15.619  0.2403 -0.0400  0.0578
10515W        W25646  13.537  15.566   1.511  0.0400 -0.0071 -0.1361
10516W        W25647  10.494  14.617   1.087  0.1174 -0.0908  0.0568
10517W        W25648   9.901   0.629  11.711  0.1165  0.2097  0.1581
10518W        W25649   3.510  12.165   1.511 -0.1354  0.0258  0.0605
10519W        W25650   4.329  11.670   5.312  0.1435  0.2299  0.1050
10520W        W25651   1.315   2.893   3.926  0.2743  0.2137  0.3198
10521W        W25652   3.020  10.084  14.348  0.2549  0.1758 -0.1617
10522W        W25653  16.798  15.890   3.882 -0.3847  0.1600 -0.1443
10523W        W25654  11.214  16.045  13.757 -0.0257  0.1236 -0.1008
10524W        W25655  12.806   5.341   5.518  0.0409 -0.1691 -0.1075
10525W        W25656  16.642   2.286   1.375  0.3804  0.0660 -0.1717
10526W        W25657  14.380  17.509  11.497  0.2806  0.1206 -0.0355
10527W        W25658  12.069   4.207   5.857 -0.0787  0.0041  0.2249
10528W        W25659   0.877   2.835   1.818 -0.2126  0.1191 -0.0134
10529W        W25660  16.650  10.849  13.970  0.2662 -0.0906  0.0680
10530W        W25661  18.163  11.354  16.153 -0.0761 -0.2157  0.5342
10531W        W25662   5.057  10.941   2.368  0.1000  0.2939 -0.0803
10532W        W25663  11.728  13.922   3.938  0.1918 -0.0436  0.1153
10533W        W25664   0.985  17.654   4.464 -0.0075  0.1317  0.0070
10534W        W25665   5.769   6.337   4.133  0.2590  0.0410 -0.1305
10535W        W25666  17.264   0.379  12.257 -0.0648  0.5219 -0.0794
10536W        W25667  12.768  13.066   2.816  0.0456  0.2204  0.1240
10537W        W25668  15.284   0.501   2.065  0.0574  0.1154 -0.0411
10538W        W25669  11.398   1.873  12.018 -0.1122  0.0378  0.0048
10539W        W25670   2.032  11.938  14.787  0.0534  0.0881  0.1816
10540W        W25671  16.702   0.686   0.474 -0.0848 -0.1171 -0.0087
10541W        W25672   7.797  12.679   0.882 -0.0230 -0.0159  0.0656
10542W        W25673   6.393  10.730  11.850  0.0231  0.0266 -0.2435
10543W        W25674   4.285  16.335  11.375  0.0361 -0.0635  0.1409
10544W        W25675   8.352  16.099  14.748  0.0056 -0.3382 -0.0785
10545W        W25676  15.264  14.793  12.895  0.2010  0.1337 -0.1706
10546W        W25677   4.224   7.079  12.305 -0.0740 -0.3733  0.1637
10547W        W25678  11.174   1.582  12.870 -0.0107  0.0006  0.3434
10548W        W25679  15.444  16.523  15.233  0.2245  0.2699 -0.0758
10549W        W25680   2.316   7.328  14.403  0.0736  0.0313  0.0780
10550W        W25681  16.060   8.589  15.377  0.1939 -0.5304 -0.2291
10551W        W25682  11.984  11.491  15.750  0.0820 -0.0962 -0.1968
10552W        W25683  17.020  17.331   5.702  0.1983  0.2196 -0.2919
10553W        W25684   0.115  14.537   5.500 -0.2382  0.2649  0.0518
10554W        W25685   9.752  15.046   4.846  0.0553  0.3466  0.1933
10555W        W25686  10.541  14.369  11.228  0.1178 -0.0068  0.0969
10556W        W25687   1.542  12.418  15.726  0.0733 -0.2708  0.1175
10557W        W25688  11.076   7.649  16.057  0.1834 -0.0041 -0.2657
10558W        W25689  12.741  14.372   3.269 -0.0582  0.2536 -0.1151
10559W        W25690   5.412   6.521  10.571  0.0040  0.0851  0.0767
10560W        W25691   5.145  13.397  11.647  0.1465 -0.1857 -0.0754
10561W        W25692   9.665  11.700  10.495 -0.0310 -0.1182 -0.1593
10562W        W25693  14.168  13.934   3.798  0.0887 -0.0061 -0.1806
10563W        W25694  15.535   4.780   3.420  0.1810  0.0637  0.0993
10564W        W25695   1.917  14.274   0.671 -0.0180  0.0100 -0.1704
10565W        W25696  12.338  10.956   1.097 -0.3324  0.3036  0.1356
10566W        W25697   0.652  11.570   0.526 -0.1354 -0.0290 -0.2236
10567W        W25698   0.371  11.354  12.392  0.2690 -0.0452  0.1410
10568W        W25699  12.934   2.954  16.210  0.2737  0.0657  0.0176
10569W        W25700  13.375   9.297   3.077 -0.0359  0.0285 -0.0528
10570W        W25701   5.266   6.900  12.647  0.0562  0.1583 -0.2706
10571W        W25702   3.940   1.320   2.205 -0.0950  0.0373 -0.0170
10572W        W25703   1.182   8.431   5.831 -0.0787  0.1445  0.0873
10573W        W25704  16.213  17.011  14.988 -0.1098  0.0532  0.1802
10574W        W25705  12.222  14.368  12.591 -0.0389 -0.1269  0.0724
10575W        W25706  15.077  12.590  13.000 -0.5435 -0.3849  0.0501
10576W        W25707   2.921  16.555   3.767  0.1145  0.1118  0.0023
10577W        W25708  17.139  16.784  12.233  0.3536 -0.1870  0.2777
10578W        W25709   1.940  14.525   1.086 -0.1640 -0.0550 -0.0200
10579W        W25710  10.406  12.773   1.245  0.3390 -0.0416  0.2288
10580W        W25711   4.825  10.837  14.617 -0.0403  0.1274  0.2189
10581W        W25712   7.470   1.176  14.531 -0.1565  0.0628 -0.0572
10582W        W25713  15.472   3.381   3.983 -0.1596  0.0701 -0.2112
10583W        W25714   3.032   3.894   5.122  0.1285 -0.1741  0.0386
10584W        W25715   3.959   1.747   4.619 -0.2723  0.0776 -0.0804
10585W        W25716  15.874   6.791   3.799  0.2622  0.0219  0.0756
10586W        W25717  15.573   5.916  15.614 -0.0743 -0.1121 -0.1037
10587W        W25718  13.950   1.515  12.620 -0.1143  0.2468  0.0704
10588W        W25719  12.598  14.306  12.308  0.4193 -0.1573  0.0381
10589W        W25720   0.716   3.389  11.679  0.3737  0.0134  0.2392
10590W        W25721   1.369   8.307   4.479  0.1230 -0.0736 -0.2505
10591W        W25722  12.213   2.710   2.190 -0.0922 -0.1200  0.3417
10592W        W25723   3.335   8.240   0.890  0.0437  0.0586 -0.0794
10593W        W25724  17.468   5.275   2.334  0.1211  0.4709 -0.3252
10594W        W25725   0.563   0.015   5.240  0.1317  0.0859  0.0543
10595W        W25726  17.519  14.800   0.968 -0.0928  0.0091  0.0365
10596W        W25727  12.480   9.045  13.624 -0.0893  0.0161 -0.0824
10597W        W25728   4.866  10.563  12.517  0.3920  0.1760  0.1742
10598W        W25729   5.697   4.801  11.055  0.0924 -0.1471 -0.0204
10599W        W25730   6.349  15.371   4.873  0.2122  0.1409  0.1657
10600W        W25731   9.265  15.498   5.525 -0.1699  0.1562 -0.0033
10601W        W25732  11.096  15.901  15.048  0.2630 -0.0805 -0.1909
10602W        W25733  14.941  17.344  14.693 -0.0982 -0.0148 -0.2469
10603W        W25734   4.733  11.673  10.891 -0.0293  0.0244  0.3904
10604W        W25735   0.351   1.897  11.236 -0.0976 -0.1099 -0.1812
10605W        W25736   6.811  10.241  13.067  0.2769 -0.0527  0.0300
10606W        W25737   4.221   7.281   1.630  0.1396  0.1884  0.0553
10607W        W25738  15.401  10.989   5.146 -0.0421 -0.0957 -0.0629
10608W        W25739  11.689   9.361   0.731  0.0343  0.0670 -0.3314
10609W        W25740   1.480  13.896   5.128 -0.0011 -0.0671 -0.1616
10610W        W25741  11.450   9.342  15.439 -0.0678 -0.0726 -0.2669
10611W        W25742   3.454   5.651   2.008  0.2867 -0.0718  0.3397
10612W        W25743   5.577   3.583   5.277 -0.0414 -0.1332  0.2016
10613W        W25744   4.765  11.742   0.726  0.1649 -0.1988  0.1516
10614W        W25745   0.352   5.713  14.287 -0.1692  0.1652  0.3831
10615W        W25746   6.447  17.956  15.949  0.1614 -0.1677  0.1985
10616W        W25747   8.178   6.754  15.119 -0.0090  0.0583 -0.0353
10617W        W25748  10.973   0.461  13.928 -0.0479  0.0041 -0.2150
10618W        W25749  16.759   2.389  14.959 -0.0245 -0.0529 -0.1917
10619W        W25750   1.766   9.189   1.358  0.1522  0.3369 -0.3390
10620W        W25751   1.844   6.358  13.699 -0.0050  0.0184  0.2563
10621W        W25752   8.846   8.463  14.581 -0.0196  0.1314 -0.0489
10622W        W25753   4.969  11.188  13.846  0.0002 -0.0690 -0.1331
10623W        W25754   8.154   5.829  11.943  0.0037 -0.0271 -0.1090
10624W        W25755  14.566  15.511  14.227  0.2791  0.0892 -0.1703
10625W        W25756  11.661  17.858  14.297 -0.2698 -0.2690 -0.1248
10626W        W25757   4.080  11.301   1.068 -0.2264  0.0671  0.0419
10627W        W25758   5.757   0.817   5.059 -0.2529 -0.1491  0.0409
10628W        W25759  10.344  16.079   3.949 -0.2230 -0.0152 -0.1853
10629W        W25760   9.444   6.079  15.537 -0.1326  0.0042  0.0315
10630W        W25761   8.984  11.638  15.947  0.0797  0.2129  0.2855
10631W        W25762   1.685   6.135  15.114 -0.0832 -0.3704  0.2649
10632W        W25763   6.404  16.877  12.712 -0.0321 -0.0250 -0.1729
10633W        W25764  11.447   2.885  14.209 -0.2243  0.1277 -0.4128
10634W        W25765  13.269   3.910   5.469 -0.2919 -0.2432  0.0834
10635W        W25766  11.280   0.269   1.817  0.0329  0.3018  0.3453
10636W        W25767   3.831   3.571  11.380  0.0190  0.0198 -0.1189
10637W        W25768   4.985  15.750   4.506 -0.0585  0.1420 -0.1314
10638W        W25769   7.477   2.561   5.744 -0.3181 -0.0912 -0.0739
10639W        W25770   1.380   8.177  13.323 -0.0062 -0.2277 -0.0425
10640W        W25771   7.816  11.937  15.303 -0.3204 -0.3006  0.1414
10641W        W25772   8.863  17.129   3.052 -0.2310 -0.0192 -0.0121
10642W        W25773   5.602   6.601  10.995  0.0795  0.0542 -0.0520
10643W        W25774   1.172   0.099   0.704 -0.0739 -0.4373 -0.2596
10644W        W25775   2.875   0.974  14.680 -0.1868 -0.0688 -0.3354
10645W        W25776   8.201   2.383   2.521  0.3876  0.1026  0.1218
10646W        W25777  10.426  17.426   4.115 -0.0160 -0.1117 -0.0327
10647W        W25778  13.986   7.886   4.971 -0.0011  0.0293 -0.3038
10648W        W25779   2.411   7.734  14.756  0.1424  0.1718  0.0768
10649W        W25780   3.420   4.107   5.417  0.0856  0.0264 -0.4413
10650W        W25781  17.511   1.939  13.331 -0.3795  0.0969 -0.0800
10651W        W25782  14.437  12.138  15.267 -0.0316 -0.0304  0.1738
10652W        W25783   3.942  14.972  15.264 -0.0550  0.1741 -0.0049
10653W        W25784  15.533   9.280   5.542 -0.0991 -0.1252  0.0161
10654W        W25785  14.990  17.203  15.188  0.1537 -0.3990 -0.0788
10655W        W25786   7.440   9.502   1.312  0.0125  0.0421  0.0888
10656W        W25787   4.830   8.447  15.990  0.0340 -0.0531 -0.4656
10657W        W25788  13.031  14.629   2.692 -0.0999  0.0654  0.1171
10658W        W25789  15.016   9.524  14.407  0.0470  0.1504 -0.1354
10659W        W25790   4.260  13.173  10.243  0.2305  0.2474  0.0319
10660W        W25791   6.836  14.596  16.068 -0.1473  0.1403 -0.0209
10661W        W25792  17.970  16.170  12.253 -0.0682 -0.1532 -0.0442
10662W        W25793  14.366  17.502   4.727 -0.1421  0.4320 -0.2218
10663W        W25794   4.447   5.908   0.220 -0.3117  0.0696 -0.1580
10664W        W25795  14.620   3.307   1.577  0.1337  0.0709  0.1228
10665W        W25796   8.375   8.886   2.264  0.0931  0.3128 -0.0686
10666W        W25797   1.733  11.974   4.685 -0.3905 -0.1984 -0.1300
10667W        W25798  10.558  16.593   1.227  0.1729  0.1378  0.0328
10668W        W25799   6.106  16.180   3.945 -0.1986 -0.1885  0.0491
10669W        W25800   1.083   0.915  15.694 -0.0175 -0.0556 -0.0100
10670W        W25801   4.825  17.929   2.230 -0.0852  0.0004 -0.0891
10671W        W25802   9.474   5.054  12.925  0.3175  0.0157  0.1225
10672W        W25803   2.928   2.999  12.855  0.0849 -0.2004 -0.1200
10673W        W25804  11.277  15.877   4.632 -0.1107 -0.1802  0.1672
10674W        W25805  17.200   6.727  11.565 -0.0775 -0.0161 -0.3956
10675W        W25806  14.012   6.078  14.069  0.1828 -0.0005 -0.0176
10676W        W25807   5.066  13.557   3.291  0.1225 -0.0665 -0.1030
10677W        W25808  10.538   2.925   3.606  0.0340  0.0926 -0.0730
10678W        W25809  17.209  10.147  10.495  0.2781 -0.0623  0.0310
10679W        W25810   6.716  13.998  10.922 -0.0063 -0.1185 -0.1930
10680W        W25811  14.346  14.221   4.779  0.0849  0.2061 -0.0257
10681W        W25812  13.558  15.378  14.736  0.1584  0.1267  0.0929
10682W        W25813  14.173   6.953  15.422 -0.1221  0.0398 -0.3842
10683W        W25814  11.249  13.398   2.261  0.0034 -0.1040  0.0546
10684W        W25815  16.415   0.982   0.830 -0.0047 -0.0836  0.2202
10685W        W25816  11.346   7.587  15.150 -0.0568 -0.0232  0.0889
10686W        W25817  14.910   1.030  11.492  0.0797 -0.0547  0.2392
10687W        W25818   4.585  10.753  12.060  0.1461 -0.0276  0.0170
10688W        W25819  10.135   0.579  12.725  0.1767  0.1665 -0.0309
10689W        W25820   8.690  17.412   3.929  0.2582 -0.2500  0.1240
10690W        W25821  13.279   2.810   3.713  0.0176  0.1545 -0.2036
10691W        W25822   7.389   4.524  15.984 -0.0948 -0.0991 -0.0869
10692W        W25823  12.931  17.413  11.524 -0.1234 -0.2840  0.1892
10693W        W25824   6.240  16.388  13.330  0.2083  0.0963 -0.0352
10694W        W25825   1.833   8.496  12.594  0.1871 -0.0787  0.4738
10695W        W25826  17.021   8.065  15.426  0.0241  0.0929  0.0831
10696W        W25827   4.249   2.661  11.276  0.2104  0.2893 -0.2579
10697W        W25828   3.020  11.341  13.499 -0.3955 -0.0375 -0.0001
10698W        W25829   2.259   2.035  12.702  0.1608 -0.3477 -0.0322
10699W        W25830  14.353   0.383   5.391  0.1155 -0.1308  0.0533
10700W        W25831   9.980  10.476  11.390 -0.1430 -0.0065 -0.0287
10701W        W25832  15.686   8.578   4.708  0.0479  0.2827 -0.1121
10702W        W25833   8.676  18.138   1.670 -0.2700 -0.0180 -0.1920
10703W        W25834  13.794   4.836  13.427 -0.2039 -0.2066 -0.0146
10704W        W25835   5.368  14.606   0.949 -0.0949  0.3969  0.0408
10705W        W25836  13.997   3.966   5.906 -0.1242 -0.1778 -0.0633
10706W        W25837  10.365   9.081   3.012  0.2120  0.2560 -0.0843
10707W        W25838  12.309   6.196  13.237 -0.0221  0.0374  0.0124
10708W        W25839   4.011   9.116   1.738  0.0201 -0.1388  0.0043
10709W        W25840  12.485  11.892   5.665  0.2980  0.0925 -0.2100
10710W        W25841  12.569  16.631  12.376  0.1170 -0.0327  0.1807
10711W        W25842  15.653   7.069   4.938 -0.1756 -0.0345 -0.2046
10712W        W25843   8.792   2.668  14.014 -0.3328 -0.1732  0.2356
10713W        W25844  11.700  16.959  14.507  0.2562  0.0477 -0.0766
10714W        W25845  14.720  12.236   2.931  0.0708  0.0324  0.1885
10715W        W25846  14.964   7.526  13.261 -0.1481 -0.1067 -0.0423
10716W        W25847   5.016  10.325  10.979  0.1688  0.0753 -0.1808
10717W        W25848   3.252   3.714   0.523  0.0964  0.2414 -0.0092
10718W        W25849   7.577   1.055   1.473 -0.0261 -0.1575 -0.0239
10719W        W25850  14.319   9.923  11.024 -0.0140  0.2139 -0.1764
10720W        W25851  16.740   6.739  13.178 -0.0525  0.1296 -0.0265
10721W        W25852  17.802   4.980   2.104  0.0173 -0.0651 -0.3378
10722W        W25853  14.744  13.594   5.350  0.0933 -0.1126  0.0590
10723W        W25854   5.751  13.907   0.867  0.1338  0.4369  0.4528
10724W        W25855  15.050   8.441   3.461  0.2220 -0.4674  0.2259
10725W        W25856   2.377   5.073   1.984 -0.1533 -0.2533  0.0348
10726W        W25857  16.307   4.135   5.184  0.1359  0.0624  0.1228
10727W        W25858  11.736   1.358  14.482  0.3275 -0.3033 -0.3424
10728W        W25859  16.880   0.801  15.122  0.1983  0.2180  0.0234
10729W        W25860  16.205  15.056   4.558  0.2242 -0.0692 -0.0749
10730W        W25861  11.061   5.466   4.233 -0.1864 -0.0494  0.1305
10731W        W25862   0.318  16.091  14.166 -0.1197  0.1089  0.0109
10732W        W25863  11.943  15.867  11.197  0.0780  0.0830 -0.2414
10733W        W25864  10.511   6.899  11.038 -0.1463  0.3364 -0.3962
10734W        W25865  16.345  12.490   1.497  0.0802 -0.0536 -0.1694
10735W        W25866   3.366  14.409   3.855  0.4055  0.2420  0.0070
10736W        W25867  10.101  12.450   0.499  0.2337 -0.0754  0.1169
10737W        W25868   0.569   2.902   4.580 -0.0397  0.0980 -0.1007
10738W        W25869  14.749   4.867  12.855 -0.1712 -0.1600 -0.1878
10739W        W25870  18.019   4.399   4.746 -0.2051  0.2297 -0.1510
10740W        W25871   8.409  17.332  16.176  0.0182  0.3295 -0.0007
10741W        W25872   9.487  16.603   4.691  0.0758 -0.1741  0.2746
10742W        W25873  14.454  10.102  14.066 -0.0479 -0.1125 -0.2953
10743W        W25874  12.096  17.483  12.912 -0.1472  0.0841  0.0984
10744W        W25875   6.679  11.081  10.495  0.2291  0.1718  0.0957
10745W        W25876  13.638   7.284  16.162  0.1079  0.0793  0.0542
10746W        W25877  14.810  11.020  11.814  0.2275 -0.1502  0.0501
10747W        W25878   4.392   8.192  16.067 -0.2712 -0.2204 -0.3546
10748W        W25879   9.712  14.007  15.682 -0.3819  0.1037 -0.0153
10749W        W25880  17.166   8.457  14.119 -0.0754 -0.0749 -0.0203
10750W        W25881  17.547   4.131  13.288 -0.0067 -0.1104  0.2253
10751W        W25882  17.421  11.140   4.207 -0.1767  0.3098 -0.1800
10752W        W25883  14.970  17.044   5.548 -0.0662  0.1209 -0.1196
10753W        W25884   4.917   1.441   0.101 -0.2584 -0.0868 -0.0730
10754W        W25885   2.533  12.267  15.647 -0.0738 -0.1429 -0.0942
10755W        W25886   3.115   8.592  12.852  0.1760  0.0208 -0.0066
10756W        W25887   9.002   3.276   5.269  0.3763  0.1375  0.0063
10757W        W25888  17.349  10.866   1.468  0.1258 -0.1159  0.0236
10758W        W25889   2.171  10.436  12.571  0.1669  0.2736 -0.0010
10759W        W25890   8.235  15.499   1.543 -0.1737  0.3546  0.0518
10760W        W25891  13.845   8.678  12.218  0.0583  0.1577  0.1287
10761W        W25892   4.718   7.569  12.129  0.0629  0.2490  0.1688
10762W        W25893   7.568  12.222   1.924  0.1880 -0.0786 -0.0757
10763W        W25894  16.810  17.671   1.178  0.0831  0.0836 -0.1293
10764W        W25895   6.747   2.583   1.234  0.0507 -0.1628  0.1218
10765W        W25896  15.794   9.181  13.295 -0.0334  0.0791 -0.1755
10766W        W25897  15.416  16.201   4.271 -0.0732 -0.3303 -0.2839
10767W        W25898  15.670  10.862  11.439 -0.3228  0.0877 -0.2594
10768W        W25899   7.126  15.083   0.696 -0.0930  0.1076  0.1427
10769W        W25900   5.249  14.611  15.815 -0.0292  0.2097 -0.3812
10770W        W25901  12.067   2.984  11.397  0.0125 -0.1883  0.0778
10771W        W25902  14.744   3.481   2.593 -0.0375  0.3490 -0.2631
10772W        W25903  11.264  16.554   3.100  0.0174  0.1351 -0.2413
10773W        W25904   4.439   1.048  11.871  0.1596  0.1783  0.1237
10774W        W25905   7.986   3.847   3.341 -0.1744 -0.2642  0.1266
10775W        W25906  15.705   2.056   3.528  0.3962  0.0394  0.2838
10776W        W25907   8.952   2.746   4.396  0.4565  0.0005 -0.2025
10777W        W25908   6.241   7.863  11.061  0.0981 -0.0983 -0.3276
10778W        W25909   7.296   1.329  11.498 -0.0111  0.0012 -0.2074
10779W        W25910  13.599   4.148   0.787 -0.1270  0.0386 -0.0643
10780W        W25911  11.685   9.605   5.450  0.1033 -0.3134 -0.0573
10781W        W25912   0.582   7.190  13.984  0.0563 -0.0410  0.2857
10782W        W25913  10.985   5.424  16.138 -0.1667 -0.3387  0.3935
10783W        W25914  15.452  10.439   1.750 -0.0697 -0.0269 -0.0481
10784W        W25915   0.001  14.645   4.882 -0.0121  0.0457  0.3001
10785W        W25916   2.095  12.318  10.093  0.1664 -0.1507  0.3816
10786W        W25917  10.019   4.422   2.571  0.0544  0.2011 -0.0277
10787W        W25918  14.907   1.702   5.531 -0.2191  0.1466 -0.1444
10788W        W25919  14.804  14.897   5.974 -0.1484 -0.2372  0.1957
10789W        W25920   0.971   2.814  13.428  0.1651  0.5659 -0.2110
10790W        W25921  11.263   5.431   0.455 -0.1329 -0.0650  0.0164
10791W        W25922  16.074  10.258   3.122 -0.0361  0.1659 -0.0502
10792W        W25923   7.216   1.864   0.904 -0.0227 -0.0864 -0.0421
10793W        W25924  17.384  16.257  14.519  0.0160 -0.0810  0.2441
10794W        W25925  16.848  12.584  10.766  0.2655 -0.0226 -0.1725
10795W        W25926   6.187  13.764  11.974 -0.0893 -0.0754  0.1266
10796W        W25927   4.973   9.778   0.790 -0.3523 -0.2613  0.2535
10797W        W25928   5.615   4.145   2.602  0.3897 -0.0533 -0.1167
10798W        W25929   1.918   7.727  12.990  0.4229  0.1078 -0.2102
10799W        W25930   8.001  10.903   0.799  0.0672 -0.0188 -0.1544
10800W        W25931   8.333  13.835  12.138 -0.0085  0.0643  0.1589
10801W        W25932  12.269  16.336  12.743  0.1303  0.2117  0.2060
10802W        W25933   0.676   1.067  15.427  0.0099  0.0334 -0.1796
10803W        W25934  18.085  12.633  15.011 -0.2015  0.3655  0.3328
10804W        W25935   6.583  16.789   3.956  0.1032 -0.0210 -0.1563
10805W        W25936   0.712   8.562   5.775 -0.1653 -0.0084 -0.2749
10806W        W25937  14.125  17.103   2.306  0.1710 -0.1741  0.0997
10807W        W25938   1.371   8.927   3.882 -0.0264 -0.2897 -0.0313
10808W        W25939  12.889  16.153  12.217  0.0778 -0.0563  0.1012
10809W        W25940   8.259   0.507   3.518  0.0689 -0.1837 -0.0068
10810W        W25941  13.790   0.877  16.023  0.0020 -0.1551 -0.1520
10811W        W25942   1.874  10.842  10.774 -0.0482 -0.0189  0.0353
10812W        W25943  12.557  15.471  13.929 -0.0911  0.4187 -0.4585
10813W        W25944   9.117   2.299  14.245 -0.2177 -0.2818  0.1272
10814W        W25945   4.191  13.399  15.995 -0.2853 -0.2648  0.0050
10815W        W25946   0.334   0.415  12.192  0.2301 -0.1048  0.1099
10816W        W25947  11.064  14.341   3.736  0.2452 -0.1879 -0.0911
10817W        W25948   0.540  12.531   1.380 -0.0576  0.2017  0.2059
10818W        W25949   2.891   7.945   1.825  0.2082  0.0550 -0.1839
10819W        W25950   3.134   1.805   3.939 -0.0030  0.1237 -0.0366
10820W        W25951  15.162   9.060   5.221  0.2795  0.0931  0.0451
10821W        W25952  17.900   5.847  14.333  0.0697  0.0646  0.3252
10822W        W25953  16.629   0.345   0.892  0.0937 -0.1442 -0.3443
10823W        W25954   7.947   3.616   6.267 -0.2340 -0.4765 -0.0553
10824W        W25955  15.833  13.910   2.128 -0.1463  0.0915  0.2266
10825W        W25956  11.783   4.470   0.494  0.1610  0.3686  0.1336
10826W        W25957  12.450   6.874   2.200  0.0860  0.1918 -0.1265
10827W        W25958   4.430  17.762  13.481  0.0895  0.0361 -0.0571
10828W        W25959  15.449   4.488   5.665 -0.0140  0.3606  0.1048
10829W        W25960  16.925   9.722  14.669  0.0229  0.1382  0.2047
10830W        W25961  16.780  13.732   3.767 -0.1136 -0.0134  0.1742
10831W        W25962  13.163   6.221   1.396  0.1472 -0.0492  0.2427
10832W        W25963   8.170  12.243  15.476 -0.1477  0.2265  0.0627
10833W        W25964  15.834   7.170   0.035  0.3004 -0.3795  0.0637
10834W        W25965   1.945   0.474   2.560  0.2783  0.2089 -0.1010
10835W        W25966  11.991   2.357   4.827  0.0227 -0.1969 -0.0965
10836W        W25967  16.260  13.190   4.291  0.0228 -0.0542  0.0978
10837W        W25968   3.380  14.812  15.204  0.0510 -0.0093 -0.1244
10838W        W25969   9.802   3.620   0.835  0.3469  0.1744 -0.2345
10839W        W25970   8.711   9.621   1.044 -0.1271  0.0854 -0.0576
10840W        W25971   3.001  13.957  13.441 -0.1477 -0.1592  0.0263
10841W        W25972   1.136   8.097   3.074  0.1618 -0.2310  0.0323
10842W        W25973  11.536  14.849  14.259  0.0400 -0.3886  0.1308
10843W        W25974   8.833  12.126  16.199  0.0934  0.1011  0.0048
10844W        W25975   2.579  12.974   1.883 -0.0696  0.5103 -0.1009
10845W        W25976   1.702  14.524   2.752 -0.1975 -0.1240  0.2798
10846W        W25977   7.135   6.586   4.865  0.1077 -0.2209 -0.0711
10847W        W25978   6.984  17.775   4.337  0.0495 -0.3386 -0.0128
10848W        W25979  16.832  13.869   5.682 -0.1161 -0.4204  0.3424
10849W        W25980  16.203  13.027  13.873  0.2168  0.1217 -0.1066
10850W        W25981   9.289  10.324   3.305 -0.0382  0.1362 -0.1518
10851W        W25982   0.095  13.037  12.557  0.1869  0.1476 -0.1768
10852W        W25983   7.088  11.644  15.534  0.0804  0.1841  0.0150
10853W        W25984   5.376   6.008   3.898 -0.0757  0.0168  0.0248
10854W        W25985  16.059   9.735  13.313 -0.1782 -0.2464  0.3461
10855W        W25986  10.759  11.606  12.608 -0.3885  0.1346 -0.2432
10856W        W25987  13.692  15.195   1.137  0.2080 -0.2535  0.0118
10857W        W25988  13.637   1.133   4.512 -0.0400 -0.0654  0.1171
10858W        W25989   4.853   3.353  11.294  0.1791  0.1643 -0.1463
10859W        W25990  10.571   1.359  14.103  0.1016  0.0882 -0.0826
10860W        W25991   6.574  14.732  15.179  0.4201 -0.0450  0.0992
10861W        W25992  16.106  12.887  15.924 -0.0773 -0.0310 -0.1762
10862W        W25993   4.151  16.840   1.969  0.0351 -0.0897  0.2615
10863W        W25994   0.395   7.962  15.494  0.0666 -0.1000  0.1777
10864W        W25995   1.742  16.587   2.126  0.2442  0.1822 -0.1698
10865W        W25996   0.445   3.261   0.675 -0.2526 -0.0557 -0.2476
10866W        W25997   6.525  15.473  13.913 -0.0205  0.2681 -0.0191
10867W        W25998  15.942   0.836   2.572  0.0448  0.0330 -0.0987
10868W        W25999   9.891  15.591   1.340  0.1030  0.0625 -0.1845
10869W        W26000  17.066   6.049  15.782  0.1631  0.1030 -0.0461
10870W        W26001   2.478   2.943  15.351 -0.0160 -0.3450  0.0963
10871W        W26002  10.969   1.710  13.273 -0.0705  0.0741 -0.2869
10872W        W26003  12.719   7.529  14.950  0.1715 -0.1397 -0.2281
10873W        W26004   7.550  13.480   2.018 -0.1548  0.1567  0.1076
10874W        W26005   1.985   6.740   2.896 -0.0597 -0.0981  0.0638
10875W        W26006  11.005   5.024   1.057  0.1383  0.0767 -0.0743
10876W        W26007  13.552  15.028  12.529 -0.1799  0.0403  0.0145
10877W        W26008  16.611   1.994   0.442  0.1730 -0.5681 -0.1352
10878W        W26009  16.396  16.960   3.546 -0.3307 -0.2241 -0.1762
10879W        W26010  15.766   2.042  12.180  0.2574 -0.3045  0.1080
10880W        W26011   2.163   1.538   2.174  0.0287  0.0493  0.1653
10881W        W26012   6.739   9.670  13.980 -0.1944  0.0614  0.1108
10882W        W26013  11.876   0.898   9.947  0.3479 -0.1736 -0.1319
10883W        W26014   0.179  15.878  14.583 -0.0658 -0.0655  0.0415
10884W        W26015   0.716  11.991   2.281 -0.1315  0.0339  0.1334
10885W        W26016   2.998   2.237   3.558  0.0840 -0.1522  0.1941
10886W        W26017   2.003   8.333   4.968 -0.0747 -0.0519  0.1860
10887W        W26018  10.926   1.830   3.180  0.1214 -0.0004  0.1836
10888W        W26019   4.989   1.960  12.024 -0.2934 -0.1366 -0.2326
10889W        W26020   4.050   4.411   4.355 -0.1814  0.1363  0.1130
10890W        W26021  15.215  13.417  12.298 -0.1766 -0.1841 -0.1939
10891W        W26022   6.417  15.025  13.772 -0.1989  0.1501  0.1203
10892W        W26023   3.404  17.107  15.977 -0.0397  0.2995  0.3568
10893W        W26024  14.956   8.023  15.223 -0.1102  0.1802  0.0907
10894W        W26025   9.468  12.846  12.465 -0.1984  0.0844 -0.1338
10895W        W26026  15.375  11.510   4.413 -0.0003  0.1847 -0.1334
10896W        W26027  15.834  13.424   4.118  0.0143 -0.3020  0.1504
10897W        W26028   2.765  10.030  11.756  0.3035 -0.0212 -0.1602
10898W        W26029   3.796   8.233  10.526 -0.1684 -0.0493 -0.0359
10899W        W26030   0.902  15.497  15.909 -0.2214 -0.2124  0.0827
10900W        W26031   3.102  14.239   4.317  0.1266 -0.0354 -0.1260
10901W        W26032  17.243   1.112   5.992  0.1074 -0.1308  0.0552
10902W        W26033   3.152   7.677   5.605  0.1677 -0.1230 -0.1557
10903W        W26034   5.474   0.721   0.623  0.2620  0.0936 -0.2536
10904W        W26035  16.922   8.769   2.663 -0.2268 -0.1494 -0.0999
10905W        W26036  13.021   9.378   2.625  0.0799  0.1743 -0.0622
10906W        W26037  11.223  12.081   0.122 -0.0657  0.0689 -0.0433
10907W        W26038  13.762   3.560  15.875  0.1940  0.0591  0.0027
10908W        W26039   0.737  10.190   3.806 -0.0367 -0.1708 -0.2214
10909W        W26040  12.003  12.191  15.244  0.1379  0.3151 -0.3045
10910W        W26041  10.958  16.664  10.682 -0.1161 -0.3427  0.5039
10911W        W26042   8.130  12.453   5.716  0.0120 -0.3713  0.0371
10912W        W26043   9.808  17.124  15.454  0.0311 -0.1444  0.2062
10913W        W26044   7.437   1.924   1.583 -0.0041  0.0474 -0.1696
10914W        W26045   7.646  16.348  14.012  0.0955  0.2093  0.0395
10915W        W26046   7.448   5.028  16.029  0.0371  0.1149 -0.0942
10916W        W26047  13.292  16.191  11.565  0.3178 -0.0962  0.2005
10917W        W26048  17.348  16.657  14.884  0.3067  0.0421 -0.2669
10918W        W26049  12.341   0.324   1.493 -0.0203  0.0284  0.2328
10919W        W26050   9.685   0.829   3.591 -0.1085 -0.0955 -0.0824
10920W        W26051  15.417  13.840  13.816  0.0573  0.1812  0.2212
10921W        W26052  14.315  14.119  14.633 -0.0985  0.0722  0.3113
10922W        W26053  11.666  11.081  11.400  0.2722 -0.1794  0.0269
10923W        W26054  18.017   4.295  15.346  0.0405  0.3414 -0.2219
10924W        W26055   6.124   6.605   5.045 -0.2461  0.0925  0.0596
10925W        W26056   0.845   5.666  16.202  0.0805 -0.2238 -0.2030
10926W        W26057   5.483  15.454  14.554 -0.0862 -0.2206  0.1388
10927W        W26058   5.923   3.634  12.934  0.0878 -0.1390  0.0090
10928W        W26059  12.610   2.957   1.247 -0.4890 -0.0231  0.1037
10929W        W26060  14.402   3.262   4.869  0.0917 -0.1596 -0.0689
10930W        W26061   8.662  12.745   2.020 -0.1743 -0.2120 -0.0770
10931W        W26062   3.603  14.946  12.052 -0.1422  0.1345 -0.0942
10932W        W26063  13.664   1.151   0.243 -0.2234  0.0985 -0.0414
10933W        W26064  14.740   4.792   4.982 -0.0998 -0.0258  0.1685
10934W        W26065   4.622   7.896   1.120  0.0664  0.1189  0.0572
10935W        W26066  16.883  13.455  13.991  0.1139 -0.0345  0.0201
10936W        W26067  13.077  18.085   3.490 -0.2639 -0.1743  0.2664
10937W        W26068   7.669  10.766   0.002 -0.1542  0.1209  0.0898
10938W        W26069   0.745  14.900  12.116 -0.0585  0.2585 -0.1079
10939W        W26070   3.875  12.183  10.309 -0.1115 -0.2367  0.1921
10940W        W26071  15.881   2.627   2.006  0.0322 -0.0087  0.3787
10941W        W26072  16.395  12.937   4.719 -0.2081  0.2223  0.0992
10942W        W26073  10.101   1.432  16.048 -0.5862 -0.0877 -0.0961
10943W        W26074  16.607   6.712   5.626  0.0185 -0.0075 -0.3198
10944W        W26075   9.195  17.288   3.454 -0.2027  0.1499 -0.2534
10945W        W26076   2.966  16.568  11.219  0.0178  0.0409 -0.0226
10946W        W26077  17.360  11.880   4.980  0.2199 -0.1069  0.2319
10947W        W26078   3.221   6.271  14.255  0.1851 -0.1107  0.2468
10948W        W26079   2.737  15.486  14.910 -0.2890  0.2392  0.0894
10949W        W26080  14.037   6.775   4.699 -0.1346  0.1524  0.2511
10950W        W26081   5.848  10.946   4.176 -0.0939 -0.2616  0.1577
10951W        W26082   9.588  13.047   0.747  0.0989 -0.0300  0.1014
10952W        W26083   9.838  13.361  14.539  0.0430 -0.2028 -0.1511
10953W        W26084  16.923  12.102   3.631  0.1592 -0.0368  0.2031
10954W        W26085  17.540  14.059   4.993  0.2629 -0.0271  0.2070
10955W        W26086  11.577  17.035   6.273  0.0326  0.0247  0.0608
10956W        W26087   8.583  17.889   3.722 -0.2202  0.0328 -0.1789
10957W        W26088  15.794  17.647   0.944 -0.2342  0.0565  0.1837
10958W        W26089   4.782  12.059  11.164 -0.0288 -0.1920  0.0238
10959W        W26090  13.089   6.800  11.109  0.1899  0.3022 -0.1847
10960W        W26091  17.649  15.044   3.303 -0.1790 -0.2854  0.4295
10961W        W26092   2.520  10.620  13.919  0.1843  0.0576 -0.0266
10962W        W26093  11.458   6.237   5.425  0.1139  0.1900 -0.0100
10963W        W26094   1.476   7.224   1.483 -0.1243  0.4315 -0.2952
10964W        W26095  10.772   5.118   1.655 -0.0849 -0.2081  0.0630
10965W        W26096   6.636  17.680  11.269 -0.2996  0.1768  0.1253
10966W        W26097  10.020   8.219  13.277 -0.0266 -0.0863  0.1501
10967W        W26098   1.157   1.307  11.497  0.0584  0.0717 -0.3364
10968W        W26099  17.430   1.539  15.501 -0.0726  0.1517  0.0956
10969W        W26100   6.543   2.324  14.099  0.1124 -0.0124  0.3421
10970W        W26101  14.239   4.373  15.879 -0.4299 -0.1289  0.0025
10971W        W26102  13.974   8.495   1.037  0.2452  0.1489 -0.0248
10972W        W26103  15.441  11.008   4.154 -0.1568  0.1492  0.2384
10973W        W26104   5.965   8.664  11.430  0.3796 -0.1317 -0.1961
10974W        W26105   9.653   7.279   2.687  0.1485  0.0862 -0.1369
10975W        W26106  16.290   2.880   0.679  0.0986  0.2096  0.2141
10976W        W26107  16.590  13.615   6.611  0.0506  0.0599 -0.0335
10977W        W26108   5.970  16.520  12.705  0.1706  0.3060 -0.1760
10978W        W26109   6.330   8.506  12.265  0.0062 -0.1288 -0.2106
10979W        W26110  13.030  17.224   3.947  0.0287 -0.1459 -0.1046
10980W        W26111  12.732  15.645  12.315 -0.0921  0.1428  0.0802
10981W        W26112   7.832   5.936  14.970 -0.1304  0.3221  0.2273
10982W        W26113   1.690  10.895   1.218 -0.4218  0.0381 -0.0644
10983W        W26114   8.842  13.293   2.842  0.0988  0.1530  0.0089
10984W        W26115  18.061  14.774   2.529  0.0382 -0.0065  0.1814
10985W        W26116   1.398   4.093  11.469  0.0676  0.0595 -0.3190
10986W        W26117   5.423  10.792  12.944 -0.1839 -0.1783  0.0200
10987W        W26118  13.298   7.733  12.202  0.1298  0.1027  0.1476
10988W        W26119   7.613   7.356  10.766 -0.0215 -0.1396 -0.0031
10989W        W26120   8.307  12.595   2.328 -0.0809  0.1372 -0.0441
10990W        W26121   7.443   6.020  15.805  0.3452 -0.1915 -0.1328
10991W        W26122   7.401   2.154  11.486 -0.2220 -0.1077 -0.3481
10992W        W26123  14.755   8.450  15.317 -0.1442  0.0521 -0.2062
10993W        W26124  15.883  12.468  12.270 -0.1269 -0.1991 -0.0490
10994W        W26125   3.915  14.761  11.392 -0.1898 -0.3151 -0.1868
10995W        W26126  10.993   7.041  12.036 -0.0933 -0.0201 -0.1105
10996W        W26127   2.389   0.176   0.762 -0.1063 -0.0821  0.1408
10997W        W26128   2.499  14.539  12.712  0.2344  0.0401 -0.0504
10998W        W26129   7.652  10.318  12.272 -0.2681 -0.3775 -0.1130
10999W        W26130   0.410  10.374  15.072  0.2023 -0.0646 -0.2922
11000W        W26131  17.149  17.215  10.963  0.1900 -0.1330 -0.1057
11001W        W26132   7.525   3.680   0.713 -0.2785  0.1486 -0.0184
11002W        W26133   4.640  11.795   3.912  0.0416  0.1663 -0.0363
11003W        W26134   8.431   7.596  15.709  0.1125 -0.0295 -0.2436
11004W        W26135   6.748   1.047   1.014 -0.1073 -0.1649  0.0561
11005W        W26136   2.096   0.229  13.979  0.1694 -0.0303  0.0079
11006W        W26137   1.519  16.537   3.658 -0.0300  0.0440 -0.1130
11007W        W26138   2.941   7.198   0.443  0.2319 -0.0290  0.1949
11008W        W26139  16.941  10.573   5.790  0.1727  0.2416 -0.3465
11009W        W26140   1.531   1.096   4.758 -0.0474 -0.0599 -0.2068
11010W        W26141   2.003   8.556  11.860 -0.0555  0.2485 -0.2821
11011W        W26142   5.223  14.333   0.521  0.1536 -0.0667  0.0152
11012W        W26143  16.386   2.051  11.430  0.3787  0.1879  0.0519
11013W        W26144   9.525   7.439   4.450  0.2792 -0.1254 -0.0101
11014W        W26145  17.085   1.827  12.122  0.0072  0.1988  0.0526
11015W        W26146  15.285  14.047   0.191 -0.0480  0.4233  0.0075
11016W        W26147  17.994  14.184   4.911  0.2727 -0.1329 -0.1421
11017W        W26148  10.540   3.207  15.681  0.0551  0.0526  0.1520
11018W        W26149   4.160   1.479  11.673  0.3477 -0.1953 -0.0449
11019W        W26150   9.062  10.557  12.326  0.1168 -0.1818 -0.2107
11020W        W26151   5.411   5.857   0.804 -0.3090 -0.2812 -0.1934
11021W        W26152  16.577   4.835  10.496 -0.1390 -0.1928 -0.1525
11022W        W26153   4.669   8.431  14.611 -0.0024 -0.0519 -0.3187
11023W        W26154   6.289   0.458   0.515 -0.0685 -0.0490 -0.1531
11024W        W26155  17.052  10.274   2.784  0.0106 -0.0412 -0.0142
11025W        W26156   4.687  18.148  12.058  0.0360 -0.2987 -0.0150
11026W        W26157  13.200   3.974  13.771 -0.0144 -0.1652  0.2373
11027W        W26158  17.773  12.462  10.779 -0.0376  0.0200 -0.0902
11028W        W26159  14.830  14.367  11.313 -0.1335  0.1889  0.1751
11029W        W26160  10.775  11.346  15.846 -0.1980  0.1640 -0.3571
11030W        W26161  12.323   8.126   5.635 -0.0776  0.2139  0.3609
11031W        W26162   2.994  10.840  16.055 -0.0251  0.0080 -0.2428
11032W        W26163   2.550   7.330   3.107 -0.0564 -0.0760  0.0747
11033W        W26164  18.177   9.651   3.551  0.0994 -0.1105  0.1217
11034W        W26165  14.082   4.922   5.500 -0.0461  0.1092 -0.1751
11035W        W26166   6.428   9.407  12.518  0.0274 -0.1173  0.0641
11036W        W26167   4.175   2.515  14.681 -0.0435 -0.1960 -0.1584
11037W        W26168   9.007  11.031   1.726  0.0235 -0.0701  0.1929
11038W        W26169  10.687   5.871  16.143  0.2399 -0.0681 -0.2532
11039W        W26170   5.141   1.118  13.766  0.2286 -0.2258  0.0155
11040W        W26171   5.250  13.017  10.567 -0.2099 -0.1523  0.2789
11041W        W26172   4.600   8.423   4.727  0.0357 -0.1715 -0.2776
11042W        W26173   2.567   9.856   1.696  0.0922  0.1597 -0.1840
11043W        W26174  11.037   4.269  12.441 -0.3705  0.2248  0.0233
11044W        W26175  11.252   9.434   5.313 -0.0162  0.0238 -0.2162
11045W        W26176  15.408  10.289   5.592 -0.1836  0.1259  0.2947
11046W        W26177   9.506   4.665   4.378  0.0313 -0.0424  0.0496
11047W        W26178  10.140   6.508   0.497  0.0008 -0.2733  0.0077
11048W        W26179  11.255  18.140   2.978  0.1898 -0.2299  0.3025
11049W        W26180   4.708  15.446  15.793 -0.1801 -0.0273 -0.0892
11050W        W26181  10.479  14.891   0.230 -0.0887 -0.0430  0.0028
11051W        W26182  16.693  11.913  14.262 -0.1893 -0.1193  0.2390
11052W        W26183  12.873   4.266   4.831  0.3677 -0.1756  0.2914
11053W        W26184   4.408  14.666  12.191  0.0597 -0.3432  0.0470
11054W        W26185  17.573  15.948  13.123 -0.0853 -0.0889 -0.3468
11055W        W26186  14.687  14.643  11.739  0.0579  0.4642  0.1242
11056W        W26187  11.072  13.704   0.963  0.1199 -0.1509  0.0932
11057W        W26188   9.574   3.812  15.374 -0.0073 -0.1334 -0.1500
11058W        W26189  12.449  11.377  14.447  0.0486  0.1270 -0.2973
11059W        W26190  16.531  14.692   1.804 -0.0185  0.2002  0.1937
11060W        W26191  14.927  16.732   2.723 -0.1064 -0.3387  0.1251
11061W        W26192  11.586  10.916   5.599 -0.1543  0.2395 -0.0635
11062W        W26193  10.711   0.344  13.031 -0.1784  0.0816 -0.0296
11063W        W26194   2.862  10.228  12.250  0.1549 -0.0845  0.0727
11064W        W26195   0.289   5.488   1.477 -0.0335 -0.0414 -0.1426
11065W        W26196   7.917   9.296   1.301 -0.3056  0.1732 -0.1081
11066W        W26197  17.705   6.299  12.354 -0.2165  0.2113  0.1334
11067W        W26198  12.311   9.589  14.386  0.2543  0.0813 -0.1450
11068W        W26199  12.077  13.983   0.575  0.0575 -0.0512  0.2692
11069W        W26200  14.216   1.994   2.956  0.2621  0.0267 -0.0925
11070W        W26201   6.198  11.249   0.788  0.0090 -0.0988 -0.1493
11071W        W26202  10.394   6.388  12.861  0.1373 -0.1356  0.0495
11072W        W26203   4.400  16.299   2.707  0.1940  0.3430  0.0397
11073W        W26204   6.834  15.250  13.521  0.2581  0.2685  0.0656
11074W        W26205   8.437  16.467  16.168  0.3229  0.2074  0.2728
11075W        W26206  14.164  11.864  12.133  0.3293  0.2494 -0.0609
11076W        W26207   7.524   4.220   3.160 -0.2310  0.1455 -0.2745
11077W        W26208  15.471  12.271  13.865  0.0163 -0.1352  0.0297
11078W        W26209  15.170  18.022   4.225 -0.0038  0.1198  0.1914
11079W        W26210   2.758   1.021   0.602  0.1203 -0.1394 -0.1794
11080W        W26211   4.225   2.962   1.965  0.0122 -0.2543 -0.1050
11081W        W26212   0.289   3.009  14.991  0.2546  0.1249  0.3437
11082W        W26213   3.011   4.668  14.532 -0.3601 -0.0253  0.0387
11083W        W26214   7.964   9.848  11.295  0.3129  0.1192  0.0559
11084W        W26215   1.819   2.727  12.572 -0.1781 -0.0819 -0.1274
11085W        W26216   9.045  15.949  15.840  0.0007 -0.0118 -0.1108
11086W        W26217  17.047   5.598   1.101  0.2075 -0.1320  0.0071
11087W        W26218   4.029  12.537   0.280  0.1219  0.0031 -0.3776
11088W        W26219  13.571   0.100  12.352  0.0876 -0.0893  0.0324
11089W        W26220   4.442  16.760  11.231  0.3377 -0.2684  0.0992
11090W        W26221  17.938  15.639   4.835  0.2187 -0.3336 -0.0197
11091W        W26222   4.533  11.267   0.882 -0.0543  0.1229 -0.1860
11092W        W26223  11.183  17.844  11.147 -0.1890  0.3022  0.1054
11093W        W26224   1.744   5.993   0.139  0.2031 -0.0923 -0.0657
11094W        W26225  16.281  15.462   1.228 -0.1255 -0.4583  0.2969
11095W        W26226  13.989  14.604   5.751 -0.2213  0.2511  0.0079
11096W        W26227   7.162   8.705   0.906 -0.0088  0.0174  0.2295
11097W        W26228  11.531   0.664  15.331 -0.1270 -0.0538  0.1146
11098W        W26229  17.344   9.303  15.651 -0.1201  0.2519 -0.3561
11099W        W26230  12.465   2.215   4.992 -0.0544 -0.0221  0.2326
11100W        W26231   5.492   7.348  12.837 -0.1106 -0.3546  0.4671
11101W        W26232   7.778   4.177   2.670 -0.1620 -0.0022 -0.2117
11102W        W26233  16.986  11.199  13.701 -0.2441  0.0172  0.3041
11103W        W26234  17.092   3.983  14.249 -0.1374  0.2294 -0.2350
11104W        W26235   5.489   6.970   1.847 -0.1671 -0.0515  0.2033
11105W        W26236  11.858  11.077  15.997 -0.1355  0.1472 -0.2514
11106W        W26237  13.232   5.118  13.264 -0.4078  0.0644 -0.1936
11107W        W26238   6.524  10.651  16.027  0.4940  0.1944  0.1522
11108W        W26239   1.262  14.496  14.764 -0.0310 -0.0356 -0.3515
11109W        W26240   5.850  10.481   2.315  0.3325 -0.1926 -0.0322
11110W        W26241   4.339   9.308   2.542 -0.1417  0.0316  0.1867
11111W        W26242   9.130   5.076   4.660 -0.1650 -0.1740 -0.1369
11112W        W26243   5.331   8.102   0.674  0.0747 -0.3204 -0.2922
11113W        W26244   2.945  10.961   2.697 -0.0753 -0.0423 -0.1969
11114W        W26245   8.209  13.079   0.903  0.0403  0.3057 -0.0986
11115W        W26246   0.645  17.626  11.699  0.2503 -0.1980 -0.3242
11116W        W26247   7.200   0.233  13.707 -0.2538 -0.1573 -0.3164
11117W        W26248  11.649   9.955  11.941 -0.1357 -0.1347  0.5935
11118W        W26249   5.135   3.609   0.972  0.2055 -0.0446 -0.2407
11119W        W26250   4.820   4.364   2.326 -0.0265 -0.2449  0.0794
11120W        W26251  16.874  12.380  15.139 -0.1306  0.2032 -0.2183
11121W        W26252  14.832   9.174  14.041 -0.0092  0.1998  0.1723
11122W        W26253  13.503   7.081   3.040 -0.0394 -0.0613  0.0729
11123W        W26254   1.904  11.871  10.826 -0.1373 -0.0889  0.0263
11124W        W26255  12.608  10.055   3.161 -0.0895  0.1307 -0.2789
11125W        W26256  10.415   8.906  10.890  0.0020  0.0310  0.0670
11126W        W26257  16.131   3.733  12.355  0.0617 -0.0505 -0.1066
11127W        W26258  15.877  10.731   6.310  0.0496 -0.2124 -0.0697
11128W        W26259  13.847   0.682  12.748  0.2292 -0.0539  0.2574
11129W        W26260   3.636   0.728  12.272 -0.0165 -0.2103  0.0181
11130W        W26261   0.964   6.258   3.590  0.0443 -0.2310 -0.1785
11131W        W26262  15.547   7.272  12.612 -0.1167 -0.1103  0.0012
11132W        W26263  12.102  14.170  14.427 -0.0099 -0.1933  0.0735
11133W        W26264  14.910   0.006  14.293  0.3110  0.2977 -0.1021
11134W        W26265  11.914   8.399   1.214  0.1529  0.1011  0.2857
11135W        W26266   0.114  11.158  11.072  0.0297  0.0313  0.0200
11136W        W26267   6.395  12.573  15.131 -0.2110 -0.1270 -0.2768
11137W        W26268   1.664  12.081   2.487  0.0279  0.1066 -0.1795
11138W        W26269  12.472   7.276   0.331 -0.2335  0.2621 -0.0119
11139W        W26270   4.788   6.949   0.829 -0.2240 -0.1041  0.2478
11140W        W26271   4.955  13.388  10.777  0.1105 -0.0899  0.0478
11141W        W26272   8.927   1.486  13.119  0.0961 -0.0743  0.0403
11142W        W26273  15.210   0.322   3.987  0.0032 -0.3987  0.3125
11143W        W26274   0.312   1.595   4.665 -0.0770 -0.3366  0.0069
11144W        W26275   8.494  13.067  14.460  0.4218  0.0845  0.0340
11145W        W26276  16.152  15.844  13.487  0.0020 -0.0549 -0.1426
11146W        W26277   8.144   4.409  10.920  0.0965  0.1675 -0.2218
11147W        W26278   7.763  10.560  15.357 -0.1730  0.1235  0.0666
11148W        W26279  15.145   1.763  13.266  0.2305  0.2212 -0.0157
11149W        W26280   6.090   7.710   4.004 -0.0163  0.2984 -0.0097
11150W        W26281   1.455   0.060   1.128  0.0839 -0.2680 -0.2276
11151W        W26282   6.429   4.661  15.344 -0.0018 -0.3993 -0.0073
11152W        W26283  10.191   9.650  14.484  0.1835  0.0387 -0.1354
11153W        W26284   3.718   1.615   0.610 -0.0996  0.2409 -0.1270
11154W        W26285   6.015   3.874   2.363 -0.2675 -0.1762  0.1884
11155W        W26286   3.058  16.604   0.431 -0.1008  0.1023 -0.1551
11156W        W26287  14.777  10.740   3.007 -0.0960  0.3370  0.1558
11157W        W26288   1.523   7.970  12.565 -0.2489 -0.1877 -0.0090
11158W        W26289  12.297   1.918  12.116  0.0740  0.4882  0.0360
11159W        W26290   7.807   4.309   1.089 -0.0293  0.1646 -0.0415
11160W        W26291   5.340   1.940  11.504  0.0037 -0.1271 -0.0189
11161W        W26292   9.271  13.029   2.962 -0.0794  0.0045 -0.0765
11162W        W26293  16.702   5.358   4.905 -0.0607  0.0182  0.0735
11163W        W26294   2.674  13.036   6.026  0.1141  0.0278  0.1036
11164W        W26295  10.542  13.181   2.813 -0.0846 -0.0645 -0.1136
11165W        W26296  10.350  12.410   4.946  0.2431 -0.1570  0.0333
11166W        W26297  14.582  13.108  14.904  0.0117 -0.1422 -0.0514
11167W        W26298  16.018   0.137   1.535 -0.2485 -0.1923  0.0243
11168W        W26299  13.481  10.210  13.173 -0.3982 -0.1228  0.1555
11169W        W26300   6.052  15.690  15.099  0.4376  0.0461  0.0353
11170W        W26301   2.439  10.850   3.845 -0.0003  0.3622  0.0495
11171W        W26302   6.628   7.897   3.741 -0.0661  0.0615  0.0568
11172W        W26303   5.028   6.806   0.417  0.1123 -0.1610  0.1572
11173W        W26304   3.547  12.689   0.399  0.0107  0.1415 -0.2150
11174W        W26305   8.698  14.709  15.956 -0.0988  0.0427 -0.2469
11175W        W26306  13.117  18.170   0.921 -0.0372  0.2907 -0.0074
11176W        W26307   1.491  15.821  10.751 -0.0907 -0.1703 -0.0632
11177W        W26308  10.568   0.177   2.470  0.0183  0.0865  0.0842
11178W        W26309   7.032  16.490   4.270 -0.0603  0.0024  0.0043
11179W        W26310   1.352  10.073  16.069  0.0442  0.0588  0.0157
11180W        W26311   5.842   8.481   1.597  0.0656  0.2225  0.0531
11181W        W26312  12.195  16.947   5.353 -0.0478 -0.0140  0.1518
11182W        W26313  17.517  16.199  15.028 -0.0323  0.0720  0.2085
11183W        W26314   4.795   6.620   3.008 -0.2210  0.1664  0.0367
11184W        W26315  10.882  12.358   4.802  0.2685  0.1675  0.0790
11185W        W26316   0.195  10.897  12.484 -0.0625 -0.2788 -0.1891
11186W        W26317  15.846   2.201   2.249 -0.0561  0.1669  0.0425
11187W        W26318   6.426   5.270   5.327  0.0034  0.0687 -0.0129
11188W        W26319  15.243   8.361   2.711 -0.1421 -0.1329  0.1397
11189W        W26320  12.658   9.481   3.922  0.4293  0.1833  0.2350
11190W        W26321  16.753  11.353  14.129  0.1679  0.1652  0.2946
11191W        W26322   7.585   7.791   2.685  0.0949 -0.0535  0.3610
11192W        W26323  11.753  16.632  13.550  0.2592 -0.0707 -0.0650
11193W        W26324   9.411   6.285   2.156 -0.0555 -0.1073 -0.0419
11194W        W26325  14.402   3.341   0.565 -0.1622  0.0174 -0.0661
11195W        W26326  10.775   2.539  13.656  0.1911 -0.1139  0.0690
11196W        W26327   5.407   5.282   0.868  0.2294 -0.5611  0.0403
11197W        W26328   3.196  10.534  14.509  0.1119 -0.2888 -0.1974
11198W        W26329   4.090   2.937   5.266 -0.0835  0.0992 -0.1401
11199W        W26330  12.599   7.259  12.350 -0.2794  0.2237  0.0192
11200W        W26331  15.729   8.524   2.596 -0.1464 -0.1750  0.0978
11201W        W26332   5.622  12.591  11.301 -0.0056  0.2657 -0.0183
11202W        W26333  10.915  13.881   1.414 -0.0841  0.0037 -0.0084
11203W        W26334  16.208   8.941   3.712 -0.1642  0.0479 -0.1445
11204W        W26335  13.341   9.345   0.148 -0.0184  0.0084  0.0232
11205W        W26336   5.812  11.281  14.314 -0.1625 -0.0110  0.1727
11206W        W26337  14.299   8.908  13.459 -0.2789  0.0585 -0.0568
11207W        W26338   3.159  13.702  10.947  0.1010  0.1636 -0.3078
11208W        W26339  11.718  17.692  12.611 -0.0632 -0.1839  0.1599
11209W        W26340  15.565  16.837   6.041 -0.0006 -0.1627  0.0264
11210W        W26341  15.470  17.767   2.202  0.2227  0.1965 -0.3073
11211W        W26342  13.796  12.128  11.909 -0.1310 -0.2920 -0.0564
11212W        W26343   6.606  15.382   9.734  0.0672 -0.0766 -0.0361
11213W        W26344  12.374  10.574  12.584  0.0564 -0.0065  0.0043
11214W        W26345  11.459  17.587   4.493 -0.0074 -0.0471 -0.4671
11215W        W26346   9.212  12.939  12.044  0.1583  0.1540  0.0649
11216W        W26347   1.045   3.894  15.602  0.0415 -0.1326  0.1584
11217W        W26348   3.439  10.760  12.841 -0.0496 -0.0885  0.0955
11218W        W26349   2.440  17.304   5.325 -0.1179  0.0883  0.0431
11219W        W26350   5.770   2.736   0.171 -0.0127 -0.0674 -0.0583
11220W        W26351  10.301  17.528   4.655  0.1537  0.0517 -0.2485
11221W        W26352   1.432   4.083  13.172  0.2392 -0.1323  0.0466
11222W        W26353   4.887  12.656  14.887 -0.0177  0.0668 -0.0585
11223W        W26354   2.239   2.062   3.253 -0.3080 -0.0143 -0.2619
11224W        W26355   0.244   4.318   5.034  0.0201  0.1334  0.0278
11225W        W26356   3.557   3.185  11.341  0.0841 -0.0767  0.2610
11226W        W26357   8.455   5.525   4.109  0.0239 -0.2099 -0.0518
11227W        W26358  17.982   3.777  15.312  0.2634 -0.0148 -0.1004
11228W        W26359   2.098  11.930   6.021 -0.0846  0.2529  0.1276
11229W        W26360   5.312   0.441  15.824  0.3574  0.0928  0.1920
11230W        W26361   5.316  11.527  12.474 -0.0029  0.1348 -0.0441
11231W        W26362  12.304   7.892  15.657  0.1443  0.1162  0.0075
11232W        W26363  10.442  17.766   1.814  0.1363  0.1270 -0.1560
11233W        W26364   5.066   7.867   0.285  0.1152  0.2849  0.0568
11234W        W26365  12.993   4.124  16.166 -0.2381 -0.3139  0.3160
11235W        W26366   5.775  17.107  11.414  0.0621  0.0056 -0.0498
11236W        W26367  16.451   2.645   4.001  0.0186  0.0146  0.0626
11237W        W26368   0.031   2.862  12.988 -0.0515  0.2089 -0.1422
11238W        W26369  16.820  16.279  14.345  0.1494  0.0933 -0.2330
11239W        W26370  17.160   9.528   2.044  0.2900  0.1901 -0.0491
11240W        W26371   3.625   3.526   3.560  0.1561 -0.1213 -0.0698
11241W        W26372   3.541   8.408  13.734  0.0597 -0.1009  0.1689
11242W        W26373  17.593  10.307   3.796 -0.1947  0.1199 -0.3771
11243W        W26374   7.416  15.078   1.137 -0.3688  0.0132  0.0243
11244W        W26375   0.460   2.869  15.958  0.0368 -0.1157  0.2312
11245W        W26376  15.337   1.982  10.466  0.1232  0.1269  0.1478
11246W        W26377   3.330  12.576   1.735  0.4560 -0.0495  0.2615
11247W        W26378   0.903  10.304  13.602 -0.0029  0.0358  0.3730
11248W        W26379  12.686  13.305   2.305  0.0402  0.1169  0.0663
11249W        W26380  17.020  13.489  12.316 -0.2000 -0.0165 -0.0168
11250W        W26381   3.848   0.060  14.134 -0.1913  0.0285 -0.0379
11251W        W26382   4.188   8.010  10.812  0.1782 -0.1407 -0.0686
11252W        W26383  16.487   1.892  12.688 -0.0138 -0.1302  0.0858
11253W        W26384  17.434  10.934  15.233  0.2009 -0.4045 -0.1329
11254W        W26385  13.808  10.052  11.051 -0.1516  0.0644  0.0988
11255W        W26386  17.719  16.099   6.644 -0.2043  0.2058  0.2106
11256W        W26387  15.085  11.536   2.573  0.0876 -0.1136 -0.0072
11257W        W26388   1.971  12.217   0.522  0.1723  0.1489  0.1783
11258W        W26389   7.578  16.930   0.083 -0.0409 -0.0840  0.0845
11259W        W26390  16.288   4.518  11.229 -0.0513 -0.2150  0.0411
11260W        W26391   8.336  12.486   3.233 -0.0476 -0.2215 -0.4048
11261W        W26392  17.247  11.462   5.802 -0.1232  0.1103 -0.1004
11262W        W26393   9.448  15.832  11.675 -0.1202  0.0895  0.2283
11263W        W26394   7.268   8.919  14.891 -0.3009  0.2232 -0.0012
11264W        W26395  15.974  15.000   2.171  0.2930 -0.5165  0.1402
11265W        W26396   0.145   4.609  13.884 -0.2390  0.2386  0.0870
11266W        W26397   8.535  13.753   4.834  0.0672 -0.2368  0.0925
11267W        W26398  17.491   4.883   1.429 -0.1155 -0.0441  0.2158
11268W        W26399   5.920  10.755   3.650 -0.0056 -0.0084 -0.0544
11269W        W26400   5.773  13.081  12.558  0.2442 -0.1993 -0.0754
11270W        W26401   7.569  15.378   3.737 -0.2339 -0.0038  0.2665
11271W        W26402   4.396   4.796  14.986  0.2635 -0.1498 -0.1745
11272W        W26403   1.904  11.665   0.586  0.0221 -0.1840 -0.2915
11273W        W26404  14.422   8.861   5.013  0.0554  0.0139 -0.1110
11274W        W26405   8.709   1.626  11.034 -0.2254 -0.1907 -0.1620
11275W        W26406   1.754   9.305  13.939  0.1920 -0.4750  0.0780
11276W        W26407   3.013  17.636   0.651 -0.0470 -0.0946  0.0182
11277W        W26408   2.538   4.895  12.980 -0.3331  0.1594 -0.3536
11278W        W26409   1.033  14.455  11.534  0.2467  0.2176  0.0166
11279W        W26410  10.449  12.856  11.516 -0.1004 -0.2733  0.1050
11280W        W26411  12.205   8.550  13.928  0.2247 -0.2207 -0.0521
11281W        W26412  10.408   6.040   5.209  0.1271 -0.2058  0.0618
11282W        W26413   9.240   2.470   1.087  0.0615 -0.1524  0.0353
11283W        W26414   0.013   9.455   1.276  0.0050 -0.0842  0.0599
11284W        W26415   5.544   6.688   0.371  0.2304 -0.1670  0.1043
11285W        W26416   9.973  17.836   1.858 -0.0519  0.1670 -0.0487
11286W        W26417   0.498  13.395   5.906 -0.2292 -0.1960 -0.1051
11287W        W26418  17.524  13.641  12.235  0.1483  0.2944  0.1386
11288W        W26419   2.496  16.791   3.841 -0.1747  0.2022  0.1096
11289W        W26420   4.072   1.892  14.654 -0.0910  0.0052  0.0609
11290W        W26421  15.361   1.989   5.714 -0.1484 -0.3199  0.1267
11291W        W26422  13.863   7.292  13.686 -0.0559 -0.1318 -0.0803
11292W        W26423   4.932   2.699   1.249 -0.1557 -0.0645 -0.0201
11293W        W26424  15.341   3.944   2.875  0.0524 -0.2777  0.2778
11294W        W26425  17.560  13.664   3.099  0.0471  0.4555  0.3327
11295W        W26426  12.835  12.574   2.678  0.1562  0.0139  0.0257
11296W        W26427  15.994  14.213   4.547 -0.1163  0.1067 -0.0153
11297W        W26428  15.558  14.695   1.359  0.2175 -0.1049  0.0471
11298W        W26429   3.078   1.676  12.963 -0.0670 -0.0683  0.0160
11299W        W26430  11.714  11.561  13.733 -0.0922 -0.0835 -0.2498
11300W        W26431  12.821  10.396   2.762  0.2413  0.0923 -0.0182
11301W        W26432   2.339  10.830  11.737  0.0550 -0.0120  0.2219
11302W        W26433  14.075  17.098   3.401  0.0247 -0.1005  0.1782
11303W        W26434   5.680   3.032   0.526  0.2178 -0.0611 -0.2340
11304W        W26435   7.168   7.352   0.733  0.1226  0.1109 -0.1159
11305W        W26436   2.872   0.431  13.391  0.0367 -0.1056  0.1263
11306W        W26437   9.136   1.495   3.701 -0.0663  0.0653  0.3912
11307W        W26438   9.749  16.316  14.326 -0.1579  0.0440 -0.0273
11308W        W26439   1.149  17.650  14.338 -0.0608 -0.0579 -0.1458
11309W        W26440  11.175  11.894  13.184  0.1420  0.0335  0.1662
11310W        W26441   5.228   3.850   5.558 -0.3781  0.1460 -0.0555
11311W        W26442   6.970  14.774   1.865 -0.2454 -0.2074  0.1262
11312W        W26443   9.868   5.840   3.937 -0.3007  0.2224 -0.1472
11313W        W26444   5.841   5.445  15.205  0.0197 -0.1490 -0.0572
11314W        W26445   9.185   4.851   3.167  0.1053 -0.1337  0.2484
11315W        W26446   1.031   9.662   5.079 -0.0417 -0.1157 -0.0022
11316W        W26447  13.312   2.368   0.518 -0.2149  0.0252 -0.0585
11317W        W26448  15.049  10.276   3.074  0.1722 -0.4369 -0.3995
11318W        W26449   9.755   7.800   2.775  0.1150  0.2324  0.2061
11319W        W26450  14.223  17.266  14.212  0.2425 -0.2441  0.0147
11320W        W26451  15.918  17.799   5.426  0.1528 -0.0478 -0.1831
11321W        W26452   9.677   3.703  14.912 -0.0467  0.0184  0.0982
11322W        W26453   2.979   1.000  11.541  0.0905  0.0184  0.2679
11323W        W26454   7.000  16.616   4.794 -0.0871 -0.1710  0.1466
11324W        W26455   0.627   9.436  12.424 -0.0565 -0.0912 -0.2341
11325W        W26456  15.399  18.106  14.090 -0.1230  0.0296 -0.2301
11326W        W26457  17.608   0.129   3.826 -0.0075  0.1968 -0.3012
11327W        W26458  10.218   2.016   1.421 -0.0090 -0.1934  0.2392
11328W        W26459   3.243  11.852  12.532  0.0695  0.2445  0.1860
11329W        W26460   8.868  16.733  12.502 -0.0211  0.1790  0.1682
11330W        W26461  14.125   5.607  14.072  0.0335 -0.1283 -0.1144
11331W        W26462  11.591  11.246  13.354  0.0078 -0.0239  0.1502
11332W        W26463  11.673  17.109  15.018 -0.0858 -0.3756 -0.0071
11333W        W26464   4.151  11.644   0.232  0.2383 -0.1193 -0.0157
11334W        W26465   2.809   6.931   3.167  0.3666 -0.0826  0.1518
11335W        W26466   9.456   1.121   0.398 -0.2237 -0.0450  0.3777
11336W        W26467  15.890   4.387   5.388  0.2706  0.0755  0.0154
11337W        W26468   8.246   5.201  10.186  0.1875  0.0214  0.0350
11338W        W26469   7.815   8.375   3.725 -0.3357 -0.1865 -0.0429
11339W        W26470  13.923  14.940   2.725 -0.2242 -0.2625  0.1949
11340W        W26471  15.198  14.308   5.197  0.4513 -0.0763  0.1941
11341W        W26472  10.242  11.418  10.396 -0.0491  0.0237  0.0533
11342W        W26473   1.804   5.771   3.883  0.0986  0.1713 -0.4117
11343W        W26474   9.243   5.622  15.489  0.0336  0.3156 -0.1930
11344W        W26475   2.174  11.026  13.794 -0.0394 -0.0490 -0.0577
11345W        W26476   8.054   3.900   1.034 -0.0237  0.0120  0.2045
11346W        W26477   9.005  10.760  11.676  0.1500  0.1016  0.0615
11347W        W26478   1.658  16.114   2.182 -0.1462 -0.1476  0.0926
11348W        W26479   2.009   9.942   4.529 -0.0671 -0.0712 -0.0373
11349W        W26480  11.132   2.564  14.626  0.1062 -0.0472 -0.1476
11350W        W26481  13.960   6.766  13.888 -0.1298 -0.0480  0.0573
11351W        W26482  12.708  12.762   3.160  0.0212  0.0016  0.1290
11352W        W26483   5.700   1.828  16.118  0.0645 -0.0776 -0.3092
11353W        W26484   8.135   5.097   1.341  0.0293 -0.1619  0.0850
11354W        W26485   1.158   1.320   5.140 -0.1960 -0.2207  0.1125
11355W        W26486   8.715  16.175   2.854 -0.0207  0.1447 -0.0140
11356W        W26487   2.213   4.994  10.803 -0.0817  0.1524 -0.3032
11357W        W26488   7.860  12.290  14.478  0.1436  0.0505  0.4030
11358W        W26489   5.287   9.647   0.336 -0.1118 -0.3292  0.0783
11359W        W26490   3.552  17.525   0.626  0.0802  0.1522  0.2916
11360W        W26491  15.617   8.835   4.295  0.3357 -0.2375  0.2740
11361W        W26492   8.495  10.520   2.077  0.0373 -0.0547  0.0255
11362W        W26493   5.537  15.737  14.961  0.0976  0.1104 -0.1105
11363W        W26494   9.869  12.552  15.489  0.2984 -0.1840  0.1491
11364W        W26495   0.875  10.179   3.250  0.2987  0.1354  0.1000
11365W        W26496  10.342  11.859   2.226 -0.4665  0.0735  0.0678
11366W        W26497  16.952  14.948   1.712  0.1596 -0.0171 -0.3329
11367W        W26498   0.265  11.835   1.290  0.2193  0.2012  0.0698
11368W        W26499   3.467  12.313  14.030  0.1639  0.1832  0.0182
11369W        W26500   9.508   7.771   5.339 -0.2411  0.0384  0.1869
11370W        W26501   2.112   4.446  10.870  0.2870  0.0264 -0.1550
11371W        W26502  17.273   1.649  13.020  0.1648  0.1025  0.2228
11372W        W26503   9.147   4.112  12.056  0.1716 -0.0032  0.1067
11373W        W26504   3.195  18.081   1.558  0.0274 -0.0688 -0.1181
11374W        W26505  10.115   1.152  11.423 -0.3263 -0.0204 -0.0407
11375W        W26506   5.142   0.440   0.310  0.3352 -0.0879  0.0711
11376W        W26507   3.790  10.616   2.361 -0.2017  0.1958  0.0598
11377W        W26508  11.488  17.143   2.368  0.2023  0.3283 -0.1715
11378W        W26509   0.049   6.081   4.167  0.1098 -0.2668 -0.1373
11379W        W26510  15.184   2.973   4.050 -0.1325 -0.3418 -0.2175
11380W        W26511   3.137  15.394   5.196 -0.1980  0.2737 -0.2262
11381W        W26512   5.444  12.275   1.074 -0.3779  0.0299  0.1221
11382W        W26513   0.070   1.922  13.359  0.1256  0.0048 -0.0519
11383W        W26514  14.864   6.890   3.030  0.3073 -0.0259  0.0520
11384W        W26515  13.855   5.941  13.562  0.0695 -0.0169 -0.0118
11385W        W26516  11.261  12.512  11.642  0.0255 -0.1109 -0.1529
11386W        W26517  14.167   2.692   1.450  0.4368  0.1633  0.1924
11387W        W26518  12.007   2.785   6.192  0.4125 -0.0346 -0.3909
11388W        W26519  15.505  16.039   0.777  0.2262 -0.0003 -0.2229
11389W        W26520  11.369   1.597   6.122  0.1012  0.1013  0.2256
11390W        W26521   2.533  12.579   4.823  0.0278 -0.1557 -0.1135
11391W        W26522  15.439  13.987   2.441  0.3913 -0.1484  0.2519
11392W        W26523   3.868   5.420  12.759  0.0978 -0.1944  0.0816
11393W        W26524  11.322   3.378   3.388 -0.0343 -0.2320 -0.0579
11394W        W26525  12.499  13.441  13.678  0.1924  0.0641  0.0704
11395W        W26526   8.926   1.189   0.528 -0.0994  0.0444  0.0009
11396W        W26527   4.663  12.168   2.408 -0.0236 -0.4195 -0.0542
11397W        W26528   9.436  18.148  16.059  0.2327 -0.1155  0.0010
11398W        W26529   0.753  16.653  15.877 -0.3243 -0.3515 -0.0932
11399W        W26530  15.850   5.572  15.284 -0.0051 -0.1389 -0.3171
11400W        W26531   4.181   1.016   5.719 -0.1812  0.0464  0.0484
11401W        W26532   9.280   9.916  12.911 -0.2709 -0.0753 -0.2905
11402W        W26533   9.190   4.940  12.176  0.0334  0.0235  0.3486
11403W        W26534   5.301   1.625  12.208 -0.0352  0.0083 -0.1105
11404W        W26535   2.501   0.418  12.679  0.1895  0.1391 -0.1684
11405W        W26536   3.408   0.314  13.450 -0.0503 -0.2576  0.0725
11406W        W26537  12.941   9.032   0.354 -0.0826  0.2643 -0.1798
11407W        W26538  16.684  11.743  15.649  0.1812 -0.1617 -0.1239
11408W        W26539  13.790   1.457   4.895 -0.0600 -0.2444  0.2019
11409W        W26540  14.854   5.610  12.320 -0.1885 -0.1020  0.0581
11410W        W26541  14.489  17.321   5.817 -0.1671  0.3167 -0.0934
11411W        W26542  17.488  16.452   1.525  0.4066 -0.0212  0.0401
11412W        W26543   8.848  11.140  16.200  0.0807  0.1563  0.2788
11413W        W26544   2.922  15.688  13.006 -0.1929 -0.1587 -0.1775
11414W        W26545   3.591  15.577   5.022  0.1146 -0.2533 -0.1718
11415W        W26546  16.579  12.688   2.774  0.3436  0.0898  0.2007
11416W        W26547   0.133   7.479  15.575 -0.0710  0.0780 -0.1114
11417W        W26548   1.005  10.222   0.890  0.1693  0.0739 -0.1121
11418W        W26549   3.564   6.048   0.525 -0.0389 -0.1005  0.1116
11419W        W26550  16.380  13.124   2.619  0.0351 -0.2289  0.0606
11420W        W26551   5.593  13.427  16.067 -0.1032 -0.0033  0.1017
11421W        W26552   0.824   7.689   4.557 -0.1273 -0.1363  0.0234
11422W        W26553   5.347   5.512   0.414 -0.0134 -0.0531 -0.1707
11423W        W26554  14.430  12.872   5.665 -0.3104 -0.1341 -0.2471
11424W        W26555   0.598  13.324   3.870  0.0633 -0.2797  0.1604
11425W        W26556   5.768  16.335  13.160 -0.2293  0.3524 -0.0290
11426W        W26557  11.180  11.648  15.673  0.0357  0.0005 -0.0648
11427W        W26558   1.251   1.782   2.964  0.1289  0.6145 -0.0612
11428W        W26559  13.822   7.043   5.497 -0.0387  0.3117 -0.2699
11429W        W26560  10.321   4.446   4.190 -0.1627 -0.2697 -0.3267
11430W        W26561  12.980  12.190  13.302 -0.1549 -0.1599 -0.1438
11431W        W26562  14.043  12.825  13.584  0.0506 -0.1180  0.1431
11432W        W26563   8.540  15.809   0.755 -0.0106  0.1096 -0.0497
11433W        W26564  12.966   7.102   0.531  0.1029 -0.1323 -0.0388
11434W        W26565   5.700  16.582  10.776  0.2030  0.0895  0.2372
11435W        W26566  15.991   8.796   5.031  0.1043 -0.1111  0.0582
11436W        W26567  11.528  18.123  12.412  0.2822 -0.1854 -0.0775
11437W        W26568   9.497   1.344   1.537 -0.1357 -0.0035  0.1579
11438W        W26569   3.365   5.754   5.914 -0.1608  0.1295  0.0121
11439W        W26570   7.230  13.233   0.501  0.1859  0.2015 -0.2730
11440W        W26571   1.429  16.852  13.628 -0.1936 -0.1813 -0.1351
11441W        W26572   3.679   5.539   1.362 -0.1403  0.1679 -0.0955
11442W        W26573  14.776  11.620  10.916  0.3047 -0.1052 -0.2078
11443W        W26574  10.551  12.514   0.322  0.1479 -0.0625  0.2657
11444W        W26575   2.251   1.260  15.485 -0.3137  0.1404 -0.0664
11445W        W26576   4.889   4.419  11.449  0.1068 -0.0502  0.1921
11446W        W26577   3.051   4.859   1.777  0.0602  0.1251  0.4523
11447W        W26578   8.344  15.030   5.283  0.0109 -0.0507  0.5140
11448W        W26579  14.837  10.180   3.871  0.1333 -0.5222  0.1971
11449W        W26580   9.565   1.792  14.706  0.0377 -0.0108 -0.0924
11450W        W26581   5.036   4.965  10.139 -0.3441  0.0799 -0.1293
11451W        W26582  13.521   5.434   4.844  0.0597 -0.2415 -0.1116
11452W        W26583   1.644   1.411   1.979  0.1290 -0.0477 -0.1427
11453W        W26584  17.363   4.598   4.608 -0.0565 -0.1966  0.1080
11454W        W26585  14.819  10.276   4.360 -0.0247 -0.1383  0.2639
11455W        W26586  14.553  17.898  14.694 -0.0098 -0.2997  0.2922
11456W        W26587  14.362   1.334  14.409  0.3583 -0.4675 -0.0085
11457W        W26588  13.707  12.098   0.426 -0.1353  0.1494  0.0963
11458W        W26589   4.792   3.668   2.219 -0.0459  0.1720  0.2883
11459W        W26590  16.666  14.362   0.155 -0.1066  0.2715 -0.0330
11460W        W26591   0.907   2.835   4.931 -0.1275  0.3754 -0.2745
11461W        W26592   0.197   5.778   0.955 -0.1620 -0.0318 -0.1921
11462W        W26593  10.553  13.975   0.622  0.1181  0.0056  0.0032
11463W        W26594  11.408   6.258  15.829  0.1992 -0.0938 -0.1533
11464W        W26595  13.997   5.727   3.260  0.3714 -0.0002  0.2496
11465W        W26596  17.974  10.296   0.566  0.1688  0.0127  0.0734
11466W        W26597  16.517   9.837  15.471  0.0173  0.1067  0.1876
11467W        W26598  13.526  16.977   4.737  0.2406  0.3346  0.0809
11468W        W26599  11.863   5.923  15.455  0.2114  0.0209 -0.1105
11469W        W26600  17.304   9.925   3.969  0.1183 -0.2612  0.1196
11470W        W26601  16.492  11.325  10.340 -0.3158 -0.0536  0.0777
11471W        W26602   6.795  16.601   3.498  0.1346  0.0573 -0.2095
11472W        W26603  10.019  15.140   3.784  0.2479 -0.1753 -0.2317
11473W        W26604   6.188   4.956   5.667 -0.1602 -0.1052 -0.2682
11474W        W26605   1.367   7.841   4.447  0.0055  0.1453 -0.2065
11475W        W26606   6.546   4.770   1.127 -0.0768 -0.0434  0.0669
11476W        W26607   3.836  14.459  16.008  0.1690  0.1737 -0.0042
11477W        W26608   8.581   9.977  12.075  0.0033 -0.0270  0.1978
11478W        W26609   0.383  10.830   5.527  0.2030  0.2346 -0.1288
11479W        W26610   7.393   7.922   4.957 -0.0003  0.2142  0.1644
11480W        W26611   1.416   4.656  15.268  0.2847 -0.1632  0.1021
11481W        W26612   1.088   9.521   2.073  0.0011  0.2286  0.0831
11482W        W26613   9.866   4.689   0.956 -0.1358  0.2040 -0.4024
11483W        W26614   1.898   8.331   3.577  0.1866  0.0397  0.0267
11484W        W26615   6.414  16.209  14.149 -0.1145  0.3170 -0.0745
11485W        W26616   7.293   2.872  12.562  0.0207  0.1271  0.1227
11486W        W26617   4.452  11.194   5.207 -0.1178  0.3506  0.4031
11487W        W26618   6.693  13.731  10.488  0.0724  0.0863  0.1201
11488W        W26619   0.483  17.696   5.071  0.0554  0.0892  0.0407
11489W        W26620  10.179  11.509   3.607 -0.0644 -0.0014 -0.0942
11490W        W26621  11.054  12.663   5.215 -0.3512  0.0761 -0.1332
11491W        W26622  14.765  10.678  12.354  0.3027 -0.0101  0.0681
11492W        W26623  10.446   9.583   5.355 -0.0235  0.0500  0.2537
11493W        W26624   8.115  13.375  12.936  0.1203 -0.1566  0.2142
11494W        W26625   1.931   5.703  14.774 -0.0594 -0.0622 -0.0348
11495W        W26626   4.630   4.500   1.823  0.2827  0.0248  0.1311
11496W        W26627  16.955  10.368   0.376  0.1012  0.1764  0.1143
11497W        W26628  14.482  17.884   2.506  0.0898  0.0086  0.2098
11498W        W26629   2.022  12.917  11.746  0.2326  0.0447 -0.1516
11499W        W26630   3.213   3.808  14.237  0.1790  0.0864  0.1759
11500W        W26631   1.981   8.362   0.872 -0.0084  0.4307  0.1661
11501W        W26632   1.333   6.422   4.073 -0.0880  0.2603  0.0033
11502W        W26633   9.837  12.021  15.456  0.0541  0.1082  0.1855
11503W        W26634  10.852  13.672  11.268  0.2245  0.1258 -0.0785
11504W        W26635   9.404   6.169  14.612 -0.0305  0.1338  0.0986
11505W        W26636   5.733  14.042  12.038  0.0031  0.1307  0.1355
11506W        W26637   9.519  11.834  11.016  0.0812  0.0020 -0.1527
11507W        W26638  12.672  15.001   3.850 -0.0388  0.1370  0.1836
11508W        W26639   7.481   7.664   4.468 -0.4208 -0.2602  0.1101
11509W        W26640  14.439   7.167   4.345  0.0825 -0.2244  0.1616
11510W        W26641   5.874   1.114   3.447  0.1554  0.2535  0.4539
11511W        W26642  12.590  13.178   4.531  0.0576  0.0502 -0.0051
11512W        W26643   7.612   8.617  11.231 -0.1812 -0.3420  0.0117
11513W        W26644   3.176  14.246   0.298  0.2137 -0.0028  0.0447
11514W        W26645   8.054   8.002  12.575 -0.3577  0.1326 -0.1065
11515W        W26646   8.074  14.425   5.059  0.0931 -0.0421 -0.0493
11516W        W26647   0.297  14.035  10.862 -0.1083 -0.0597  0.0452
11517W        W26648  11.251   0.858  16.092 -0.1373  0.2621 -0.2959
11518W        W26649   0.265  14.035   2.642  0.2973 -0.0772  0.2617
11519W        W26650  12.275   2.625   5.744 -0.0253  0.0822  0.4864
11520W        W26651  17.262  18.015  14.116 -0.0299 -0.1712 -0.2875
11521W        W26652   4.206   9.913  11.104 -0.5561  0.1002  0.1704
11522W        W26653   9.262   4.859   0.948 -0.0438 -0.1746  0.0358
11523W        W26654  14.457   6.722  11.646  0.3625 -0.0527  0.0117
11524W        W26655   3.982   5.192   3.663 -0.1687 -0.1374 -0.0936
11525W        W26656  17.657   6.337  15.196  0.0047 -0.1121  0.0524
11526W        W26657   5.223   0.830  14.679 -0.0940  0.2754  0.0460
11527W        W26658  10.656   8.082   2.882 -0.0316 -0.1798 -0.1257
11528W        W26659  11.779  14.472  12.753 -0.0971 -0.0639  0.2103
11529W        W26660  14.047  14.462   0.560 -0.0816 -0.1268  0.1196
11530W        W26661   2.286   5.165   4.169  0.0536  0.1951  0.0201
11531W        W26662   8.152   7.995  13.674 -0.0647 -0.0750 -0.2522
11532W        W26663   9.047  11.624  14.910  0.0750  0.0739  0.2289
11533W        W26664  10.194  13.581   4.912  0.3751  0.0421 -0.0985
11534W        W26665   7.233  13.760  15.983  0.2304 -0.0340  0.0468
11535W        W26666   6.479   9.562  13.580  0.3139 -0.3058  0.2027
11536W        W26667  17.478   2.689  13.788 -0.0152 -0.0244  0.2160
11537W        W26668   1.153  10.945   1.264  0.3363 -0.0791  0.1963
11538W        W26669   9.149   6.820   0.274 -0.2109  0.4790 -0.3228
11539W        W26670  15.074   0.202  15.320  0.1040  0.1599  0.0280
11540W        W26671  17.404  13.254  16.050  0.0167  0.1687  0.0094
11541W        W26672   1.989  12.668   5.513  0.1647 -0.0746  0.0307
11542W        W26673  13.901   5.858  12.534 -0.0341 -0.1691 -0.0749
11543W        W26674   3.594   2.311   4.410 -0.1697 -0.1566  0.0221
11544W        W26675   7.822   2.463   5.351 -0.4212  0.0157  0.1657
11545W        W26676  11.049  10.274   0.733 -0.0103  0.0247  0.2003
11546W        W26677  14.521   4.422  10.476 -0.2522 -0.1321  0.1001
11547W        W26678   7.618  10.260   2.478 -0.1113 -0.0834 -0.0441
11548W        W26679  12.750   0.938  11.156  0.3091  0.0920  0.0050
11549W        W26680   9.035   0.569  15.139 -0.2687 -0.1187 -0.1213
11550W        W26681  14.136   1.224  11.491 -0.2742  0.0830 -0.0900
11551W        W26682  17.613  12.736   0.363  0.0228  0.0163  0.3322
11552W        W26683   6.898  11.623   1.395  0.1312 -0.0392 -0.1665
11553W        W26684  17.373  17.151   3.945 -0.2447 -0.0801  0.3270
11554W        W26685   5.165   9.951   5.587  0.0229  0.3594 -0.1672
11555W        W26686   1.320   1.697  15.176  0.1990 -0.0656  0.0083
11556W        W26687   2.006   4.849  12.405  0.1422  0.2722 -0.0664
11557W        W26688  10.431   9.164   1.457  0.1287 -0.2618 -0.1819
11558W        W26689   7.607   8.634   2.840 -0.0754  0.1952  0.2340
11559W        W26690   4.408   9.188  15.806  0.2463 -0.1355  0.0915
11560W        W26691  11.788   0.979   4.729 -0.1532  0.0115 -0.1610
11561W        W26692  10.602   7.737   2.359  0.0895  0.3591 -0.1393
11562W        W26693   5.424   9.052  13.051 -0.0545  0.2217  0.1419
11563W        W26694  16.857  16.622   4.926  0.1388  0.1131  0.0090
11564W        W26695   6.695   4.127   4.665  0.0461  0.2307  0.0961
11565W        W26696   6.745  12.596  14.145  0.1093 -0.0246  0.2522
11566W        W26697  12.691   5.352  12.455  0.1388 -0.2566  0.2031
11567W        W26698   9.723   3.621  14.417 -0.2181  0.0697 -0.0152
11568W        W26699  15.427   3.718  14.881 -0.0008 -0.2308 -0.2230
11569W        W26700  10.001  13.249  13.790  0.0623 -0.2341 -0.1469
11570W        W26701   4.487   7.579  13.095  0.2614  0.1365 -0.0038
11571W        W26702   8.714  17.832   2.072 -0.1089 -0.2185 -0.1032
11572W        W26703  11.963  18.122  15.923  0.4344 -0.1131 -0.0371
11573W        W26704  17.651   8.759  13.973 -0.2889  0.1243 -0.0712
11574W        W26705   1.884   3.727   1.360 -0.3368 -0.0606  0.0055
11575W        W26706  10.651  16.254  10.707  0.3029 -0.1767 -0.2289
11576W        W26707   9.457   0.204  11.101  0.1135 -0.1523  0.2052
11577W        W26708  11.009   1.366  15.782 -0.0154 -0.0147 -0.1011
11578W        W26709  10.663   4.000  13.110  0.1047 -0.1276  0.0823
11579W        W26710  10.096   5.059   3.467 -0.0604  0.1463 -0.0915
11580W        W26711   9.309  16.884   1.448 -0.1208 -0.0238  0.0962
11581W        W26712  17.831  16.398  11.809  0.0750  0.1977 -0.0324
11582W        W26713  14.045  14.442   3.951  0.3976  0.0699 -0.0413
11583W        W26714   5.288   8.573  12.938  0.0748 -0.2801  0.3003
11584W        W26715  12.845  14.725   0.254 -0.3194 -0.3307 -0.5680
11585W        W26716   3.753  11.305  11.727 -0.4004 -0.0308  0.1541
11586W        W26717   2.500   5.039   0.644 -0.1411 -0.1338  0.0097
11587W        W26718  14.947  13.098  12.594 -0.1090  0.3328  0.0331
11588W        W26719   0.236  16.971   6.148  0.0877  0.0059  0.0234
11589W        W26720  13.695  17.694  12.794  0.0652 -0.3059  0.3732
11590W        W26721   8.452   2.593   3.705 -0.1262  0.1187 -0.0731
11591W        W26722  14.977  13.320  14.185 -0.0711 -0.2314 -0.1711
11592W        W26723  14.617   3.741  14.194  0.0870 -0.2329 -0.0178
11593W        W26724   8.556  13.851  15.060  0.0147 -0.0618 -0.2854
11594W        W26725  13.399   1.869  15.868  0.3065 -0.2159 -0.0869
11595W        W26726   8.613   9.428  15.852  0.3274  0.2389 -0.0202
11596W        W26727   1.363  17.043  12.022  0.0412  0.0030  0.0972
11597W        W26728   0.297   1.737   5.138 -0.1286  0.1251  0.1502
11598W        W26729   1.959   7.846  11.198 -0.0882 -0.2260  0.3344
11599W        W26730   8.573   2.145  15.059  0.0233  0.1015  0.0124
11600W        W26731  11.957   0.425   3.972  0.2983  0.2007 -0.1537
11601W        W26732   1.857   0.033   0.766 -0.0391 -0.1539 -0.2031
11602W        W26733   9.117  11.635   1.553  0.2538 -0.2752  0.1270
11603W        W26734  13.538   0.052   5.358  0.0630  0.2173 -0.4884
11604W        W26735   5.673   0.609  11.496 -0.2590 -0.0365 -0.1147
11605W        W26736   3.149   1.276  13.771  0.0128  0.3042  0.1013
11606W        W26737   4.792   5.193   2.914  0.0186  0.2352 -0.0429
11607W        W26738   6.224   7.808  11.571  0.0155  0.1842 -0.1138
11608W        W26739  12.502  13.472   2.794 -0.0568 -0.4266  0.1804
11609W        W26740   9.401   3.748   5.345 -0.3561 -0.0433  0.2262
11610W        W26741   9.820   8.796  14.076 -0.2766  0.1295  0.1202
11611W        W26742  10.053  17.775  14.155 -0.2879  0.2185 -0.0896
11612W        W26743  15.128  15.909   4.558 -0.0302  0.0133  0.3037
11613W        W26744  11.432   0.564   1.178  0.0650 -0.0044  0.0277
11614W        W26745   8.940   6.756  12.057 -0.4376 -0.0568  0.0606
11615W        W26746   5.482   2.020   0.491  0.0398 -0.2353  0.2662
11616W        W26747   6.611  15.840  12.763 -0.0075  0.1416  0.1924
11617W        W26748   8.568  16.783  15.791 -0.1416  0.1607 -0.2108
11618W        W26749   6.434   1.183  11.572  0.0103  0.2712 -0.2040
11619W        W26750  12.660   2.208   4.041  0.1136  0.1800 -0.0105
11620W        W26751   7.069  10.408   1.776  0.2120 -0.0958 -0.1984
11621W        W26752   8.359  16.707  15.346  0.0618 -0.3423  0.1954
11622W        W26753   8.434   6.474  12.685 -0.0530  0.0232 -0.0068
11623W        W26754  16.801   0.242  12.241 -0.2660  0.0400  0.1459
11624W        W26755  15.486   0.313  11.660  0.1722  0.0764  0.0153
11625W        W26756  13.483   0.394   4.108 -0.0567 -0.0776 -0.0712
11626W        W26757  11.734  13.671   2.890 -0.0388  0.2374  0.1809
11627W        W26758   7.793  16.855  14.786  0.0188 -0.0735 -0.0520
11628W        W26759   5.161  12.136  15.672  0.1408  0.1956  0.0589
11629W        W26760   7.963  15.102   3.477  0.1820  0.0661  0.2609
11630W        W26761   0.186  12.161  16.146  0.0553  0.1779  0.2704
11631W        W26762  16.411  18.139   5.664  0.2916  0.2171  0.3634
11632W        W26763   1.258   0.312  12.219 -0.2032 -0.1849 -0.3389
11633W        W26764  14.591  13.208   4.303 -0.1371  0.2233  0.2851
11634W        W26765  17.520  12.942   2.083  0.2858  0.2441 -0.1569
11635W        W26766   1.575   2.537  14.362 -0.1640 -0.2392  0.2850
11636W        W26767   2.991  13.884  14.429  0.1511 -0.0213 -0.3126
11637W        W26768  15.188   6.715  11.033 -0.3128  0.2326  0.2295
11638W        W26769  17.546  11.870   0.314 -0.1708 -0.0034  0.0547
11639W        W26770   9.787  17.005   1.238 -0.4989 -0.1071 -0.2656
11640W        W26771   4.559   8.336  10.745 -0.1396  0.2527 -0.1071
11641W        W26772   6.635  10.125   1.592  0.0737 -0.0092 -0.3823
11642W        W26773   7.634   3.621   1.249 -0.1792 -0.0267  0.0914
11643W        W26774   1.304   9.941   2.328  0.3053 -0.1667 -0.0809
11644W        W26775  17.933   5.276  13.039  0.0881 -0.2768  0.0210
11645W        W26776  12.880  17.957  10.182 -0.2050 -0.2636  0.1764
11646W        W26777  11.485  10.336  11.695 -0.1482  0.2228  0.1531
11647W        W26778  13.573   3.525  12.987  0.0170 -0.4242 -0.2380
11648W        W26779   0.398   8.665   3.510  0.1176  0.3142  0.0519
11649W        W26780  10.223  16.298  14.571 -0.2293  0.2410  0.1093
11650W        W26781  16.225   9.312  14.220  0.2431  0.1442 -0.1888
11651W        W26782  14.056  11.439   1.772 -0.0736  0.1213 -0.0776
11652W        W26783   5.909  17.116   2.271  0.2508  0.0795  0.1593
11653W        W26784  12.874   2.096   1.144  0.0594 -0.1331 -0.2298
11654W        W26785  15.053  15.345   0.726 -0.0850 -0.2490 -0.0734
11655W        W26786   8.669   6.911  12.411 -0.3029 -0.2305 -0.1391
11656W        W26787  12.755  10.110  12.612 -0.1454 -0.2389  0.0988
11657W        W26788   4.875   8.809   1.783 -0.3155  0.2715  0.0885
11658W        W26789   9.808   9.063   0.167 -0.1984  0.1857  0.3451
11659W        W26790   6.171   9.113  14.048 -0.0420  0.1060 -0.2485
11660W        W26791   3.579   8.352   4.654 -0.2787 -0.3975 -0.1862
11661W        W26792   1.610  11.515  11.954  0.0547  0.0644  0.2418
11662W        W26793  15.034  12.358   2.292 -0.2010  0.1646 -0.1156
11663W        W26794   2.132  16.828   0.028  0.0800 -0.0210 -0.0804
11664W        W26795   4.022  11.624  15.046  0.1019 -0.0232  0.0060
11665W        W26796   9.942   2.805   0.547  0.1276 -0.0377 -0.1450
11666W        W26797   8.868  18.174  16.206  0.1186  0.0729  0.2493
11667W        W26798   8.520   8.646  13.321 -0.0382 -0.0196 -0.2093
11668W        W26799  18.182  12.369  12.390  0.0656  0.1389 -0.1422
11669W        W26800   7.712   5.271   0.246 -0.0694 -0.2036 -0.1056
11670W        W26801   1.515  11.173  14.450 -0.1746 -0.0669  0.0040
11671W        W26802  13.316  11.249  13.211 -0.2344 -0.1078  0.0069
11672W        W26803  10.160   7.575   2.548  0.0378 -0.0955  0.1541
11673W        W26804   5.865  10.282  11.036 -0.4506 -0.2419  0.0050
11674W        W26805  16.119   8.349   4.760  0.1042  0.0361  0.2313
11675W        W26806   2.161  15.368   3.829  0.1336 -0.0876  0.0586
11676W        W26807  11.596  13.020   2.248 -0.0577 -0.0069 -0.0042
11677W        W26808   0.174  14.656   1.442  0.2509  0.2268  0.2153
11678W        W26809   9.908  16.702  14.596 -0.0848  0.0757 -0.0116
11679W        W26810   8.766   9.640  15.412  0.2877 -0.0603 -0.0594
11680W        W26811  16.842   3.074   4.950 -0.0005 -0.0103  0.0087
11681W        W26812  11.555   5.873   0.531 -0.2573  0.0252 -0.2491
11682W        W26813   1.724   2.429  15.712  0.2917 -0.0802  0.0631
11683W        W26814   4.805  14.111   0.213 -0.1033 -0.2789  0.0498
11684W        W26815   3.452   1.121   3.082 -0.1216  0.1441 -0.0887
11685W        W26816  10.799  10.089  15.898  0.0138  0.2334 -0.2059
11686W        W26817   4.548   6.899   4.013 -0.1479 -0.0346 -0.2304
11687W        W26818   8.286  17.763  13.388 -0.1264 -0.1458 -0.1585
11688W        W26819   2.131  15.447  16.006 -0.0531 -0.0660 -0.0828
11689W        W26820  10.956  14.077  16.191  0.0334 -0.2139 -0.1630
11690W        W26821  14.541   3.944   1.841 -0.1908 -0.0396  0.1111
11691W        W26822   8.245   4.343  14.010 -0.4087  0.0538  0.0313
11692W        W26823  13.271  16.977  15.935 -0.0315  0.0529 -0.2769
11693W        W26824  16.155   7.086  15.894  0.2572 -0.0512  0.0494
11694W        W26825   4.963   6.408  13.278 -0.1129 -0.1501  0.1175
11695W        W26826   9.572  14.510  11.436 -0.0821  0.0615  0.0650
11696W        W26827  12.177  10.526  14.282 -0.0127  0.0046 -0.0260
11697W        W26828   6.858  15.682  14.518  0.2867  0.0754 -0.2345
11698W        W26829   3.516   2.022  13.904 -0.2610  0.0472 -0.0599
11699W        W26830  11.829  10.212  11.301  0.0767  0.1679 -0.0887
11700W        W26831  10.694   3.037   2.127  0.2387 -0.1915  0.0664
11701W        W26832  15.592   7.251   5.414  0.2258  0.0750 -0.4679
11702W        W26833   7.646   3.061  11.808  0.1685 -0.2598 -0.1245
11703W        W26834  13.236  12.306   5.640  0.3659  0.1773  0.1616
11704W        W26835  17.231   4.932  11.045 -0.0281  0.1195 -0.1216
11705W        W26836   9.518  10.872   0.079  0.2769  0.0838  0.0915
11706W        W26837   5.676   5.095   3.909  0.0450  0.0011  0.0518
11707W        W26838   1.591  18.116  11.954  0.1118  0.0751 -0.1108
11708W        W26839  15.492  13.791   5.406 -0.0258  0.0446  0.1225
11709W        W26840   5.128   3.345   4.613 -0.1279 -0.4662  0.0502
11710W        W26841  15.511  14.867   2.399 -0.0179 -0.1530 -0.2135
11711W        W26842  12.794   6.536  14.580  0.2074 -0.0391 -0.2078
11712W        W26843   9.971  17.023  15.901  0.0381 -0.1168  0.1732
11713W        W26844  10.293   5.366   0.436 -0.1173  0.2423 -0.1139
11714W        W26845   0.634   6.658  13.170  0.1098 -0.0417  0.0405
11715W        W26846  10.513  11.755   2.710  0.1479 -0.1400 -0.1402
11716W        W26847   3.437  13.955  12.729  0.2769 -0.0878 -0.4047
11717W        W26848  17.653  14.688  14.282  0.1377 -0.0274  0.0970
11718W        W26849  16.933  17.270   2.702 -0.1468  0.3745 -0.1461
11719W        W26850  11.275   0.699   3.273 -0.2491 -0.0398  0.1417
11720W        W26851   7.557  17.506  14.659 -0.1696 -0.1780 -0.2687
11721W        W26852   9.431   9.922  15.852 -0.0060 -0.0066 -0.1286
11722W        W26853  17.347  16.119   0.592  0.2765  0.0437 -0.0457
11723W        W26854   5.707   5.589  12.998  0.0625 -0.1446 -0.1431
11724W        W26855   5.144   5.060  15.609 -0.0459  0.0650  0.1823
11725W        W26856  13.072  14.073   1.325  0.3588 -0.0126  0.0166
11726W        W26857   5.657  14.227  15.275  0.3877 -0.2808 -0.2473
11727W        W26858  12.722  16.322  10.935  0.1190  0.0729  0.2443
11728W        W26859  15.328   3.533   1.262  0.4034 -0.1820 -0.0901
11729W        W26860  12.328  11.593   3.189 -0.0816 -0.1800  0.2291
11730W        W26861  15.019  11.059  15.880  0.1332  0.3280  0.0705
11731W        W26862  10.908  11.395  15.284  0.1734 -0.2560 -0.1243
11732W        W26863   2.891   2.197  11.612 -0.0822  0.1260 -0.1655
11733W        W26864  12.279   0.966   4.729  0.0969  0.0905  0.0614
11734W        W26865  13.438  11.608  15.344 -0.0463 -0.0005 -0.0430
11735W        W26866   4.299   5.869   4.869 -0.0141 -0.2450  0.2071
11736W        W26867   8.112  16.042  16.214  0.0501  0.2113 -0.2489
11737W        W26868  12.598   1.907  14.260 -0.0652 -0.0745 -0.0026
11738W        W26869   2.303  16.356  12.032  0.2997 -0.1040 -0.1063
11739W        W26870  15.712   2.337  13.843  0.2148  0.1747 -0.0335
11740W        W26871  16.607   1.667  14.564 -0.2122 -0.4787 -0.1516
11741W        W26872   7.218  14.083  12.928  0.0215 -0.2386 -0.0179
11742W        W26873   4.236  11.770   0.679 -0.0390  0.1448  0.0490
11743W        W26874   3.318   5.390   0.865  0.1062 -0.1451  0.1012
11744W        W26875  17.385   5.225  13.939 -0.0021 -0.0834 -0.0640
11745W        W26876  12.290  12.816  15.317 -0.0499 -0.1681  0.0580
11746W        W26877  15.030  12.895  12.112 -0.0905 -0.2310 -0.2581
11747W        W26878   5.969   0.280  11.304 -0.1543  0.0572  0.4549
11748W        W26879   0.430  11.885   4.456  0.1857  0.0220 -0.0590
11749W        W26880  13.469   6.642   3.334  0.0553  0.2493 -0.4363
11750W        W26881  12.182  17.468   2.383  0.1498 -0.1830  0.1047
11751W        W26882  17.081   9.363  12.310 -0.0402  0.0540 -0.1118
11752W        W26883   0.388   3.449  13.735 -0.1008  0.0149 -0.1284
11753W        W26884  12.729   4.139  13.811 -0.1093  0.0467  0.0019
11754W        W26885  17.348   5.220  12.401  0.0790  0.2236 -0.0559
11755W        W26886  10.610   5.505   4.545  0.1472 -0.0421  0.2255
11756W        W26887  14.149   6.411  15.060 -0.0315 -0.3244 -0.1155
11757W        W26888   7.395  17.222   3.730  0.0140 -0.0533 -0.1003
11758W        W26889  13.672   1.758  14.991 -0.1298  0.3812 -0.1663
11759W        W26890  14.480  11.255   0.112 -0.0771 -0.0083 -0.2471
11760W        W26891   9.382  11.756  11.896  0.2676 -0.0132  0.0642
11761W        W26892   4.927  14.028  12.686  0.2253  0.0480 -0.2382
11762W        W26893   8.033  12.720  15.888 -0.1728 -0.4381  0.1124
11763W        W26894   6.441   4.215  11.962 -0.2349 -0.0061 -0.2364
11764W        W26895   4.246  12.604  12.055 -0.0978 -0.1587  0.1158
11765W        W26896   2.417  10.555   5.630  0.1821  0.1835 -0.2274
11766W        W26897   0.233   2.863  13.535  0.1484  0.0116  0.0544
11767W        W26898   4.043   3.171  11.195  0.2074  0.0222 -0.1729
11768W        W26899   2.412   3.996   4.029  0.1710  0.2085 -0.2154
11769W        W26900   6.528   9.457   3.165 -0.0244  0.2620  0.2542
11770W        W26901   2.147   5.249  14.407  0.0281  0.2413 -0.1834
11771W        W26902   9.353  12.232   4.869  0.2448 -0.0163 -0.1599
11772W        W26903   1.106   4.397  15.610 -0.0788  0.1882  0.2465
11773W        W26904  15.627   6.854  15.923 -0.1430 -0.2434 -0.0521
11774W        W26905   6.322   5.615   2.057  0.0807 -0.2807 -0.1133
11775W        W26906  10.818   3.640   1.892  0.0668 -0.0687  0.1881
11776W        W26907   1.296  18.155  11.092  0.1582  0.1769 -0.3688
11777W        W26908   8.086  14.138  15.457  0.1781 -0.1692  0.2238
11778W        W26909   9.869   7.896  14.645  0.2824  0.1235  0.0641
11779W        W26910   8.522   6.863   2.034  0.1690  0.0091  0.0571
11780W        W26911  15.124  11.596  15.564 -0.1774 -0.4337  0.2510
11781W        W26912  18.151   1.282   3.345 -0.2845  0.1772  0.0480
11782W        W26913   5.514  17.102   5.082 -0.1444  0.0171 -0.0722
11783W        W26914   1.988  13.118   0.171 -0.0786  0.0570  0.0052
11784W        W26915  10.837   7.523  13.978 -0.0015 -0.1403  0.1485
11785W        W26916   9.823   0.971  10.538  0.1252  0.1014  0.0916
11786W        W26917  15.360   3.182  11.874 -0.0430 -0.0779  0.0101
11787W        W26918   6.118   6.707  13.722  0.2268  0.2201  0.0876
11788W        W26919   9.652   1.791   1.433  0.2071  0.0869  0.1577
11789W        W26920  16.531  15.053   1.350 -0.2374  0.0126  0.0519
11790W        W26921  12.486   5.632  14.074  0.1124 -0.0533  0.1927
11791W        W26922   7.251  13.896  13.430 -0.0394 -0.0786 -0.2073
11792W        W26923  13.185  17.944   1.335  0.3452  0.1552 -0.0895
11793W        W26924  13.272   8.478   0.230  0.0509  0.2257 -0.1472
11794W        W26925  16.633   6.974  12.117  0.0940  0.0371  0.3089
11795W        W26926   0.092   4.323  14.282 -0.0964  0.1068  0.3821
11796W        W26927   7.405  14.634  13.048  0.0698 -0.2715 -0.0872
11797W        W26928   0.224   8.326   4.426 -0.2646 -0.0563 -0.1131
11798W        W26929  12.059   9.812  12.152 -0.0531 -0.0946  0.1332
11799W        W26930   2.372  11.564  11.925  0.0253 -0.1277 -0.1266
11800W        W26931  11.565  13.964   1.998  0.0102 -0.0971 -0.0598
11801W        W26932  10.164   4.046   0.549  0.2655  0.0295  0.1295
11802W        W26933  15.704   5.538   0.384  0.3379  0.0717 -0.2162
11803W        W26934  11.632  14.828   3.229 -0.1832 -0.0581  0.0257
11804W        W26935   6.921  18.172   3.784  0.0341  0.0185 -0.0059
11805W        W26936  16.879   5.877   0.691  0.0814 -0.1105 -0.1873
11806W        W26937   9.824  16.880  11.640  0.0862  0.0705 -0.2432
11807W        W26938   6.752  11.049  13.474 -0.0479  0.1261 -0.1457
11808W        W26939   6.146   9.035  15.636  0.0877 -0.1228 -0.1604
11809W        W26940   2.125  10.597   0.025  0.0489  0.0066  0.0237
11810W        W26941   7.293  15.098  15.168 -0.0582 -0.1186 -0.2022
11811W        W26942  12.073  16.730   2.836  0.3639  0.0162  0.1053
11812W        W26943   9.059  12.405   3.131  0.2742 -0.1953 -0.4378
11813W        W26944  14.400  17.009   1.333 -0.4359 -0.2007 -0.1461
11814W        W26945  13.749   2.541   4.076 -0.1913  0.0044  0.0244
11815W        W26946   0.684   1.078  15.926  0.1371  0.2435 -0.0066
11816W        W26947  12.610  11.105  12.375  0.0006  0.0005 -0.0627
11817W        W26948   7.347   1.776  15.674 -0.3174  0.0104  0.1748
11818W        W26949  17.704   7.726  12.464  0.3324  0.0262  0.0325
11819W        W26950  11.884   2.959  14.496  0.0014 -0.1719  0.2757
11820W        W26951  12.281  11.230   4.417  0.0712  0.2539  0.1379
11821W        W26952   8.272   7.622   6.341 -0.3371 -0.0915  0.0767
11822W        W26953  14.046   5.601   2.308  0.0657 -0.2620  0.1393
11823W        W26954   6.314   6.808  15.196  0.2737 -0.1599  0.0881
11824W        W26955   6.097  10.451   5.476 -0.0898 -0.0504 -0.0348
11825W        W26956  10.614   6.431   5.636  0.0044  0.1542 -0.4071
11826W        W26957  11.683  14.302   0.544 -0.0893  0.2703 -0.0394
11827W        W26958   8.664   1.048   5.255  0.0724 -0.0574  0.2708
11828W        W26959  12.204  13.404  11.192  0.0681 -0.2535 -0.0762
11829W        W26960  15.508  17.830   2.739  0.0924  0.0290 -0.0507
11830W        W26961  13.970   8.304   2.437 -0.2561 -0.0844  0.1757
11831W        W26962  18.015  13.286   5.039  0.0990 -0.0771 -0.1533
11832W        W26963  17.197   2.596  15.386  0.1327 -0.0731  0.3045
11833W        W26964  15.560   9.458   0.692  0.0205  0.2674  0.2229
11834W        W26965   7.914  10.707   9.643 -0.0286 -0.0654  0.1877
11835W        W26966   7.373  12.683   2.067 -0.2946 -0.2318 -0.1373
11836W        W26967   9.889  10.925   4.093  0.2029 -0.2431  0.1458
11837W        W26968  12.333   3.376   1.203 -0.1414  0.2514 -0.0903
11838W        W26969   6.928  11.368  13.847 -0.5034 -0.2883  0.2888
11839W        W26970   9.962   9.806   1.369  0.1711  0.1927  0.2320
11840W        W26971  16.043   6.676  14.793  0.0428 -0.1084 -0.3878
11841W        W26972   3.990   0.473   3.293 -0.4459 -0.2375 -0.0881
11842W        W26973  17.098  11.575  11.581 -0.0190  0.2744  0.3537
11843W        W26974   0.933  14.646   4.512  0.0696  0.1874 -0.3871
11844W        W26975  10.918   6.620  11.367  0.2778 -0.3023 -0.0516
11845W        W26976  16.272   3.364  13.982  0.2716  0.3582 -0.0458
11846W        W26977  16.131  11.825   0.775  0.0178 -0.3158 -0.0684
11847W        W26978  16.063  13.062  11.644 -0.0692 -0.0994 -0.0981
11848W        W26979   7.240   9.999  12.360 -0.1631 -0.1794 -0.1957
11849W        W26980   3.612   1.121  14.100  0.1308 -0.0244 -0.0229
11850W        W26981  15.287  11.105  11.333  0.0541  0.3861  0.0858
11851W        W26982  13.634  15.566  13.879  0.3496  0.1832 -0.0253
11852W        W26983   8.213   0.043   0.261 -0.0085 -0.0781  0.2297
11853W        W26984  16.921   0.151  11.125  0.0734  0.2358 -0.2674
11854W        W26985   6.067  14.147   0.385  0.2185  0.0684  0.1238
11855W        W26986   6.648   8.914  11.044  0.1205  0.0421  0.2649
11856W        W26987  10.018  13.185  12.419  0.1757  0.0400 -0.4554
11857W        W26988   7.030   2.432  13.464 -0.0164 -0.2517 -0.0852
11858W        W26989  10.152  10.465   1.020 -0.0267  0.1296  0.4369
11859W        W26990   3.329   0.216  10.317 -0.1895 -0.1474  0.0469
11860W        W26991   1.724  17.269   1.607 -0.0627  0.1218  0.0289
11861W        W26992  14.688   7.280  12.849  0.2820 -0.0071 -0.1245
11862W        W26993  12.123  13.516   0.761  0.0567  0.0060  0.2860
11863W        W26994   9.357  13.466   9.773 -0.0567 -0.1507  0.0383
11864W        W26995   4.928  10.493   3.160  0.0848 -0.0731 -0.1716
11865W        W26996  15.547   0.061   5.591 -0.1009  0.0154 -0.1156
11866W        W26997   7.789  11.805  11.426 -0.1716  0.0386  0.0452
11867W        W26998  15.040   4.744  15.522 -0.0403 -0.0866  0.0073
11868W        W26999  10.073   2.231   4.329 -0.1206  0.0001  0.0247
11869W        W27000  15.315  10.976   0.613 -0.1693 -0.3082  0.2304
11870W        W27001  15.334   5.010  15.822 -0.1743 -0.0264 -0.4150
11871W        W27002  14.093  13.351  13.679 -0.2996  0.1148  0.0556
11872W        W27003  14.256  16.008   4.306 -0.0401 -0.0144  0.1298
11873W        W27004   4.835   5.625   1.998 -0.0262  0.0018  0.0400
11874W        W27005  11.254  17.496  10.698 -0.0976  0.0221 -0.0438
11875W        W27006   9.065   5.351   3.131  0.1056  0.1569 -0.2412
11876W        W27007   1.214  17.854  15.269  0.0351  0.0304  0.0094
11877W        W27008   2.396  13.963   4.210 -0.0459  0.0418  0.3195
11878W        W27009   7.562   4.639   3.821 -0.1956 -0.1070  0.0967
11879W        W27010   4.082  18.002   1.309 -0.0745  0.0858 -0.3248
11880W        W27011   9.860   0.164  11.397  0.2419  0.0001 -0.0853
11881W        W27012  15.056  16.143  13.873  0.0640  0.1230 -0.0224
11882W        W27013  11.003  11.228   1.201 -0.1775  0.5077  0.0601
11883W        W27014  17.862   9.564   1.616 -0.1498  0.0558 -0.0241
11884W        W27015   2.719  17.386  14.779 -0.1000 -0.1032  0.2566
11885W        W27016  13.969   4.755  16.116  0.0226 -0.2239  0.1126
11886W        W27017  16.882   4.861   4.700 -0.5275 -0.1228 -0.0641
11887W        W27018   4.247  12.516  14.888 -0.2041 -0.0534 -0.2254
11888W        W27019   3.829   3.254   2.283  0.3295  0.1679  0.0811
11889W        W27020   3.035  11.559  10.501  0.2037  0.0415 -0.2136
11890W        W27021  13.768   2.626  14.613 -0.0754  0.0195  0.1668
11891W        W27022  11.710  15.494  11.858 -0.0017 -0.1404  0.0894
11892W        W27023   2.438  15.722  13.936  0.0757  0.1565 -0.3859
11893W        W27024  11.035  11.945  15.301  0.1056  0.1390 -0.0534
11894W        W27025  13.336   4.649  15.549  0.2067 -0.0354  0.0045
11895W        W27026   4.518   4.322   3.332 -0.2439  0.1317 -0.0024
11896W        W27027   0.208  14.803  12.972  0.0966  0.1355 -0.0994
11897W        W27028   6.593   5.506  11.595 -0.1407 -0.2918  0.2805
11898W        W27029   5.082   0.109  15.343 -0.1985  0.0389 -0.1673
11899W        W27030   2.378   0.113  11.487 -0.1118  0.0793  0.3181
11900W        W27031   0.313  15.010  16.213 -0.4793 -0.1297  0.0250
11901W        W27032  18.016  17.917  13.129 -0.1823 -0.3081  0.0937
11902W        W27033   6.659  13.867  12.976 -0.1307 -0.3487  0.0687
11903W        W27034  16.953  15.378  12.014 -0.0195 -0.0215 -0.0983
11904W        W27035  11.363  14.144  12.832  0.5819  0.2846 -0.0184
11905W        W27036   0.465  14.966  12.527  0.1144  0.1028  0.0164
11906W        W27037   6.156   9.003   9.646 -0.1567  0.0159  0.4827
11907W        W27038  14.535  16.703   4.237  0.3220  0.0630 -0.1550
11908W        W27039   1.053  16.383  14.755 -0.0909  0.0381 -0.0160
11909W        W27040  15.698  16.726   4.946  0.2709 -0.0195 -0.0678
11910W        W27041  13.642  15.307   2.892 -0.2320 -0.0633 -0.2357
11911W        W27042   0.221  14.171  11.962 -0.2230  0.2128 -0.0881
11912W        W27043   5.935  13.876   2.314  0.0713 -0.1231  0.3770
11913W        W27044  12.414   6.311  11.552 -0.1086 -0.1589  0.0392
11914W        W27045  15.025  15.380   1.215 -0.1018  0.1963 -0.1262
11915W        W27046  11.722   9.647  13.096  0.1243  0.4465 -0.3367
11916W        W27047  16.130   7.251   3.388  0.1653  0.2905  0.1374
11917W        W27048   5.556  14.758  12.796  0.2249  0.4882 -0.1974
11918W        W27049   4.567   1.945   3.033  0.2530  0.0014 -0.0566
11919W        W27050   5.792   9.073   2.915 -0.2418  0.3017  0.1286
11920W        W27051  10.631   4.133  12.029  0.1107  0.1054 -0.1830
11921W        W27052  16.933  16.853   1.405 -0.1571 -0.4391  0.1055
11922W        W27053  14.830  11.097  12.679  0.3873  0.1512 -0.0473
11923W        W27054  14.064   9.273  13.216 -0.0764 -0.4386  0.3650
11924W        W27055   3.222  10.513   1.839 -0.3196 -0.1316  0.1658
11925W        W27056   9.053  16.387   3.976 -0.2370 -0.2651 -0.0134
11926W        W27057   4.639   8.481   5.211 -0.1237  0.1100  0.1839
11927W        W27058   9.806   3.203  13.365  0.0097  0.4118  0.0135
11928W        W27059   5.256   5.347   4.669  0.2448 -0.2618  0.0670
11929W        W27060   8.027   4.706   5.000  0.1046  0.0856 -0.0365
11930W        W27061  18.112   8.696  13.177 -0.3103  0.0460  0.1380
11931W        W27062   4.698   9.399  12.606 -0.0828  0.1748  0.0318
11932W        W27063   8.937  15.953   0.395 -0.3287  0.1854 -0.1197
11933W        W27064  18.183  10.746   0.945 -0.1848 -0.1372  0.2328
11934W        W27065   3.417   2.297   5.649  0.0366 -0.2891  0.3068
11935W        W27066   4.710  13.422  11.344 -0.0072  0.1783 -0.0889
11936W        W27067  17.437   0.183   3.146  0.2882  0.0501  0.0615
11937W        W27068  16.059   6.962   2.742  0.0930 -0.0292 -0.1393
11938W        W27069   5.890  11.655  13.926  0.1373 -0.0940 -0.2147
11939W        W27070   7.381   1.812  10.792 -0.0149  0.0103  0.0499
11940W        W27071   0.724   8.643  11.904  0.0776 -0.1556  0.2640
11941W        W27072  12.234   7.533   3.360  0.1793 -0.1265 -0.0364
11942W        W27073  13.953   5.965  11.491  0.1069 -0.0976  0.0866
11943W        W27074   4.129   1.240   4.483  0.0823 -0.1698  0.0600
11944W        W27075   0.930  12.115  10.494 -0.1487  0.0941  0.2374
11945W        W27076  15.528  10.787   1.075  0.1589  0.0623  0.1603
11946W        W27077  14.905   4.759  13.780  0.0569 -0.0615  0.1475
11947W        W27078   9.609  11.313   3.964  0.0694  0.0416 -0.1343
11948W        W27079   7.843  14.565  15.398  0.2379 -0.1596 -0.2138
11949W        W27080  10.949  13.555  14.172 -0.0332  0.2003 -0.1300
11950W        W27081   1.232  16.472   1.980 -0.1641  0.0244 -0.2131
11951W        W27082  14.252   8.187  11.107  0.2819 -0.0523  0.1254
11952W        W27083  10.682  10.781  14.119 -0.1011  0.1435  0.0627
11953W        W27084   6.457   6.875   1.306 -0.1189 -0.2278 -0.1026
11954W        W27085   2.550   8.830   1.313  0.0575 -0.1711  0.1180
11955W        W27086   8.631   9.385  13.673 -0.0214 -0.1420  0.0136
11956W        W27087   8.873  10.086   4.092  0.2329  0.2947  0.0131
11957W        W27088  11.832   6.636   5.117 -0.1329 -0.1073 -0.2637
11958W        W27089   0.412  13.292  12.237  0.0114  0.2965  0.0681
11959W        W27090  17.031   3.420  10.972 -0.0532 -0.1855  0.0686
11960W        W27091  16.306   5.093   4.675 -0.0063  0.2958  0.1997
11961W        W27092   9.223  16.236   4.444 -0.0249  0.3187  0.3134
11962W        W27093   7.900   7.308   2.100 -0.1257  0.0743 -0.0861
11963W        W27094   4.398   8.314  11.244  0.2566 -0.3180 -0.2236
11964W        W27095   7.092   7.535   3.653  0.2906 -0.1094 -0.0599
11965W        W27096  11.118   4.461  14.271  0.0254  0.0443 -0.1023
11966W        W27097   0.882   5.026  14.434 -0.0756 -0.1672 -0.2926
11967W        W27098   4.120   8.431   4.662 -0.2413 -0.1355 -0.1330
11968W        W27099   2.750  12.996  15.685 -0.1277  0.2076  0.0647
11969W        W27100   7.441   5.581  12.572  0.0850  0.0345 -0.1531
11970W        W27101  14.860   0.299   1.185 -0.0859 -0.1537  0.0023
11971W        W27102  15.763   9.433  11.714 -0.0671  0.3310 -0.0623
11972W        W27103   6.309   2.018   4.892  0.1890  0.2114  0.0338
11973W        W27104  10.275   6.499   5.077  0.1745  0.1419  0.1207
11974W        W27105  15.806   0.759   6.272 -0.1951  0.0152  0.0027
11975W        W27106   8.406   4.656   5.304  0.1179  0.1201  0.1090
11976W        W27107  13.684  11.114  15.147  0.2435 -0.1406 -0.0852
11977W        W27108   3.964   4.192   0.220  0.1027 -0.1924  0.0400
11978W        W27109   1.038   9.115   4.944  0.0538  0.1918  0.0105
11979W        W27110   7.448   2.525   1.705 -0.1080  0.2177  0.0039
11980W        W27111   6.825   6.330  15.528  0.1490 -0.3020  0.1409
11981W        W27112   3.150   7.039  13.837 -0.0078 -0.1939  0.0751
11982W        W27113   4.367  12.108  11.526 -0.1749 -0.1105  0.2220
11983W        W27114   1.592  16.245   6.119  0.0507 -0.2643  0.0243
11984W        W27115  14.123  12.179   0.141  0.2416  0.0892 -0.1544
11985W        W27116   1.164  13.336   2.870 -0.3860 -0.0501  0.2087
11986W        W27117  12.077   5.627   1.396  0.0348 -0.0878 -0.2064
11987W        W27118   2.636   8.094  12.785 -0.1952 -0.0318  0.1521
11988W        W27119  13.807   9.869   2.100 -0.0100  0.1017 -0.1514
11989W        W27120   9.532   7.796   3.915  0.0407  0.0510  0.1688
11990W        W27121   4.818  14.913  14.925  0.0230  0.0224 -0.0231
11991W        W27122  16.079  18.107  15.209  0.0529 -0.0284  0.1309
11992W        W27123   4.293   2.979   2.502  0.2146  0.2071  0.1145
11993W        W27124  12.782  10.596   5.212 -0.2984 -0.1579  0.0577
11994W        W27125   1.899  17.496   4.637 -0.1091  0.1279  0.0087
11995W        W27126  17.109  17.562  13.908  0.1350 -0.1638 -0.1855
11996W        W27127  11.751  14.535   2.777  0.2524 -0.3151  0.2929
11997W        W27128   4.901  14.190  15.926  0.2897  0.0515 -0.3024
11998W        W27129   5.318  15.312  10.562  0.2138 -0.0195  0.0306
11999W        W27130   1.074  12.943   5.615 -0.1495 -0.0249  0.5883
12000W        W27131  17.143   1.647   5.700 -0.3065 -0.1135  0.3157
12001W        W27132   8.528  11.441   1.145  0.1077 -0.0238  0.1118
12002W        W27133   9.291  15.674  14.977 -0.0201 -0.2113  0.1718
12003W        W27134   6.438   3.362   0.682 -0.0189 -0.0772 -0.1166
12004W        W27135   4.581   9.365  14.468  0.2116 -0.1253 -0.2008
12005W        W27136   8.319   4.813  14.909  0.3553 -0.0542 -0.2475
12006W        W27137   8.409   8.575  12.027  0.0245  0.3671 -0.0780
12007W        W27138   1.941  11.187  12.250 -0.2150 -0.2666  0.0930
12008W        W27139  12.175   4.685   0.270 -0.1162 -0.2192  0.2136
12009W        W27140  16.765  16.769   0.920  0.5020 -0.0745  0.0158
12010W        W27141   3.205   9.128   4.650 -0.0388  0.0588 -0.5470
12011W        W27142   2.768  14.727   4.699  0.0778  0.2319 -0.1656
12012W        W27143   1.706   0.203  14.472 -0.0176 -0.2287  0.3621
12013W        W27144   9.307   0.951   6.107  0.1095  0.0915 -0.0296
12014W        W27145  17.792   5.696   3.002  0.5372  0.0900 -0.2204
12015W        W27146   9.572   0.829   4.228 -0.0009  0.2873 -0.0453
12016W        W27147  12.033   7.654   4.082  0.2723  0.3080  0.0583
12017W        W27148  14.483  13.558   3.978 -0.2431 -0.2888  0.0462
12018W        W27149   1.244  17.022   2.076 -0.0614 -0.3069 -0.0788
12019W        W27150   6.043  14.294  14.924  0.0020  0.0532 -0.0950
12020W        W27151  10.872   6.108   1.672  0.3236  0.0712  0.2046
12021W        W27152   0.831  15.002   5.378  0.0330  0.3839  0.0364
12022W        W27153   7.669  17.650   3.607  0.1490  0.1089  0.2715
12023W        W27154   4.099   0.043  10.747  0.1393 -0.0719  0.0026
12024W        W27155   0.963   5.840  15.763  0.1284  0.1485 -0.1748
12025W        W27156   6.309   2.225   4.405  0.0966 -0.0732  0.0272
12026W        W27157   9.602  13.633   4.844  0.2535  0.0811  0.1941
12027W        W27158   0.625  16.961  11.044 -0.3240  0.2201  0.3141
12028W        W27159   7.393  13.028  14.774 -0.1216 -0.2416 -0.1333
12029W        W27160  11.898  13.466  12.404  0.2262  0.4077 -0.1905
12030W        W27161   5.896   5.375  10.527  0.0014  0.1357  0.3522
12031W        W27162   1.719  14.871  13.029  0.3658  0.0327  0.1737
12032W        W27163   1.639   6.485   5.330  0.0780  0.1022 -0.0065
12033W        W27164   0.115   1.676   0.354  0.2524  0.1548  0.2460
12034W        W27165   3.880  11.416   5.224  0.0412 -0.1033  0.1560
12035W        W27166  15.723   8.822   5.506  0.2408  0.0348 -0.2147
12036W        W27167  12.767  17.575   5.069  0.0876 -0.0395  0.1010
12037W        W27168  11.244   9.910   1.721  0.1248  0.1589 -0.1709
12038W        W27169  14.908   6.585   1.663  0.1630 -0.1444  0.2561
12039W        W27170  11.429   5.371   0.958  0.1738 -0.1648  0.2820
12040W        W27171   1.084  14.084  12.468 -0.2322 -0.1807 -0.1507
12041W        W27172  16.010  15.516  13.851 -0.3804 -0.1695 -0.1598
12042W        W27173   0.100   6.869   5.462 -0.0092  0.0382 -0.0417
12043W        W27174  11.548   2.359   4.966  0.2540  0.0650  0.0723
12044W        W27175  14.433   5.004   2.708 -0.1672  0.1279  0.0210
12045W        W27176  10.432  14.459  13.015  0.0341 -0.1664  0.1629
12046W        W27177  16.665   4.738   1.277 -0.1408 -0.1618 -0.1967
12047W        W27178  17.801  17.942   3.569 -0.2349  0.4185  0.2302
12048W        W27179   6.085  10.034  11.451 -0.0390 -0.0860  0.2257
12049W        W27180  17.379   9.237  11.058  0.0081 -0.0461  0.3758
12050W        W27181  11.929   9.995   0.986  0.3300 -0.2228 -0.1720
12051W        W27182  10.629   6.119   6.047  0.1300  0.2003 -0.0903
12052W        W27183   6.610  14.430   1.670 -0.0194  0.0696 -0.1109
12053W        W27184   6.166  12.542  12.150 -0.3109  0.0728 -0.0621
12054W        W27185   5.382   3.506   4.184  0.1038  0.0256 -0.0627
12055W        W27186  16.318   6.596   1.227 -0.3450  0.0945 -0.0333
12056W        W27187   0.889  13.690  13.757  0.2117 -0.1907  0.0744
12057W        W27188  16.180   2.889  15.898  0.1711  0.1009  0.2141
12058W        W27189   5.395  13.926   1.898  0.0526 -0.2473  0.0026
12059W        W27190  13.262   5.614   0.347 -0.1317 -0.2503  0.0830
12060W        W27191  10.411   8.025  12.909  0.0959  0.1003  0.0194
12061W        W27192  17.600   4.328   2.317 -0.1428 -0.1621  0.0696
12062W        W27193  15.337  12.535  14.719 -0.0951  0.2127  0.0152
12063W        W27194  17.405  14.293  11.392  0.1113 -0.1884  0.1682
12064W        W27195  16.430   7.325  13.608  0.4445 -0.0947 -0.2994
12065W        W27196  15.973  17.762   2.951 -0.2366 -0.0314  0.2734
12066W        W27197  12.312   9.252  14.835  0.0275 -0.4381 -0.1527
12067W        W27198   9.172   2.258  11.339 -0.0634 -0.2104 -0.0643
12068W        W27199  15.978   2.871  13.929  0.0687  0.0491 -0.0312
12069W        W27200   9.935  17.471   1.491  0.1769  0.2230 -0.0677
12070W        W27201  11.845  10.558   5.377 -0.0028  0.0230  0.1335
12071W        W27202   2.568  14.941  13.004  0.0376 -0.3287 -0.1089
12072W        W27203  15.791  14.167   1.681  0.1300 -0.1668 -0.0942
12073W        W27204   4.283  11.869   1.819  0.0552 -0.0238 -0.3849
12074W        W27205  17.442   7.347   5.017 -0.1513 -0.0074  0.0911
12075W        W27206  11.959  15.634  15.482 -0.1697 -0.1834 -0.1266
12076W        W27207   0.640  16.621   3.544  0.1839 -0.4094  0.1938
12077W        W27208   8.783  14.991   1.739 -0.2640 -0.3453  0.0955
12078W        W27209  13.660   6.589   1.505 -0.0978 -0.0329 -0.0983
12079W        W27210   6.531   7.414  11.472 -0.0366  0.2328 -0.1322
12080W        W27211   1.693  17.814   1.880 -0.1858 -0.2369  0.1152
12081W        W27212  13.748  14.116  15.289 -0.0247  0.2111 -0.3410
12082W        W27213  13.050  17.917  14.874  0.0484  0.0304 -0.0384
12083W        W27214  15.224  14.534  15.574  0.2176  0.0915 -0.0968
12084W        W27215  10.111  17.387   5.809 -0.2456 -0.2789  0.1180
12085W        W27216  10.255   4.448  15.546  0.1436  0.1315 -0.0022
12086W        W27217  14.818   5.605  11.789 -0.0101 -0.2659  0.0250
12087W        W27218   5.498   0.405   2.144  0.1528 -0.0740  0.2627
12088W        W27219  11.283   3.146  12.253 -0.1086 -0.2101  0.1632
12089W        W27220   0.908  17.458   4.963 -0.2285  0.0681  0.1981
12090W        W27221  16.511   6.351  11.446 -0.1230 -0.0127  0.1644
12091W        W27222  17.994   8.439   5.809  0.1782 -0.1968  0.1077
12092W        W27223  16.898   5.025  12.257 -0.2944  0.0822  0.0898
12093W        W27224   4.634   3.183   2.116 -0.2355  0.1136 -0.1591
12094W        W27225   5.205   7.533   3.765 -0.0467  0.0546 -0.0565
12095W        W27226   7.498  11.185  12.313 -0.2287  0.2648 -0.0095
12096W        W27227   0.526   4.549  14.384 -0.0580 -0.0415 -0.0231
12097W        W27228  10.598   5.227   3.675  0.1461 -0.1371  0.3013
12098W        W27229   2.127   7.327  12.106  0.1288 -0.0086 -0.1975
12099W        W27230  17.490   3.825   3.225 -0.1533  0.3334 -0.1270
12100W        W27231  18.016   6.038  12.960  0.0085 -0.3555 -0.1281
12101W        W27232   4.294  12.436   3.412  0.1399 -0.2367 -0.1310
12102W        W27233  12.247  14.967  11.192  0.3788  0.1565  0.0221
12103W        W27234  15.731   2.304   0.302  0.2970 -0.2346  0.1244
12104W        W27235  12.844   9.561   2.155  0.1803  0.1370 -0.2685
12105W        W27236  11.162  15.394   1.288 -0.0805 -0.0608 -0.1572
12106W        W27237  12.543   2.160  11.130  0.1482 -0.0049  0.0929
12107W        W27238   0.142  14.344   4.500 -0.1380 -0.1102 -0.2597
12108W        W27239   6.080   4.341  13.641 -0.0374  0.3367 -0.0198
12109W        W27240  10.946   8.857  12.431  0.0944  0.0920  0.1050
12110W        W27241  10.891   4.022  14.012 -0.3053 -0.2150  0.0483
12111W        W27242   7.598  11.601  15.577  0.0420 -0.2667  0.0328
12112W        W27243   1.840  16.485  16.075 -0.0287 -0.2963  0.1612
12113W        W27244   9.817  15.792  12.612 -0.0335 -0.2437  0.3311
12114W        W27245   0.994  16.284  11.467 -0.1447  0.4625  0.0494
12115W        W27246   1.275   7.819   0.342 -0.0927 -0.1644  0.3496
12116W        W27247  17.112  15.661   4.804 -0.1119 -0.1500  0.0080
12117W        W27248  13.237   9.702   1.300  0.0057  0.0050 -0.1192
12118W        W27249  16.400   4.905   0.824  0.2631  0.0471  0.1537
12119W        W27250  12.124  14.385  15.008  0.0140 -0.3142  0.0764
12120W        W27251   4.858  17.049  12.814 -0.0180  0.1038  0.0763
12121W        W27252   8.443  15.096  15.785 -0.3673 -0.0289  0.1708
12122W        W27253   6.195  14.419   3.002  0.0428 -0.0735 -0.0930
12123W        W27254   3.333   9.890   4.700  0.0167 -0.1896 -0.0548
12124W        W27255   5.380  16.909  15.627 -0.0305 -0.0258 -0.0277
12125W        W27256   3.441  16.649   1.315  0.0791  0.2667 -0.0503
12126W        W27257   7.849   2.185   1.773  0.2680 -0.2236 -0.1414
12127W        W27258  17.392  10.289  11.370  0.1188 -0.0099 -0.1896
12128W        W27259   1.211  12.422  11.944 -0.0665 -0.2900  0.0319
12129W        W27260   1.746   4.663  11.974  0.1714  0.0459  0.1289
12130W        W27261   3.653   6.907  13.711  0.2702 -0.0837 -0.1778
12131W        W27262   3.494   4.645   1.669 -0.4011 -0.1849  0.0601
12132W        W27263   5.640   3.878  12.598  0.1616 -0.1567  0.0575
12133W        W27264   7.771   6.948  12.894  0.0559 -0.1998 -0.0162
12134W        W27265   0.309  12.106   2.611  0.0128 -0.1241 -0.1014
12135W        W27266   1.433  14.552  12.423  0.3368  0.2574 -0.3244
12136W        W27267   5.095   7.414   5.558 -0.1182  0.1388  0.2512
12137W        W27268  16.108   1.131  15.103  0.1244 -0.0509  0.2290
12138W        W27269   1.207  11.081   3.032  0.0929  0.0542  0.0469
12139W        W27270  11.916   1.275   2.598 -0.0131 -0.1483  0.1311
12140W        W27271  11.087  18.140  15.903 -0.1424 -0.3305  0.1336
12141W        W27272  12.447   5.046  11.758  0.0958  0.1326  0.1418
12142W        W27273  16.939  16.300  15.955  0.0571  0.1954  0.0805
12143W        W27274   9.324   3.172  15.876 -0.1632  0.1352  0.2067
12144W        W27275  10.952  13.527   4.053 -0.2667  0.1518 -0.0667
12145W        W27276  14.441   0.691   2.527  0.1928  0.0313  0.0056
12146W        W27277   6.171  16.794   2.666 -0.1840 -0.0626 -0.0146
12147W        W27278   9.623   6.865  15.305 -0.1001 -0.1228  0.0438
12148W        W27279  13.414   0.508   5.590  0.0822  0.1607 -0.2029
12149W        W27280  15.005   3.934  13.931  0.1122 -0.2180  0.1896
12150W        W27281   0.701   2.477   1.044 -0.1179  0.0720  0.1145
12151W        W27282   9.282   3.666  11.773 -0.0161  0.2196 -0.1532
12152W        W27283  14.630  11.172   4.391  0.1208  0.0209 -0.1429
12153W        W27284   4.088  10.577  11.900 -0.3698  0.0938 -0.1075
12154W        W27285   1.626   8.772   2.632  0.1336 -0.1114  0.1854
12155W        W27286  12.725   1.211   4.840 -0.2049 -0.0018 -0.1529
12156W        W27287  12.331  17.208   4.487 -0.1106  0.1968 -0.1106
12157W        W27288  12.561   6.564   3.928 -0.2207 -0.0850 -0.0090
12158W        W27289  17.405   3.373  11.275 -0.2546  0.0951 -0.0820
12159W        W27290   2.746   3.189   5.180  0.0009  0.0019 -0.0684
12160W        W27291  15.763   5.150   4.476 -0.2008  0.1595  0.0282
12161W        W27292   1.217   0.686   2.492  0.0320 -0.1474 -0.0498
12162W        W27293   7.807  18.009   5.260 -0.1947 -0.0210 -0.1139
12163W        W27294   6.024   9.539   4.217 -0.2262 -0.0663 -0.1541
12164W        W27295   6.083  11.772   0.062 -0.0148  0.2109  0.1972
12165W        W27296  12.013   5.612  13.273  0.1772  0.1559 -0.0674
12166W        W27297   3.087   2.170   4.361  0.2123  0.0566 -0.0503
12167W        W27298   4.338   1.300  13.004  0.0930  0.0439 -0.1571
12168W        W27299  16.291  15.874   1.582 -0.0199  0.1180  0.0336
12169W        W27300  12.237   1.462   4.936  0.2530  0.1577 -0.0919
12170W        W27301  10.100  10.593   3.659 -0.0798  0.0602 -0.0954
12171W        W27302  10.180   0.801   0.823  0.2557 -0.2068  0.0564
12172W        W27303  14.853  12.392  15.007 -0.0266 -0.0690 -0.0645
12173W        W27304  16.229  13.715   3.753 -0.2533  0.0330 -0.2540
12174W        W27305  13.469   9.250   5.313 -0.1635  0.0762 -0.1684
12175W        W27306  12.702   6.486   1.295  0.1146 -0.0761 -0.0690
12176W        W27307   8.031  10.181  10.876 -0.0253 -0.1711  0.2338
12177W        W27308  16.880   9.919  11.360  0.2136  0.1677 -0.0762
12178W        W27309   6.719   5.583   0.360  0.1858 -0.2193  0.1563
12179W        W27310  16.003   5.735   6.280 -0.0073  0.4080  0.0766
12180W        W27311   4.252   4.728  13.952  0.0996  0.0395  0.2169
12181W        W27312   7.514   7.217   1.756  0.2600 -0.1872 -0.1531
12182W        W27313  10.131  16.849   2.149 -0.0146 -0.3788  0.1736
12183W        W27314  10.341  17.040   4.951 -0.2766 -0.3077 -0.4011
12184W        W27315   1.174   1.890  12.769  0.1578 -0.1077 -0.1678
12185W        W27316   5.359   0.347  12.754 -0.0083 -0.1567  0.0576
12186W        W27317   2.069   0.608  14.297 -0.0284  0.0729 -0.0531
12187W        W27318  13.184   5.518   0.827 -0.0094 -0.0397  0.0712
12188W        W27319   5.778   2.891  14.558 -0.0326 -0.0003 -0.2518
12189W        W27320   1.137   5.610   1.251  0.0096 -0.0304 -0.3335
12190W        W27321   2.313  14.138   4.710  0.2850 -0.2377  0.0005
12191W        W27322   1.311  14.815   2.814 -0.1819 -0.2313  0.0023
12192W        W27323  17.316  16.674  15.966 -0.0491 -0.0098  0.1131
12193W        W27324   9.781   3.818  12.609 -0.3200 -0.0309  0.1278
12194W        W27325   1.075  10.826   4.409 -0.3508 -0.1347 -0.2977
12195W        W27326   4.585  12.021  14.240 -0.0168 -0.0325 -0.3194
12196W        W27327   9.404  15.080  13.148  0.0324 -0.3158  0.1877
12197W        W27328  15.332   0.246   0.985  0.4310  0.0643  0.1241
12198W        W27329   1.902   0.855  10.936 -0.3093 -0.1657 -0.2859
12199W        W27330  18.115  15.967   4.401 -0.0482 -0.0005 -0.1195
12200W        W27331  18.082   0.244   4.634 -0.1163  0.0336 -0.1776
12201W        W27332   0.745  12.534   3.306  0.0324 -0.2668 -0.2267
12202W        W27333  15.078   5.113  15.159 -0.0615 -0.0579 -0.0041
12203W        W27334   4.857   8.570   3.533  0.1390  0.0842 -0.1364
12204W        W27335  16.163   6.704   3.389  0.3258 -0.0006  0.1438
12205W        W27336   1.214   2.330   1.081 -0.1144 -0.0155 -0.0610
12206W        W27337  13.443  16.547   0.409 -0.0412 -0.1400  0.0398
12207W        W27338  12.420   6.869   5.679 -0.0744 -0.0784  0.3048
12208W        W27339  15.637  14.177   4.157  0.1863 -0.0261  0.0097
12209W        W27340   6.953  10.491   1.252 -0.2452 -0.1918 -0.2584
12210W        W27341  15.835   4.068  13.089 -0.0293 -0.1343 -0.1617
12211W        W27342  12.914  13.944  13.260 -0.2252  0.0763 -0.2386
12212W        W27343  14.623   1.769   2.458 -0.1658 -0.1566  0.0411
12213W        W27344  14.170   7.243   6.474  0.4545 -0.1378 -0.1861
12214W        W27345   0.229   0.505  13.736  0.0701  0.0052  0.0270
12215W        W27346   5.401  11.117   0.471  0.1031  0.0360  0.2335
12216W        W27347   3.021   3.646  14.785  0.4408 -0.0954 -0.3235
12217W        W27348  16.897  14.043  12.175  0.1314 -0.2090 -0.0803
12218W        W27349  17.737   5.332  16.108  0.2679 -0.2784  0.2445
12219W        W27350   8.958  11.016   4.278  0.1166 -0.0516 -0.2921
12220W        W27351  15.299  16.705   3.479  0.1460 -0.0748  0.0169
12221W        W27352  13.830   3.584   1.325 -0.0009  0.3692  0.1514
12222W        W27353   6.275  15.225   4.370  0.0780 -0.0976 -0.0929
12223W        W27354   2.754  13.504  15.670 -0.1404 -0.0567 -0.0676
12224W        W27355  13.415  12.366  11.117 -0.2759 -0.2496  0.2506
12225W        W27356   2.238   4.643  13.290 -0.2535 -0.2570 -0.1392
12226W        W27357   5.543  16.078  14.612 -0.1038  0.1524  0.4639
12227W        W27358   5.426  15.928  15.851 -0.1624  0.1316  0.0726
12228W        W27359   4.750   4.090  15.825  0.0047 -0.3205  0.2331
12229W        W27360   8.477   1.507  13.426  0.0510 -0.3362  0.0642
12230W        W27361   4.204   6.384   0.339  0.4380  0.3688 -0.0468
12231W        W27362   0.936   4.265  12.302  0.1561 -0.1208  0.3131
12232W        W27363   0.976   6.680  11.108  0.2707  0.0139 -0.1363
12233W        W27364  11.401   1.987   2.872 -0.1422  0.2747 -0.0689
12234W        W27365  10.493   8.608   2.892  0.0602 -0.2204 -0.2335
12235W        W27366   2.330  15.183  13.920  0.1319 -0.0179  0.1307
12236W        W27367  16.962   4.448  14.355  0.1465  0.0866 -0.0998
12237W        W27368  14.756  13.929  14.997 -0.0768  0.1138  0.0968
12238W        W27369   7.534   0.334  11.114  0.1289  0.0783  0.0790
12239W        W27370   9.447  13.150  13.352 -0.0159 -0.1152  0.0850
12240W        W27371   3.762  10.579   1.846 -0.2137 -0.3669 -0.0996
12241W        W27372   0.161   4.000  12.578  0.0711  0.3506 -0.0833
12242W        W27373  11.246   6.740  14.443  0.0564  0.0444 -0.0218
12243W        W27374   7.790  11.127  12.777 -0.4240  0.1631 -0.3291
12244W        W27375  12.304  14.398  16.066  0.1825 -0.1372  0.1140
12245W        W27376  12.633   3.675  11.360  0.2892 -0.2798  0.0424
12246W        W27377   0.242   6.915   3.617  0.2465  0.2259 -0.2785
12247W        W27378  14.952   4.013  12.465 -0.2292  0.0113  0.4844
12248W        W27379   5.310  13.940   4.309  0.2695 -0.0549  0.0042
12249W        W27380   4.024  10.931   2.024 -0.0846  0.0386  0.0664
12250W        W27381  14.387   7.060   2.979 -0.4704 -0.1155 -0.1117
12251W        W27382  16.384  10.888   5.653  0.1909  0.2557 -0.2396
12252W        W27383  17.949   9.784   0.494 -0.2207  0.2620  0.1551
12253W        W27384  14.093  17.167  15.053 -0.2979  0.1518 -0.1182
12254W        W27385   3.168   0.289  13.947  0.0566  0.3770 -0.1964
12255W        W27386  17.656  11.068   1.901  0.0232 -0.0253 -0.3040
12256W        W27387   1.284  17.100   2.835 -0.2868 -0.0388  0.0475
12257W        W27388   9.412  11.120  12.951 -0.1948  0.1225  0.5322
12258W        W27389   4.177   0.424   0.643  0.0229 -0.1673  0.1635
12259W        W27390   8.129   5.137  16.077 -0.4371  0.0539 -0.0358
12260W        W27391   8.078   2.931   3.373 -0.0148 -0.3792 -0.2837
12261W        W27392   0.760   4.191   2.075 -0.0399  0.1071 -0.1757
12262W        W27393  15.637  14.003   2.900 -0.2617 -0.1241 -0.1341
12263W        W27394   4.829  14.937   4.030 -0.1152  0.3908  0.1659
12264W        W27395   6.573   9.513  13.044  0.1856 -0.0300 -0.0209
12265W        W27396  16.572  14.310   6.012  0.2178 -0.0961  0.1755
12266W        W27397   2.160   7.437  10.805 -0.0563 -0.1834 -0.2389
12267W        W27398   0.933   1.454   3.595 -0.3341  0.1236 -0.1014
12268W        W27399   6.563   0.342   2.943  0.0988  0.1611 -0.1339
12269W        W27400   0.092   2.840   4.251 -0.2673  0.2672  0.2564
12270W        W27401   2.143   9.307  15.527 -0.0642  0.1856  0.2095
12271W        W27402   1.791   9.392  11.901 -0.1121  0.1055  0.2772
12272W        W27403   5.573   9.318   4.490 -0.0323 -0.1992 -0.0955
12273W        W27404   8.359   5.235   0.893 -0.1343  0.0631  0.2259
12274W        W27405  11.631  18.181   3.844 -0.1837  0.0169 -0.2026
12275W        W27406  13.369  16.767   2.839 -0.2344  0.1645  0.1647
12276W        W27407   4.655  13.188  14.874  0.1086 -0.2609 -0.0290
12277W        W27408  12.987  14.194   6.431 -0.0431 -0.2687 -0.2790
12278W        W27409   3.375   1.497   2.247 -0.2071 -0.0908 -0.2971
12279W        W27410  11.912  10.048   4.163  0.4153 -0.1944  0.0711
12280W        W27411  14.485   7.587   3.743  0.2000 -0.1699 -0.0275
12281W        W27412   0.521   2.159  14.828 -0.0021 -0.1167 -0.1703
12282W        W27413  16.339   2.524   2.225  0.1375  0.1122  0.3112
12283W        W27414   9.588  12.917   3.321  0.0674  0.0170  0.1780
12284W        W27415   1.294  10.390   4.654 -0.0625 -0.0543  0.1314
12285W        W27416   9.758  11.116  15.282  0.1107  0.1741 -0.1352
12286W        W27417   6.281  12.728   0.906  0.0530  0.2442 -0.0540
12287W        W27418   3.753  12.599   1.468  0.2077 -0.1009  0.0553
12288W        W27419   7.594   2.821   3.138  0.2617  0.0312  0.0292
12289W        W27420   9.219  14.719   9.469  0.2995 -0.3168 -0.1171
12290W        W27421   8.773   7.879  15.298 -0.2284 -0.2647  0.1904
12291W        W27422   9.849   0.263   5.007 -0.1602  0.2045 -0.0817
12292W        W27423  12.303   6.749   5.210 -0.0574 -0.0155 -0.0637
12293W        W27424  14.895  16.563   3.182 -0.1563  0.3240 -0.0844
12294W        W27425  14.832  13.419   4.702 -0.0579 -0.0808  0.1246
12295W        W27426  18.058   8.155   5.292  0.0321 -0.1643 -0.4128
12296W        W27427  17.932   9.564  12.173 -0.2348 -0.2344 -0.1012
12297W        W27428   4.426   3.021  11.560  0.1539  0.3783 -0.3420
12298W        W27429   7.474   3.580   2.154  0.0079  0.2525 -0.0701
12299W        W27430  13.536  11.485   1.916 -0.1513 -0.2145 -0.3234
12300W        W27431   1.331  11.752  16.025  0.0651 -0.1040 -0.2235
12301W        W27432   9.160   3.187   2.500  0.0962  0.1369  0.2610
12302W        W27433  11.905   1.142   1.664  0.1820  0.0760 -0.0946
12303W        W27434   7.797   1.362  11.930  0.0956  0.0369 -0.0376
12304W        W27435  16.179  11.156   2.030  0.2569 -0.0394  0.0516
12305W        W27436  12.286   1.517  12.455 -0.3559 -0.1685  0.0501
12306W        W27437   9.878  12.487   3.439  0.3686  0.3214  0.0976
12307W        W27438  16.272  12.637  11.393 -0.4024  0.3447 -0.0776
12308W        W27439  16.822   9.843  10.358 -0.2358 -0.0474  0.1372
12309W        W27440   5.198   2.784  13.250 -0.2476 -0.1200  0.0945
12310W        W27441  12.048   8.922   1.203 -0.4472 -0.1451 -0.1141
12311W        W27442   8.603   1.950   3.083 -0.1988  0.2333  0.0757
12312W        W27443  10.935   4.920  15.339 -0.0468  0.2002 -0.2918
12313W        W27444  14.729  12.590   2.538  0.0054 -0.0568 -0.1000
12314W        W27445   8.354   8.818   5.371  0.1084 -0.2991  0.1821
12315W        W27446  17.014   0.744   0.876  0.0057  0.2560 -0.0910
12316W        W27447   5.082  13.232   4.764  0.0711  0.1736  0.0120
12317W        W27448   6.633  10.267  14.679 -0.1099  0.0304  0.1533
12318W        W27449  10.583  15.353   0.437  0.0704 -0.3482  0.0158
12319W        W27450   3.400  16.173   1.500  0.1936  0.1199 -0.0566
12320W        W27451  12.752  13.846   5.027 -0.1940 -0.0056 -0.3491
12321W        W27452   8.783   2.275  12.227 -0.0590  0.0675  0.1019
12322W        W27453  13.413   2.251   5.166  0.3631 -0.0391  0.0119
12323W        W27454  17.858  17.006   3.911  0.1265  0.0873  0.2894
12324W        W27455  17.638  11.614   0.790 -0.0371 -0.0969 -0.0637
12325W        W27456  12.493  15.195   2.835  0.2501 -0.0615 -0.1254
12326W        W27457  16.189   5.107  12.085  0.3055  0.1596 -0.1292
12327W        W27458  15.545   2.043  12.673 -0.0475 -0.1669  0.0178
12328W        W27459   5.180  17.606   1.291  0.0102  0.1147 -0.1055
12329W        W27460  12.988   1.041  14.258  0.1996  0.0303  0.0471
12330W        W27461   9.829  13.876  12.931 -0.4227 -0.1258 -0.2132
12331W        W27462  10.291  16.102  13.235 -0.0546 -0.2543  0.1821
12332W        W27463   2.983   9.637  14.715 -0.1958  0.3055 -0.0723
12333W        W27464  15.317  16.289   6.515  0.0150  0.0877  0.2612
12334W        W27465  15.633   0.508   3.805 -0.0947 -0.2665 -0.0101
12335W        W27466  14.513   4.696  14.096 -0.0300 -0.0313 -0.3257
12336W        W27467   7.316  15.734  15.857  0.1389  0.2463  0.2193
12337W        W27468   2.699   0.277   1.174  0.0346 -0.0464  0.1144
12338W        W27469  12.633  13.343  12.111 -0.3476 -0.3503  0.4990
12339W        W27470  13.056  14.576  14.984 -0.0113  0.1113 -0.0878
12340W        W27471   4.585  11.977  12.469 -0.0448  0.0188 -0.2322
12341W        W27472   1.254   3.001   0.365 -0.3046 -0.0949  0.0335
12342W        W27473   2.740   9.940   1.199  0.2139  0.1149 -0.2654
12343W        W27474   7.142   2.180  12.042 -0.0736  0.5143  0.0693
12344W        W27475  18.048  11.397  12.399  0.2511 -0.2927  0.0377
12345W        W27476   3.329   8.962  15.345  0.3234  0.2448 -0.0613
12346W        W27477  15.725   7.710   6.289 -0.1115  0.0653  0.2004
12347W        W27478   0.587   2.081   5.263 -0.3083  0.2875  0.3237
12348W        W27479  11.055   6.423   1.370  0.2121 -0.3069  0.1252
12349W        W27480  11.563   4.972   1.202 -0.0706  0.0577  0.1377
12350W        W27481  11.407   7.231   1.697 -0.0651 -0.1884 -0.2385
12351W        W27482   9.823   0.007  14.074 -0.0187  0.0056 -0.0749
12352W        W27483   5.618   0.966  11.103 -0.2303  0.2036  0.3217
12353W        W27484   4.431  12.544  16.017 -0.4371 -0.0669  0.2356
12354W        W27485  17.699   9.851   3.574  0.3795  0.2231 -0.1827
12355W        W27486   0.747   3.184   3.032 -0.0686 -0.2214  0.1095
12356W        W27487   8.953   9.922   2.505 -0.0560 -0.3325 -0.3239
12357W        W27488   1.563   0.316  13.980 -0.2331  0.3259 -0.1070
12358W        W27489  15.024   3.366  15.423  0.0396  0.0782  0.2047
12359W        W27490   2.661   0.275  14.021  0.0064 -0.0562 -0.0141
12360W        W27491  13.374  17.545   3.828  0.3167  0.2710  0.1682
12361W        W27492   7.435  11.743  10.992  0.0177  0.1884  0.1043
12362W        W27493   1.460  13.246  12.467  0.1428  0.2816 -0.1363
12363W        W27494  12.919   2.462   5.484  0.0464  0.2973  0.0529
12364W        W27495   1.057  12.873  11.749  0.2051  0.0256  0.3007
12365W        W27496  14.992   6.203   0.138 -0.0854  0.0767 -0.2448
12366W        W27497   3.742  10.099   4.900  0.3099 -0.0009 -0.3739
12367W        W27498   2.568  14.043   3.087  0.1744 -0.0516 -0.0035
12368W        W27499   4.614  17.269  14.345 -0.0798  0.0111  0.0026
12369W        W27500  16.680  11.359   0.260 -0.0557  0.0495  0.3420
12370W        W27501   7.298   9.117   0.005 -0.1337  0.1571 -0.0570
12371W        W27502  11.401  13.611  12.262  0.0250  0.1000 -0.0740
12372W        W27503  12.866  15.091   1.527  0.0140  0.1129 -0.2993
12373W        W27504   1.800  13.086  11.292  0.1521 -0.2347 -0.2611
12374W        W27505  17.330  10.482   3.371 -0.4149  0.1396 -0.1026
12375W        W27506   9.725   5.930  14.296  0.0947  0.0842 -0.1524
12376W        W27507   5.812   2.798   3.720 -0.1467 -0.1394 -0.3001
12377W        W27508   0.869  11.491  10.536 -0.0363 -0.2590 -0.1100
12378W        W27509  17.656  12.880  14.505 -0.1311 -0.0043  0.0197
12379W        W27510  13.225  16.180   4.697 -0.1497 -0.0754  0.0789
12380W        W27511  14.372  13.105   3.222 -0.0779 -0.1231 -0.2023
12381W        W27512   7.102   6.259   4.469 -0.0135  0.1017  0.3666
12382W        W27513   3.955   2.936  12.975  0.0118  0.1090  0.0230
12383W        W27514   5.252   4.822   0.733  0.0674  0.5644  0.2670
12384W        W27515  15.210   2.457  13.946 -0.2124  0.1373 -0.0839
12385W        W27516   1.669  11.441  15.870  0.2374  0.0729  0.0051
12386W        W27517  16.735  13.490   4.183  0.1988  0.2312 -0.1475
12387W        W27518  16.114   7.342  11.253  0.0503 -0.0773 -0.1821
12388W        W27519  10.375   0.054   0.398 -0.0710  0.2731  0.0324
12389W        W27520   0.903   0.212  13.768  0.2819 -0.3978  0.1145
12390W        W27521  12.181  14.936   4.464 -0.0591  0.3609 -0.0199
12391W        W27522  13.904  16.368  14.162 -0.0984  0.0288  0.0045
12392W        W27523  13.002  15.053   0.564  0.0734 -0.2363  0.1327
12393W        W27524   4.620   7.122   1.933 -0.0063  0.0261 -0.0658
12394W        W27525  14.766   8.114  14.230 -0.0229 -0.3079  0.0981
12395W        W27526  13.085   1.455  15.994 -0.1962 -0.0409 -0.1776
12396W        W27527  15.605   8.570  12.556 -0.0479 -0.1569  0.3305
12397W        W27528  13.547   9.762   1.682 -0.1302 -0.0631  0.0663
12398W        W27529   3.613   1.784  15.900  0.1747  0.0778 -0.0561
12399W        W27530   2.327  14.245  11.472  0.0045  0.0272 -0.1147
12400W        W27531  13.779  16.812   2.561 -0.2234  0.2980  0.4190
12401W        W27532   3.195   5.021  10.844 -0.1195 -0.0601  0.0604
12402W        W27533  14.581   7.277  15.303 -0.1157 -0.2052 -0.2496
12403W        W27534   9.095   7.695  14.972 -0.1536 -0.2352  0.0699
12404W        W27535   9.016   3.689   6.152 -0.1405 -0.0135  0.0015
12405W        W27536  15.185   9.111  15.350 -0.0694 -0.1051  0.0271
12406W        W27537  15.873   4.187  12.580  0.1509 -0.0989  0.1464
12407W        W27538  14.474   7.515   1.585  0.0679 -0.1677 -0.0915
12408W        W27539  12.013  11.476  11.400 -0.0656  0.1214 -0.1439
12409W        W27540   9.179   0.882  14.424 -0.0301 -0.0539 -0.1103
12410W        W27541  17.572   3.864   0.289 -0.0933  0.0569 -0.0534
12411W        W27542   2.286   4.751  15.626 -0.0076  0.1764 -0.0595
12412W        W27543  17.145   1.679  13.533  0.1447  0.1398  0.0225
12413W        W27544  16.254  17.572   1.075  0.5319  0.1896  0.0420
12414W        W27545   8.690  15.407   1.087  0.0544 -0.0986  0.1612
12415W        W27546   1.538  16.053  12.422  0.0434  0.0657 -0.1039
12416W        W27547  15.147  17.991  11.581 -0.1974  0.1043  0.1680
12417W        W27548  13.186  10.984  16.025  0.4003 -0.3197 -0.1151
12418W        W27549  11.304   2.570  12.929  0.1646 -0.0408  0.4015
12419W        W27550  11.874   7.765  15.444  0.1067 -0.0003 -0.1350
12420W        W27551   1.295  16.693   5.293  0.0368 -0.0388  0.1407
12421W        W27552   2.892   9.644   4.341  0.0424 -0.1919  0.0554
12422W        W27553   3.789   0.310   2.811 -0.2944  0.1023  0.0187
12423W        W27554   8.626   5.172  16.147  0.0315 -0.0145 -0.0596
12424W        W27555  16.399  13.702  13.228  0.0639 -0.4803 -0.4353
12425W        W27556   6.230   5.455   0.120  0.0211  0.2610 -0.1651
12426W        W27557  10.195  13.865  15.789 -0.0138 -0.0239 -0.1485
12427W        W27558   5.330   3.971  13.183 -0.1508 -0.0985  0.1190
12428W        W27559  14.124   7.950   0.079 -0.0707 -0.0405  0.1708
12429W        W27560  17.381  12.576   5.757 -0.0961  0.0527 -0.0939
12430W        W27561  12.549  17.216  12.419  0.0020 -0.2951  0.0927
12431W        W27562  13.697   5.504   1.569  0.0981  0.0746 -0.1143
12432W        W27563  16.548   8.815  11.373  0.1302 -0.2672  0.3259
12433W        W27564  17.276   5.971  12.039 -0.1543 -0.0032  0.2304
12434W        W27565  17.059  11.250  14.587 -0.0239 -0.3047  0.4535
12435W        W27566   9.411  13.997   4.493 -0.0044 -0.0120  0.1062
12436W        W27567  17.764  12.377  14.407  0.0915 -0.1299  0.1886
12437W        W27568  13.444   2.885  13.655  0.2259  0.1421  0.2458
12438W        W27569  10.899   0.917  11.726  0.0215  0.1949 -0.0035
12439W        W27570  16.465  12.395   5.892  0.0914  0.0546  0.1253
12440W        W27571   9.092   1.974   3.387 -0.2148  0.0116  0.2167
12441W        W27572   8.987   0.426  11.942  0.0264 -0.0755  0.1978
12442W        W27573  14.142  17.737   5.731 -0.2600 -0.0726  0.0536
12443W        W27574   3.701  13.467  12.815  0.1396  0.0113  0.1632
12444W        W27575   9.003   7.984  14.378 -0.0704  0.2225  0.2808
12445W        W27576  16.701   2.343   1.898  0.0917 -0.0872 -0.0998
12446W        W27577   8.335   5.315   3.663  0.0237  0.1755  0.0314
12447W        W27578   5.324   6.302  14.032 -0.5105  0.2086  0.0057
12448W        W27579  11.239   5.943  13.988  0.0622  0.0725  0.2168
12449W        W27580   4.303  15.521  13.147  0.0716 -0.1755 -0.0486
12450W        W27581  17.740  11.923  15.481 -0.3062 -0.2526 -0.2271
12451W        W27582   9.300   8.833   1.328  0.1034  0.0926 -0.1272
12452W        W27583  10.219   9.411  16.198  0.0865 -0.1151  0.0324
12453W        W27584  16.641  17.074   0.041 -0.2265 -0.2135 -0.1038
12454W        W27585  14.560  14.033  11.519  0.2018  0.2710  0.2666
12455W        W27586   7.976  16.969  11.139 -0.0514 -0.3358 -0.3310
12456W        W27587   1.195   9.190   5.375 -0.2650  0.0172 -0.0896
12457W        W27588   4.270  15.601  10.177 -0.0628  0.1963 -0.0739
12458W        W27589   7.196   7.932  11.616  0.0854  0.0394  0.1667
12459W        W27590   4.086   6.303  11.031 -0.0387  0.1718  0.0139
12460W        W27591   8.491  12.000  15.852 -0.2177 -0.0136 -0.0469
12461W        W27592   1.704   6.058  13.210  0.0062  0.1919 -0.0769
12462W        W27593  14.959   5.817   5.344 -0.2411 -0.1073  0.2738
12463W        W27594  15.635  17.724  12.797  0.1935  0.2595  0.0569
12464W        W27595   3.390   5.487  10.941  0.2329 -0.2548 -0.0365
12465W        W27596  16.809  11.011  12.188  0.2185  0.2024  0.1544
12466W        W27597   9.663   9.741   4.616 -0.0357  0.2604 -0.2169
12467W        W27598   8.508   9.236  14.505 -0.1710  0.3153  0.1043
12468W        W27599   0.020   6.988  13.774  0.0098 -0.0930  0.0195
12469W        W27600   2.853  12.259  15.160  0.1384 -0.2928  0.0902
12470W        W27601   1.746   8.259  12.164 -0.0877 -0.1246  0.2213
12471W        W27602  10.910   7.464   0.858 -0.1038 -0.1326 -0.1387
12472W        W27603   8.117   9.446   4.123 -0.1508  0.1863  0.1718
12473W        W27604  15.025   1.950  14.771 -0.5559  0.0424 -0.0348
12474W        W27605  15.548  10.220   3.020 -0.2267  0.0337  0.0182
12475W        W27606  11.241  10.713   1.191 -0.0267  0.1873  0.0083
12476W        W27607  11.452   4.080  13.148  0.0906 -0.1484 -0.0146
12477W        W27608   7.477   1.226  15.079  0.2668 -0.2323 -0.1477
12478W        W27609  15.640  17.488   3.768  0.0200 -0.2107 -0.1096
12479W        W27610  16.689  13.449   0.081 -0.0815  0.0110  0.3831
12480W        W27611  14.239   4.252   0.195 -0.0108  0.1013 -0.0620
12481W        W27612  12.463  12.136  13.136  0.1220  0.0273  0.1322
12482W        W27613   0.989   5.252  14.856  0.0587  0.0842 -0.2048
12483W        W27614   2.365   2.057   1.026  0.2373 -0.1581 -0.0637
12484W        W27615   2.485  10.459  11.438  0.0420 -0.0056  0.0105
12485W        W27616  11.985   4.705   1.492  0.0868  0.0225  0.0983
12486W        W27617   8.395  12.211  14.421  0.1427  0.4342  0.0799
12487W        W27618   9.115   4.485   4.732 -0.0526 -0.0381 -0.1941
12488W        W27619  10.125   8.653  11.764 -0.3259 -0.0601 -0.1105
12489W        W27620  11.891   0.883  14.889 -0.1682 -0.1115  0.0876
12490W        W27621   1.355   0.040   4.494 -0.2346  0.0527  0.2562
12491W        W27622   6.914  17.834  10.857 -0.2054  0.1362 -0.1387
12492W        W27623  10.910  15.608  15.950 -0.1871 -0.2301  0.0133
12493W        W27624   0.170  14.161  15.171  0.2453  0.2030 -0.1244
12494W        W27625  10.993  11.082  13.806 -0.0369 -0.0459  0.1440
12495W        W27626  10.186  16.337   4.453 -0.2100  0.1426 -0.2067
12496W        W27627   8.845  12.964  11.625  0.0832 -0.0400  0.0134
12497W        W27628  13.191   9.699   3.898  0.2273 -0.1063  0.1722
12498W        W27629   2.633  14.811   1.584 -0.0544  0.2572 -0.0802
12499W        W27630   2.206   3.709   5.577 -0.0308  0.0390 -0.1498
12500W        W27631  14.032  17.489  15.635  0.0047  0.1279  0.1458
12501W        W27632   7.539  16.816   1.567  0.1076  0.3356  0.3146
12502W        W27633   5.849  17.159  13.972 -0.3438  0.0578 -0.3001
12503W        W27634   5.642   5.150  13.186 -0.2351  0.1024 -0.1465
12504W        W27635   2.702  11.779  13.729 -0.1181  0.1167 -0.4216
12505W        W27636   3.763  12.396  15.500  0.2687  0.0548 -0.0616
12506W        W27637   6.667   4.592   0.507 -0.0461  0.0209 -0.2406
12507W        W27638  12.452  17.683   4.619  0.1411  0.0345  0.1729
12508W        W27639   6.923   5.373  15.401  0.1460 -0.1988 -0.1556
12509W        W27640  17.712   3.267   4.526 -0.0850  0.0887  0.0992
12510W        W27641   4.361   4.481   4.903 -0.0061  0.1346 -0.1856
12511W        W27642   5.954  15.079   1.624  0.1052 -0.2128  0.3525
12512W        W27643   9.275   4.080  12.743 -0.2976  0.3062  0.2885
12513W        W27644   5.849   3.179  15.678 -0.0097  0.0286  0.2177
12514W        W27645  12.234   4.969  13.578 -0.0457  0.3702 -0.1101
12515W        W27646  10.074   9.225   2.031  0.0791  0.0218  0.1300
12516W        W27647  17.710  10.074  15.243 -0.0573 -0.0214  0.0944
12517W        W27648   3.350   1.974  11.488 -0.1604 -0.2955  0.1608
12518W        W27649   4.872   4.607   4.777  0.2425 -0.0990 -0.0312
12519W        W27650   2.822   0.669   4.067  0.2612  0.0495 -0.1108
12520W        W27651  17.255   8.454  14.587  0.0592  0.0451  0.0621
12521W        W27652   7.533  16.478  10.342 -0.0655 -0.0725 -0.2308
12522W        W27653  18.056  16.922   4.384 -0.0944  0.1898  0.0732
12523W        W27654  12.055  11.211  13.200 -0.0174  0.1652  0.0099
12524W        W27655   5.733  11.563   2.032  0.1474 -0.1136  0.3714
12525W        W27656  10.476   0.562  15.047 -0.0928  0.0182  0.0440
12526W        W27657  17.154   8.464   1.002 -0.2962 -0.1975  0.0785
12527W        W27658  15.156  12.076  15.385  0.2407  0.4130  0.0367
12528W        W27659  10.910  16.179  12.390 -0.0076 -0.0847  0.0590
12529W        W27660  10.505  11.731   0.440  0.0226  0.1539  0.2037
12530W        W27661   9.566  17.520  13.458  0.1560  0.4565 -0.2309
12531W        W27662  12.412  18.100  15.613  0.0202 -0.0090 -0.0896
12532W        W27663  17.973  11.553  13.635 -0.3203 -0.0579  0.3934
12533W        W27664  14.801   5.422   4.296 -0.1072 -0.0215 -0.4571
12534W        W27665  15.460   3.064   6.424  0.4819  0.2929 -0.0259
12535W        W27666  11.051  15.301   5.564  0.0068  0.1132 -0.0113
12536W        W27667   0.771  15.285   3.304 -0.1729 -0.2673  0.0269
12537W        W27668  18.063   1.939  10.982  0.1320  0.2577 -0.2122
12538W        W27669   3.167  12.646  12.160 -0.1465 -0.0844  0.0041
12539W        W27670  17.344   1.475  13.962 -0.1772 -0.1206  0.1043
12540W        W27671  12.222  11.988   0.272  0.0372 -0.4744  0.0874
12541W        W27672  13.550  13.816   2.042 -0.0739  0.1063 -0.0098
12542W        W27673   3.759   5.209  13.913  0.1588 -0.2070  0.1502
12543W        W27674   3.346   6.348   0.871  0.4604 -0.3549 -0.2185
12544W        W27675   0.070  15.994   2.172 -0.3521  0.3712  0.2078
12545W        W27676  15.391   5.961   2.783  0.0993  0.0709  0.1634
12546W        W27677   9.708   0.028   1.923 -0.2030  0.0602 -0.0257
12547W        W27678   8.945   8.289  15.576 -0.0339 -0.1342  0.0450
12548W        W27679   3.537   6.007   4.721  0.0340  0.0020 -0.1751
12549W        W27680   8.782  14.444   0.654  0.3355 -0.0802 -0.0999
12550W        W27681  14.528   2.951   5.817 -0.1164 -0.0820  0.2352
12551W        W27682  15.195  12.423  11.159 -0.0726  0.0626 -0.2068
12552W        W27683  12.143   5.443  11.565  0.0292  0.4100 -0.3171
12553W        W27684  10.289   9.468  10.358  0.0145 -0.0300 -0.4299
12554W        W27685   2.040  15.325  11.871 -0.1425 -0.2235 -0.5753
12555W        W27686   7.435  14.509   1.981 -0.1877 -0.3628 -0.2138
12556W        W27687   6.006   3.528  11.077  0.2327  0.2564  0.3214
12557W        W27688   3.978   6.859  13.267  0.1800  0.2262  0.0234
12558W        W27689  17.231   9.543  15.140  0.3701 -0.1242 -0.1007
12559W        W27690   7.622  13.795  12.054  0.2805  0.1396 -0.2385
12560W        W27691  12.382  17.860  16.047  0.1849 -0.0283  0.2127
12561W        W27692  12.158   1.943  13.975 -0.0411  0.0270 -0.1322
12562W        W27693   2.401   6.501  11.020 -0.1754 -0.0694  0.0468
12563W        W27694  15.540   7.188   3.685 -0.0308  0.0168 -0.0686
12564W        W27695  12.365   8.220  13.102  0.0737  0.1303  0.3129
12565W        W27696   5.597   5.772  12.556  0.1709 -0.0236 -0.1732
12566W        W27697  18.156   4.776  12.975  0.1986  0.1022 -0.1438
12567W        W27698   8.762  15.358  11.383  0.1789  0.1861  0.1599
12568W        W27699   0.774  15.511  14.451 -0.1136  0.1545  0.1202
12569W        W27700   1.017  13.810  11.501  0.0744  0.1133 -0.3053
12570W        W27701   0.231   4.594   4.030 -0.1113  0.0131  0.1463
12571W        W27702  10.135   2.627   4.631 -0.0938  0.0308 -0.0023
12572W        W27703  16.517  15.166  10.730 -0.2211  0.0360 -0.0987
12573W        W27704   5.459  11.752   3.510 -0.1607 -0.2304 -0.2471
12574W        W27705   0.174   4.105   3.701  0.1446  0.1121  0.2574
12575W        W27706  14.014   9.738  12.767 -0.2489 -0.0175 -0.0491
12576W        W27707   7.972   8.837   0.319  0.0933  0.1400  0.0464
12577W        W27708   3.495  11.659   1.449 -0.0004 -0.0991 -0.2612
12578W        W27709  16.901   8.200   5.998 -0.0018  0.0810 -0.1737
12579W        W27710  16.840  12.198  15.894 -0.1900 -0.0324  0.0761
12580W        W27711   4.062  16.592  11.830 -0.3734  0.1886  0.0518
12581W        W27712   9.305   5.628   3.660 -0.2358  0.1441 -0.0076
12582W        W27713  12.245   7.206   3.704  0.1232  0.1010  0.0255
12583W        W27714  15.035   6.610  14.086 -0.2853  0.1991 -0.2135
12584W        W27715  15.472   4.983   3.881 -0.0559 -0.0209 -0.0601
12585W        W27716  13.283   4.139   3.306  0.1947  0.2967  0.1229
12586W        W27717  14.742   8.907  13.154  0.3147 -0.0767 -0.0708
12587W        W27718   3.695  11.460  14.126  0.1992  0.0870  0.0757
12588W        W27719   2.476  16.518   1.307  0.1941 -0.0104  0.1127
12589W        W27720   6.250   7.629  14.735  0.0997  0.2620 -0.0728
12590W        W27721   2.037  17.083   5.596  0.2580  0.3044 -0.2520
12591W        W27722  15.451  16.972  13.208  0.0171  0.0978 -0.3070
12592W        W27723   7.475   2.918  15.888 -0.2283  0.0441  0.0767
12593W        W27724   2.125   4.276  11.870 -0.0110 -0.0033 -0.1363
12594W        W27725  15.675   1.771   0.058  0.2721 -0.2904  0.2738
12595W        W27726  14.153  15.614   5.242  0.2091 -0.0941 -0.2794
12596W        W27727   3.426   9.523   3.158 -0.0099  0.1153 -0.2522
12597W        W27728  10.664  14.969   2.619  0.1328  0.2810 -0.0283
12598W        W27729   7.836   6.743   4.203 -0.1477 -0.3306 -0.2810
12599W        W27730   0.325   6.492  14.785 -0.1349 -0.1572 -0.0199
12600W        W27731  12.811  12.988   4.062 -0.0487  0.1029  0.1071
12601W        W27732  10.341   4.235   5.193 -0.0291  0.0254  0.0118
12602W        W27733   0.594  17.386   5.462 -0.1258 -0.1815 -0.0672
12603W        W27734  17.789   5.807   3.490 -0.0374 -0.1730 -0.0766
12604W        W27735  17.126  13.978  15.793 -0.0421 -0.1928  0.0210
12605W        W27736   9.870   2.582  12.545  0.2603  0.1920  0.1055
12606W        W27737   1.348   5.764  14.002  0.0279  0.0442  0.2707
12607W        W27738  12.339   2.006   0.488  0.1948  0.4206  0.0635
12608W        W27739  15.570   2.738   4.398 -0.0467 -0.1020  0.1031
12609W        W27740   6.197   0.702  12.653 -0.0869 -0.2626 -0.3182
12610W        W27741  15.925  12.008  12.485 -0.0452  0.0400  0.0425
12611W        W27742   1.968  13.732  16.093  0.3771 -0.1754  0.0845
12612W        W27743   2.966   8.649   5.304  0.0780  0.1161  0.0130
12613W        W27744   6.560   1.585   1.082 -0.0004  0.3297  0.0829
12614W        W27745   6.701  13.426  10.978  0.0130  0.0713  0.2545
12615W        W27746   8.190   0.174   5.042 -0.1105 -0.0272  0.1003
12616W        W27747  18.092  17.985  15.947 -0.0466  0.1651 -0.0337
12617W        W27748  14.361   9.404   0.111  0.0973  0.1125  0.0563
12618W        W27749  13.253   6.961   5.386 -0.0877  0.1488 -0.0269
12619W        W27750  13.793   1.819   1.217 -0.1414 -0.0368  0.0928
12620W        W27751   8.105  11.720  15.714 -0.0058  0.0568 -0.2201
12621W        W27752  15.819   4.098   2.999  0.1274 -0.0639  0.0269
12622W        W27753  15.681  11.140  14.531 -0.1725 -0.1509  0.1450
12623W        W27754   6.417   0.917   0.618  0.0744  0.1530  0.2373
12624W        W27755   4.925   1.985   4.467 -0.1645  0.0668  0.0461
12625W        W27756   6.183  13.521  10.400  0.0549  0.0131 -0.2671
12626W        W27757   4.927  10.624  15.073 -0.1143 -0.1688  0.2507
12627W        W27758   2.781  13.976  15.421 -0.2252 -0.2075 -0.2442
12628W        W27759   6.397   0.951  13.522  0.0162  0.2451 -0.1073
12629W        W27760   7.252  13.855   1.347  0.1150  0.0058 -0.1096
12630W        W27761   7.003  11.271   4.997 -0.0196 -0.0725  0.0848
12631W        W27762  12.573  14.354  13.293  0.1189 -0.2212 -0.0906
12632W        W27763   3.546  17.406  15.552 -0.0287 -0.0302 -0.3886
12633W        W27764  16.910   7.268   2.515 -0.3253 -0.0111  0.1198
12634W        W27765   4.901   4.416  10.452 -0.2818  0.0482 -0.1303
12635W        W27766  17.772  17.978   4.130 -0.1070  0.1881  0.0543
12636W        W27767  11.330  12.430   3.137  0.1961  0.0137  0.0716
12637W        W27768  13.408   5.875  12.717  0.0236 -0.0802 -0.3629
12638W        W27769   1.231  11.663   3.072 -0.2531 -0.1033 -0.0071
12639W        W27770  16.618   3.663   3.215 -0.0324 -0.2331 -0.0057
12640W        W27771  11.358  16.278  14.823 -0.1303 -0.2110  0.0623
12641W        W27772  14.497   8.546   4.605 -0.1893 -0.1109  0.2206
12642W        W27773   3.626   8.090  12.650  0.1063 -0.2395 -0.1748
12643W        W27774  14.428  17.387  12.786 -0.2757  0.0130 -0.1711
12644W        W27775   1.862   8.805   3.766 -0.3513 -0.0272 -0.1480
12645W        W27776   7.158  15.782  11.080 -0.1495  0.0259  0.2416
12646W        W27777  17.549   3.901  12.801 -0.1373 -0.4839  0.1026
12647W        W27778   1.623   0.899   4.323 -0.1260 -0.2094  0.1522
12648W        W27779  12.572   5.430   2.419 -0.1334  0.2060 -0.0418
12649W        W27780   9.584  17.070  14.471 -0.1474 -0.1003 -0.1391
12650W        W27781  13.100  13.157  14.371 -0.1436 -0.0370  0.2712
12651W        W27782   7.080   9.864  10.988  0.1947 -0.0196  0.1353
12652W        W27783   5.005   0.416  13.167  0.0595 -0.1361 -0.0560
12653W        W27784   0.883   1.068   2.600 -0.0591  0.2141 -0.0031
12654W        W27785   1.653   8.873  15.206 -0.1600 -0.1731 -0.0330
12655W        W27786   8.447   9.322   4.582  0.0123 -0.0877 -0.1115
12656W        W27787  10.264   2.503   5.841 -0.1066  0.1764  0.0088
12657W        W27788  17.920   6.450   1.525  0.0948  0.3614  0.3060
12658W        W27789   6.746   7.624  14.856 -0.1556 -0.2197  0.1416
12659W        W27790   3.990   8.071  11.344  0.2545  0.1940  0.0122
12660W        W27791  13.415  17.890   4.528 -0.2593 -0.2050  0.0938
12661W        W27792  13.704   4.640   5.634  0.0249 -0.0594  0.0059
12662W        W27793  16.063   1.960   4.029  0.1412 -0.1272 -0.0491
12663W        W27794  15.953  10.934   2.391 -0.0689 -0.0129 -0.1729
12664W        W27795  10.320  17.676  12.131 -0.3339  0.0977 -0.0887
12665W        W27796   7.955   0.312  14.083 -0.3228  0.1813 -0.1336
12666W        W27797   7.593  13.818  10.598 -0.1931  0.0589 -0.0398
12667W        W27798  13.112   1.900  15.054  0.0342 -0.2948  0.1207
12668W        W27799  16.006  17.107   2.247  0.2392  0.1253  0.0121
12669W        W27800  11.608   4.838  10.848 -0.1384  0.0820 -0.1678
12670W        W27801   9.721   8.216   2.166  0.2206 -0.1477  0.3586
12671W        W27802  11.455  16.048  11.125 -0.0438  0.0827  0.1374
12672W        W27803  12.738   6.004   4.949  0.5903  0.2711 -0.1944
12673W        W27804   3.190   5.363  15.425 -0.0520  0.2484 -0.2251
12674W        W27805  17.142   6.935   0.503 -0.0555 -0.0118 -0.3395
12675W        W27806  14.794  13.024   5.310 -0.0217 -0.1985  0.0002
12676W        W27807   4.325   5.263  15.749 -0.2812 -0.0050 -0.0739
12677W        W27808   2.070  10.053   1.857 -0.0837 -0.0793 -0.0876
12678W        W27809  11.250  10.764  11.581 -0.2296 -0.0754 -0.0963
12679W        W27810  13.069   5.429  13.637  0.0056  0.3421 -0.1010
12680W        W27811   8.058   3.790  14.381  0.4520 -0.1714  0.3099
12681W        W27812  12.994  16.976   5.667 -0.0015  0.0032  0.1025
12682W        W27813  15.655  14.868   5.607  0.1069  0.0022  0.0328
12683W        W27814   2.531   9.217   1.796 -0.1615  0.0249  0.3073
12684W        W27815   1.507   4.415  14.296  0.2880 -0.0574 -0.1483
12685W        W27816  15.319  17.782  13.205  0.2705  0.0489  0.0405
12686W        W27817   3.224   8.378  15.850 -0.4499  0.3721  0.1087
12687W        W27818  10.958  11.829   4.758  0.0642 -0.2663 -0.0170
12688W        W27819  11.048  12.475  12.820  0.1669  0.2574  0.0310
12689W        W27820  12.104   4.017  11.469  0.0435  0.4048  0.0398
12690W        W27821   1.296  16.201   0.975 -0.2591 -0.0118 -0.0913
12691W        W27822  15.833   9.760  15.989 -0.2702 -0.0907  0.0487
12692W        W27823   4.741   3.840   2.658  0.0654 -0.0342  0.0848
12693W        W27824   0.633  17.124  15.012 -0.1183 -0.0255 -0.0374
12694W        W27825  17.882  13.677  13.377  0.1809 -0.1022  0.2708
12695W        W27826   8.930  17.022   4.969  0.2846 -0.0299 -0.0043
12696W        W27827   1.794   3.618  16.228 -0.4744  0.1344 -0.0489
12697W        W27828   8.458   2.835   4.167 -0.3164  0.0133 -0.1804
12698W        W27829  15.222  12.667   5.299 -0.3435  0.1942  0.0204
12699W        W27830  11.962  16.019   0.998  0.0333 -0.3750 -0.0132
12700W        W27831   2.542   8.530  10.637 -0.0690 -0.0440  0.0270
12701W        W27832  13.514   9.259  11.255  0.2369 -0.0332  0.2867
12702W        W27833  14.496  18.123   0.897 -0.3118  0.3176 -0.0389
12703W        W27834   3.899  17.802   3.082 -0.0613 -0.3084 -0.3265
12704W        W27835   3.405  10.471  12.420 -0.2528  0.0771 -0.1527
12705W        W27836   2.160   1.646   5.629  0.0168  0.0350  0.0446
12706W        W27837   2.067  15.793   5.680 -0.2026 -0.1783 -0.0212
12707W        W27838  13.962   1.469   4.339 -0.1133  0.1924 -0.2921
12708W        W27839  12.601  13.939  13.621 -0.2436  0.0212  0.0611
12709W        W27840  14.125  16.255   0.869  0.0183 -0.0095  0.1324
12710W        W27841  17.396  12.206   3.790  0.1328 -0.0914  0.3501
12711W        W27842  15.837  14.766   4.384  0.2176 -0.4773  0.1417
12712W        W27843  15.710   5.536   2.818  0.0772 -0.0017  0.3403
12713W        W27844  10.196  16.866  12.017 -0.0785 -0.0565 -0.3702
12714W        W27845  14.128   2.444  14.306 -0.3078  0.1204  0.2775
12715W        W27846   3.958   1.892  13.516  0.0838 -0.2595 -0.0581
12716W        W27847   6.268  12.981  14.748  0.0374  0.1183  0.3213
12717W        W27848  10.223   7.038  14.706 -0.3565  0.0275  0.1479
12718W        W27849   7.336   0.548  15.160 -0.3130 -0.0367 -0.1241
12719W        W27850   3.741   6.763   4.498 -0.2883 -0.3475  0.1312
12720W        W27851  12.302   3.574  13.408 -0.0946 -0.0122 -0.1923
12721W        W27852  10.400  17.001  16.165 -0.1080 -0.2986  0.0796
12722W        W27853  14.228  13.500   1.583 -0.0226  0.1390 -0.5208
12723W        W27854  16.181   4.192  14.499 -0.1468  0.3948  0.1417
12724W        W27855  14.166  15.171   0.951  0.0514 -0.1594 -0.1490
12725W        W27856   1.162   7.992   1.879 -0.2431  0.0084 -0.0076
12726W        W27857  10.144  16.155  12.738  0.0199 -0.0588 -0.1333
12727W        W27858  11.323   4.286  14.712 -0.0638  0.1812 -0.2341
12728W        W27859  17.712   7.058   0.416  0.0002 -0.1292 -0.1954
12729W        W27860  14.648   6.797  13.741  0.0950 -0.0767 -0.1647
12730W        W27861  12.543   7.172   0.790  0.0750  0.0381  0.0348
12731W        W27862  12.981   4.403  15.353 -0.0972  0.0905  0.2548
12732W        W27863   9.351   7.427   3.601  0.0681 -0.1572 -0.1861
12733W        W27864   6.280  11.714   5.210  0.0772 -0.0399  0.1437
12734W        W27865   3.641   9.076  13.146 -0.2432  0.1131 -0.2979
12735W        W27866  11.609   2.862  12.568  0.1072 -0.1763  0.1436
12736W        W27867   3.714   9.858   2.313 -0.3557  0.1712 -0.0412
12737W        W27868   7.589   5.537   3.093  0.1451  0.1642  0.1906
12738W        W27869  14.816   5.961   1.913 -0.2906 -0.1153  0.1046
12739W        W27870   9.965  16.395  11.740  0.0846 -0.0592 -0.0701
12740W        W27871  14.991  17.879  15.407 -0.2576 -0.0106  0.0948
12741W        W27872  12.828  15.931   4.440 -0.0879  0.0974  0.0390
12742W        W27873  13.358   0.462  12.010 -0.1277  0.0696 -0.3368
12743W        W27874   3.745  11.930  14.771  0.3954 -0.1322  0.0273
12744W        W27875   9.331   6.036  12.274 -0.1421  0.3856  0.1733
12745W        W27876  14.998   9.154  12.797  0.1589 -0.1874 -0.0876
12746W        W27877   3.700   7.190  12.885  0.1909 -0.1579 -0.0852
12747W        W27878   9.199   1.100   3.388 -0.1015  0.2383 -0.1058
12748W        W27879   1.729  14.995   2.653  0.3052  0.0551  0.1090
12749W        W27880   9.156   2.313  11.897  0.0916 -0.0957  0.3050
12750W        W27881  15.546   4.163  11.759  0.1081 -0.1760 -0.3130
12751W        W27882   3.957   5.355  10.860 -0.0133 -0.0410  0.1509
12752W        W27883   6.227  13.716  10.847  0.2099 -0.0259  0.1199
12753W        W27884   1.178  15.301  15.032  0.2941  0.1818  0.0915
12754W        W27885   8.502  12.340   1.789 -0.0467  0.3196  0.0939
12755W        W27886  12.011  15.638  14.894  0.0785  0.3191 -0.1225
12756W        W27887  10.220   5.063  14.207  0.1087 -0.1562  0.1285
12757W        W27888  15.669  10.962   2.969  0.3179 -0.1680  0.1825
12758W        W27889  14.451   6.712   2.652 -0.0168 -0.4762  0.0260
12759W        W27890   7.563  13.572  11.569 -0.0308  0.0038 -0.1693
12760W        W27891  12.431   3.184   3.941  0.1045  0.1118  0.1708
12761W        W27892   0.803  13.512  15.176  0.1997 -0.2298 -0.0646
12762W        W27893  11.455   1.147  15.131  0.1356 -0.2264  0.0884
12763W        W27894   6.990   4.552  14.432  0.1704  0.1432  0.0634
12764W        W27895   4.468   6.816   4.532  0.0249 -0.0451 -0.1627
12765W        W27896   9.857   9.996  15.642  0.1703 -0.0474  0.0774
12766W        W27897   8.355   3.637   5.839  0.2045 -0.1306 -0.0495
12767W        W27898  11.672  10.206   0.177 -0.1816 -0.1837  0.0449
12768W        W27899  13.108   4.230  13.345 -0.0251 -0.2039  0.0888
12769W        W27900  11.676  17.340   1.722 -0.1818 -0.3232  0.1042
12770W        W27901   1.603   9.225  12.431  0.0625  0.0002  0.1793
12771W        W27902  17.229   8.031  14.879  0.1960 -0.2660  0.1396
12772W        W27903   4.819   5.794  10.344 -0.1093 -0.1636 -0.1886
12773W        W27904   7.332   6.823  14.767 -0.2954 -0.0530  0.1306
12774W        W27905  16.124  16.897   5.310 -0.0239 -0.0857 -0.0606
12775W        W27906  17.031   7.012  14.337  0.3719 -0.2520  0.0412
12776W        W27907   7.963   2.800   2.473 -0.0321 -0.0840  0.3327
12777W        W27908  16.802  15.437   1.554  0.2586 -0.1880  0.1220
12778W        W27909   1.503   3.924  15.877 -0.1257 -0.1418 -0.0150
12779W        W27910   2.945   6.821  12.873 -0.2707  0.0403 -0.2188
12780W        W27911  17.232  17.154   0.486 -0.2226  0.3381 -0.0852
12781W        W27912  13.340  14.922  12.050  0.1357  0.0225  0.1425
12782W        W27913  18.103  16.881  15.970 -0.1165 -0.1202  0.2890
12783W        W27914   3.168  10.069  13.568 -0.1111 -0.1668 -0.1235
12784W        W27915   2.495  14.189  10.466 -0.1319 -0.1138  0.3153
12785W        W27916  15.164   9.454   0.381 -0.0618  0.0467 -0.0974
12786W        W27917  17.388   2.727  13.271 -0.0361 -0.0284 -0.0401
12787W        W27918  14.070  15.332  15.792  0.0499 -0.1986 -0.3047
12788W        W27919  13.454   4.978  16.017 -0.2769  0.0812  0.3598
12789W        W27920   6.867   6.036  14.724  0.0795 -0.1688 -0.1629
12790W        W27921  11.057   7.611   5.196 -0.1660 -0.1187  0.0717
12791W        W27922   4.133  14.772  12.894 -0.3071  0.0384  0.0914
12792W        W27923  17.746   5.985   1.690 -0.1352 -0.0203 -0.1797
12793W        W27924   0.634  14.981   0.453 -0.2411 -0.4385  0.5706
12794W        W27925  14.431   2.402   5.214  0.3140  0.1167 -0.1053
12795W        W27926  11.984   1.567  12.963  0.3574  0.0134  0.5373
12796W        W27927  14.176   6.060   5.070  0.1837  0.2168  0.1334
12797W        W27928   9.311  17.457  14.243 -0.0938  0.0888  0.1002
12798W        W27929   9.187   7.863   3.535 -0.0152  0.0026 -0.0643
12799W        W27930  10.150  13.827  11.873  0.2442  0.3105 -0.0841
12800W        W27931  10.310   1.479   2.068 -0.0285  0.1707  0.0590
12801W        W27932   7.451  10.029   1.970  0.1614  0.2798 -0.1576
12802W        W27933  12.529   5.459   1.285 -0.0006 -0.1999 -0.0283
12803W        W27934  16.400  12.240  14.948  0.0316  0.2382 -0.0034
12804W        W27935   6.456  13.207   2.780  0.1350  0.0717 -0.0682
12805W        W27936  11.788   6.528   0.063 -0.0702  0.0709  0.2907
12806W        W27937   1.322  10.439  15.682 -0.0928 -0.3158 -0.0275
12807W        W27938   2.355   6.702   2.312 -0.0486 -0.1325  0.0156
12808W        W27939  13.101  16.886   0.471  0.1661 -0.0058  0.2072
12809W        W27940  10.004   3.775  13.449  0.1861 -0.2718 -0.0345
12810W        W27941  12.004  14.801  12.474 -0.0250 -0.0391 -0.1113
12811W        W27942  17.296   5.727   1.534  0.0311  0.0072  0.2037
12812W        W27943   9.725   4.452   6.139  0.1446  0.1504 -0.0045
12813W        W27944   0.168  11.365   0.520  0.2882 -0.0143 -0.1602
12814W        W27945   2.465   6.824  12.692  0.1288 -0.0467 -0.1198
12815W        W27946  15.291   7.035  15.507 -0.1876 -0.0700  0.3434
12816W        W27947  12.629   9.497  11.592  0.2111 -0.0781  0.1655
12817W        W27948  12.524   0.352   4.131  0.0218 -0.0821 -0.1135
12818W        W27949  14.099   6.499  15.901 -0.1178  0.2215 -0.0465
12819W        W27950   5.373   1.614   0.202 -0.1269 -0.0354  0.1193
12820W        W27951  14.954   9.866  15.649  0.2496 -0.2944  0.0398
12821W        W27952   2.044  15.804  12.670 -0.1463  0.1186  0.0147
12822W        W27953   1.609  14.904   3.654  0.1415 -0.1950  0.0533
12823W        W27954  12.326   4.685  13.025  0.2084  0.1616 -0.3091
12824W        W27955   4.301  13.887  14.316 -0.0049  0.1384 -0.0645
12825W        W27956   1.710  11.800   5.184 -0.1074  0.0114  0.2014
12826W        W27957   9.736   7.682   0.666 -0.2562  0.2999  0.0076
12827W        W27958   4.828   2.550   5.635 -0.1136 -0.2966  0.1452
12828W        W27959   1.947   7.166   5.934 -0.1800  0.0423 -0.0475
12829W        W27960   9.568  11.035  13.528  0.2429 -0.2528  0.0788
12830W        W27961   2.460  13.786   0.190 -0.0762  0.0331  0.2053
12831W        W27962  16.388   9.188   1.464 -0.1852 -0.1230  0.1441
12832W        W27963  14.293   9.353  12.766 -0.0863 -0.1520 -0.0248
12833W        W27964  13.657  12.066   1.011  0.1194  0.2591 -0.0466
12834W        W27965  15.242   4.300  15.448  0.1912 -0.1108  0.0574
12835W        W27966   3.147  13.010  11.159 -0.1294 -0.1466 -0.2265
12836W        W27967  14.649   8.447   6.254  0.1720  0.2390 -0.2481
12837W        W27968  13.732   3.999  11.456 -0.3366 -0.1450  0.1569
12838W        W27969   3.737  15.358   0.635  0.2765 -0.0009  0.0172
12839W        W27970   0.187   8.665  14.987 -0.1196 -0.2401  0.0295
12840W        W27971   1.775  16.238  11.475  0.1359  0.1498 -0.1414
12841W        W27972  15.310   0.727   1.117 -0.2976  0.0390  0.0562
12842W        W27973   3.930  13.472  12.292 -0.0785  0.1736  0.1146
12843W        W27974  13.047  11.566   1.005  0.0928 -0.1390 -0.2185
12844W        W27975   1.131   8.531   2.682 -0.3124 -0.2573 -0.1234
12845W        W27976   7.543   1.731  11.719  0.0301 -0.1416  0.0578
12846W        W27977  10.937   3.261   3.716 -0.1742 -0.1698 -0.0382
12847W        W27978  17.508  17.738   5.674  0.1472 -0.0350 -0.0079
12848W        W27979   3.692  14.429  13.788  0.0940  0.1627 -0.1257
12849W        W27980   4.525   4.218  11.689  0.3215  0.2144  0.1569
12850W        W27981   3.359   6.678  15.097 -0.1500  0.0839  0.3277
12851W        W27982  10.609   8.036  14.031  0.2224 -0.2526  0.1122
12852W        W27983   4.501  12.907  11.209 -0.0663  0.1724 -0.1593
12853W        W27984  13.785   2.860   5.784 -0.4201 -0.0145  0.1452
12854W        W27985  12.736  11.880  11.797 -0.2210  0.2953  0.0228
12855W        W27986   6.073  15.700   1.143  0.1225  0.2010 -0.1647
12856W        W27987   0.510   4.840  12.895  0.3252 -0.0949 -0.4632
12857W        W27988   7.790  17.349   3.044  0.0097  0.2534  0.1324
12858W        W27989   5.363   5.080  11.984 -0.0395 -0.0435 -0.0828
12859W        W27990   7.371  11.783   0.253 -0.0197 -0.3645  0.0167
12860W        W27991  13.562   1.678   4.532  0.0576  0.1740 -0.0486
12861W        W27992   6.317   7.024   2.701  0.0021  0.0193 -0.4007
12862W        W27993   3.515  11.483  12.189 -0.0098 -0.1334  0.0965
12863W        W27994  16.175  12.324  11.840 -0.0629 -0.0744  0.1378
12864W        W27995   0.531  13.669  11.364 -0.3735  0.0383  0.1323
12865W        W27996   3.211   9.882  13.081 -0.0817 -0.0074  0.0374
12866W        W27997   4.477   6.637  13.307  0.3105 -0.1115 -0.0331
12867W        W27998   6.734  13.407  11.502  0.1421 -0.0544  0.3257
12868W        W27999   9.311   6.594  14.344  0.0738  0.4661  0.0716
12869W        W28000  10.833  17.167  10.583 -0.0901  0.1486 -0.1811
12870W        W28001   5.130   0.793  12.851 -0.1402 -0.2095 -0.1073
12871W        W28002   7.818   1.234   4.648  0.0205  0.1924  0.3082
12872W        W28003  11.830   6.426  15.080  0.2699  0.3588 -0.0153
12873W        W28004  12.986  14.214  11.944 -0.0890  0.2533 -0.1004
12874W        W28005   0.874   6.583   4.162  0.0719 -0.0564  0.4223
12875W        W28006  17.718   3.511   3.617 -0.1252 -0.1127 -0.2356
12876W        W28007   1.346   1.205   2.775  0.1215 -0.0361 -0.0006
12877W        W28008   5.178  17.286   4.292 -0.2746 -0.0351 -0.2457
12878W        W28009  10.755  15.019  11.852  0.2876 -0.0860 -0.2565
12879W        W28010  11.793  15.250  12.387  0.3501  0.0614 -0.1219
12880W        W28011  15.700  12.723  16.123  0.1263 -0.0494  0.0972
12881W        W28012  17.554  10.068   3.082 -0.1310  0.1874 -0.1394
12882W        W28013   7.967   0.488  14.679 -0.2131  0.2452  0.2082
12883W        W28014   0.131  17.189  14.110  0.1866  0.1676 -0.0934
12884W        W28015   3.640   9.713   5.228 -0.2371  0.0617 -0.1435
12885W        W28016   9.099   8.465   0.010  0.0498 -0.3617 -0.1019
12886W        W28017   6.083  18.048  12.749  0.0182  0.1606 -0.0908
12887W        W28018   3.219  17.110  12.046 -0.0608 -0.1380 -0.0848
12888W        W28019   4.104   0.808  12.416  0.1016 -0.0338 -0.1445
12889W        W28020  10.207   3.846   2.501  0.0150 -0.1247  0.1585
12890W        W28021   3.088   3.786   5.596 -0.0427 -0.0172  0.2448
12891W        W28022  14.269  11.816   1.502 -0.0615 -0.0003 -0.2021
12892W        W28023   0.123   3.088  13.988  0.1563  0.1184 -0.2461
12893W        W28024  15.212   5.823  14.627  0.2110 -0.0606  0.1143
12894W        W28025   6.446  14.757   2.045 -0.3130 -0.1426  0.2051
12895W        W28026  15.569   9.898  11.623 -0.1059  0.2282 -0.0936
12896W        W28027  14.406   3.628   0.086  0.2618  0.3094  0.0777
12897W        W28028   9.893   5.059  14.720 -0.0501 -0.3916 -0.1253
12898W        W28029   4.219  10.407   3.940  0.0327  0.1556 -0.0226
12899W        W28030  14.821   8.184   2.274 -0.1856  0.2270  0.2047
12900W        W28031   6.817   6.161   1.376  0.0966 -0.0434  0.0938
12901W        W28032  16.386  17.667   1.666  0.0530 -0.1192  0.0314
12902W        W28033   2.855   2.519   4.006 -0.1719  0.2220 -0.1546
12903W        W28034  16.690   3.176   2.336  0.0315 -0.1604 -0.2879
12904W        W28035   7.038  15.948   4.166 -0.0131 -0.1003  0.0674
12905W        W28036   0.352  11.094   2.236 -0.1571  0.2128 -0.2576
12906W        W28037   4.048  10.835   3.215 -0.0614 -0.0193 -0.0935
12907W        W28038  10.369  17.193   1.288 -0.0535 -0.0097 -0.2746
12908W        W28039   2.335   3.741  13.227  0.0019  0.0137  0.0432
12909W        W28040  13.041   2.363   2.849 -0.0602  0.1976 -0.2987
12910W        W28041   8.758   0.129  15.266 -0.1119  0.0837  0.0579
12911W        W28042   7.220   0.163  10.655 -0.1359 -0.0022 -0.2368
12912W        W28043  11.869  13.213   1.082 -0.2525  0.1672  0.2105
12913W        W28044   6.484   9.430  14.812  0.1312  0.1208 -0.0727
12914W        W28045   8.947  10.377   5.433  0.0050  0.2955  0.2076
12915W        W28046  14.329   7.657  13.801 -0.1201 -0.1170 -0.1503
12916W        W28047  12.115  17.167   1.934 -0.0162  0.0155 -0.0823
12917W        W28048  14.480  15.625   2.328 -0.2989 -0.2799 -0.0241
12918W        W28049  13.122  14.895   4.607  0.1372  0.0431 -0.1919
12919W        W28050  16.720  11.182  11.607 -0.1545 -0.0701  0.3629
12920W        W28051   2.764  15.994  11.634 -0.2372 -0.3520  0.1045
12921W        W28052   8.882  17.467  11.434 -0.1004  0.0452  0.0645
12922W        W28053  12.367   3.189   5.614  0.1445 -0.0311 -0.2511
12923W        W28054   1.574  13.221  14.414 -0.1346  0.0751 -0.1689
12924W        W28055  10.227   0.227  13.294  0.0046 -0.0569 -0.2402
12925W        W28056   2.246  14.453   5.097  0.0824  0.0766  0.1511
12926W        W28057   2.447  14.217   5.477  0.0438  0.1337  0.0268
12927W        W28058   2.431  14.687  12.251  0.3272  0.1232  0.1242
12928W        W28059  13.341  14.497   3.260 -0.2135  0.2611  0.1187
12929W        W28060  16.652  10.819  13.385 -0.1834 -0.0488  0.0283
12930W        W28061  13.423   5.430   3.425 -0.2024  0.0328 -0.1946
12931W        W28062  12.922   0.598  14.889 -0.1677 -0.1785  0.1568
12932W        W28063   6.710  10.248  15.628 -0.1107 -0.0925 -0.1231
12933W        W28064  14.040  13.792   5.462 -0.1085  0.0171 -0.3408
12934W        W28065  17.184   1.182  13.568 -0.0753 -0.2490 -0.0424
12935W        W28066   8.567  16.466   1.407 -0.0051 -0.1372 -0.2141
12936W        W28067   9.545   8.541  15.554 -0.2805 -0.2382  0.0389
12937W        W28068   3.934  17.792  14.313 -0.0675  0.1974 -0.0979
12938W        W28069  16.216  10.443  12.122  0.0507  0.0511 -0.2240
12939W        W28070  17.845   2.120   0.364 -0.1944  0.1002 -0.1426
12940W        W28071  10.539   0.616   4.095  0.0975  0.0128  0.3114
12941W        W28072  13.315   5.043   3.752 -0.0657  0.2795 -0.0480
12942W        W28073   3.624   1.420  15.141  0.0185 -0.1899  0.2948
12943W        W28074  16.581   0.153   2.860 -0.2297  0.1208 -0.1496
12944W        W28075  11.176   9.927   6.290  0.2778 -0.1729  0.0446
12945W        W28076   4.607   5.644  10.787  0.0369 -0.1604 -0.1856
12946W        W28077  15.715  15.482   3.774 -0.2393  0.2075 -0.0046
12947W        W28078   5.482  18.000   3.306 -0.2088  0.2016  0.2647
12948W        W28079   7.000  13.907  15.158 -0.0826  0.0063 -0.2986
12949W        W28080  10.362   9.127   5.485 -0.0813  0.1647  0.1898
12950W        W28081   9.339  13.175   0.335 -0.1692  0.1330 -0.2446
12951W        W28082  12.334  10.316  11.451 -0.1014 -0.2442  0.0863
12952W        W28083  14.798  17.138   0.577  0.1233  0.0308  0.0648
12953W        W28084   6.344  17.584  11.854  0.0192  0.2734  0.0334
12954W        W28085   4.922   7.440  16.142 -0.2234 -0.1252 -0.0923
12955W        W28086  15.168   1.153  15.961 -0.1171 -0.1558 -0.1667
12956W        W28087   9.572   9.815  12.349  0.0884  0.0620  0.1313
12957W        W28088  12.441  13.386  12.644  0.2786 -0.1363  0.1074
12958W        W28089   9.795   1.224  11.043  0.0825  0.0108  0.3472
12959W        W28090  13.164  16.934   5.053  0.1820 -0.1562 -0.0468
12960W        W28091   3.131   8.405   3.952  0.1331  0.1891  0.0168
12961W        W28092  15.707  16.297  15.709 -0.0322 -0.1172  0.0852
12962W        W28093  17.318  15.632   0.540  0.1162 -0.1080 -0.2196
12963W        W28094   5.053   0.730  11.770  0.1308 -0.6940 -0.1174
12964W        W28095   2.103  16.278   5.570  0.0768 -0.1711 -0.3165
12965W        W28096  16.667  14.484   4.077 -0.2165  0.2838 -0.2590
12966W        W28097   8.933  13.031  11.102 -0.0169  0.0039  0.1119
12967W        W28098   9.353   9.296   5.818 -0.0594  0.0199 -0.2614
12968W        W28099  15.442  15.593   0.976 -0.0863  0.4218 -0.4411
12969W        W28100   7.797  11.148  14.914 -0.2977  0.2198 -0.0684
12970W        W28101   5.778   0.998  16.093 -0.2228 -0.1632 -0.1174
12971W        W28102  11.869  10.233  12.478 -0.1552  0.3448  0.1832
12972W        W28103   6.858   9.851   1.954  0.0423 -0.1475  0.1177
12973W        W28104   9.008   8.802   3.148 -0.0091  0.0748 -0.0473
12974W        W28105  14.448   1.232  12.583  0.1398 -0.2105 -0.0815
12975W        W28106   7.931  10.549   4.621 -0.1614 -0.2733  0.1484
12976W        W28107  12.404  11.334  14.904  0.2152 -0.0210 -0.0231
12977W        W28108   0.010  12.922  13.222  0.0254  0.2331 -0.1424
12978W        W28109   9.868  16.934  10.975 -0.0306 -0.1755  0.4093
12979W        W28110   2.949  12.565  11.240  0.3731  0.0821 -0.0579
12980W        W28111   1.534   3.569   2.736  0.0195  0.0898  0.1856
12981W        W28112   6.750   2.868  12.659 -0.1873 -0.0373  0.1935
12982W        W28113  15.740   7.590   0.576  0.2616 -0.0225 -0.2123
12983W        W28114   4.264   0.892   0.389  0.0052  0.2894 -0.0120
12984W        W28115   5.770  15.744  12.183 -0.2789 -0.0547 -0.0924
12985W        W28116  11.754   1.939   0.423 -0.1008 -0.0222 -0.1668
12986W        W28117  15.035  18.020   5.954 -0.1128  0.1179  0.1275
12987W        W28118  15.629  13.375  11.628 -0.0189 -0.2631 -0.1932
12988W        W28119   2.339  17.121  13.611  0.1359  0.2403 -0.1578
12989W        W28120  11.416  10.123   5.391 -0.2354  0.1644  0.3971
12990W        W28121   7.443   0.141   5.479  0.1688  0.0587 -0.0646
12991W        W28122   5.639  17.452   2.512  0.1394 -0.0388 -0.0962
12992W        W28123  18.177   8.507   0.846  0.0827 -0.3709  0.1433
12993W        W28124  12.593  17.573  12.786 -0.0240  0.1260  0.1895
12994W        W28125  18.062   9.957   3.914 -0.1116  0.0738  0.1326
12995W        W28126   2.350   2.725   1.500 -0.0171 -0.1504  0.2032
12996W        W28127   5.107  16.398   1.743  0.0727  0.2551 -0.1714
12997W        W28128   0.109  13.349   2.014 -0.0212 -0.1401 -0.2980
12998W        W28129  11.997   5.481   1.857 -0.1939  0.1260 -0.2561
12999W        W28130  18.072   4.982  13.412  0.2788  0.0737 -0.2729
13000W        W28131  13.011  14.804   1.931  0.0147  0.0042 -0.0255
13001W        W28132   7.295  16.844   5.915 -0.1344 -0.1081  0.0104
13002W        W28133  11.969  17.984  12.180 -0.0524 -0.1442 -0.3361
13003W        W28134   3.624   8.432  14.265  0.0615 -0.0767 -0.4485
13004W        W28135  14.460   7.436   6.080 -0.0135 -0.1937  0.0588
13005W        W28136   3.906  16.495  14.534 -0.3144  0.2264  0.0084
13006W        W28137   8.483  10.551  11.552 -0.0764 -0.0726 -0.3878
13007W        W28138  10.718   0.705   2.669  0.0152 -0.0148  0.1501
13008W        W28139   3.536   3.457   1.711  0.0373  0.0301  0.1392
13009W        W28140  11.417  11.048  12.387  0.0885  0.0013 -0.1017
13010W        W28141  11.217  15.036  12.865 -0.0280 -0.0573 -0.2643
13011W        W28142   3.719   9.381   0.504 -0.1322 -0.1823  0.0549
13012W        W28143  17.117  16.406   2.110 -0.2755  0.0181 -0.4717
13013W        W28144  11.721   2.045   4.484 -0.0810 -0.3579 -0.2816
13014W        W28145   2.803  10.811   0.266 -0.2106  0.1283 -0.0390
13015W        W28146  11.467   9.949  13.849 -0.1770  0.0207 -0.1835
13016W        W28147  10.247   6.675   3.178  0.4309 -0.0197 -0.2083
13017W        W28148  15.304   2.383  11.991 -0.0566  0.1149 -0.0495
13018W        W28149  15.650   5.427  15.822  0.3257 -0.3939  0.1754
13019W        W28150   2.596   1.335   1.978  0.2462  0.1730 -0.1756
13020W        W28151   1.006  12.310  14.492 -0.0764 -0.5476  0.1886
13021W        W28152  16.731  11.590   4.848 -0.1210 -0.1001 -0.1718
13022W        W28153  11.634   6.610   2.661 -0.0296 -0.1714  0.0352
13023W        W28154  16.365  15.571  13.174 -0.1215 -0.0706  0.1942
13024W        W28155   6.437   1.202  11.083 -0.0977 -0.1455 -0.0031
13025W        W28156  14.197   6.699   1.645  0.1301 -0.0753 -0.0355
13026W        W28157  14.784   9.965   3.456 -0.2137  0.1177 -0.0149
13027W        W28158  11.688   8.795   1.629 -0.0807  0.0953 -0.1365
13028W        W28159   6.067  13.610  11.504 -0.0621 -0.1398  0.3392
13029W        W28160  16.068   4.559  10.345  0.2352  0.0514 -0.0401
13030W        W28161   7.918   3.823   5.682  0.0323 -0.2305 -0.1454
13031W        W28162  12.205   8.730  15.623 -0.0785 -0.1862  0.1809
13032W        W28163   8.894  14.338   3.615  0.0895 -0.0001  0.3525
13033W        W28164   9.913  16.676   0.200 -0.1309  0.0781  0.0419
13034W        W28165   9.586  16.880  12.607  0.1451 -0.0008 -0.0930
13035W        W28166  15.452  17.545   5.594  0.1994  0.0150 -0.4054
13036W        W28167   6.219   4.924  14.469 -0.3260  0.0673  0.2429
13037W        W28168   2.989   9.465  11.042 -0.0252  0.0326 -0.2452
13038W        W28169  11.471   9.617   4.338 -0.0224  0.0948  0.1016
13039W        W28170   5.738  11.498  11.665 -0.0573  0.0155 -0.2812
13040W        W28171   9.443  11.576   0.779  0.0307  0.0875 -0.1147
13041W        W28172   1.933   2.249   4.697  0.2161 -0.3761  0.2249
13042W        W28173  11.412   7.659   5.822 -0.0439 -0.1408  0.0379
13043W        W28174  12.131   7.601   4.586  0.0082  0.1230  0.0901
13044W        W28175   6.079   2.574   2.884  0.1308 -0.2200 -0.0551
13045W        W28176   3.733  17.308   3.281  0.1219 -0.0132  0.3277
13046W        W28177   1.456   0.723   2.912  0.2366  0.0647  0.2284
13047W        W28178   0.735   1.599  12.876  0.1352  0.0898  0.1879
13048W        W28179   6.383  12.786   3.968  0.3062  0.0204  0.0539
13049W        W28180  11.061  15.712  12.151  0.1786  0.1545  0.0528
13050W        W28181   7.102   1.807  10.404 -0.2181 -0.2913 -0.3241
13051W        W28182   8.191   3.246  12.478  0.0522  0.2022  0.3182
13052W        W28183  17.812   7.934   3.199  0.0849 -0.0239 -0.1006
13053W        W28184  12.697  11.224   2.316 -0.3546 -0.1210  0.0579
13054W        W28185   0.360   2.834   2.765  0.1667 -0.2765  0.0231
13055W        W28186   5.772   6.437   1.475 -0.1087  0.2260 -0.0051
13056W        W28187  14.855  15.863  15.802 -0.0815 -0.1244 -0.0673
13057W        W28188  13.985   7.353   0.336  0.0245  0.0306  0.1350
13058W        W28189  13.954  13.459   4.728 -0.2365 -0.0517  0.3146
13059W        W28190  11.741   8.504   0.341  0.0875  0.3445  0.3941
13060W        W28191   0.927  16.807  12.053 -0.2619 -0.4834  0.1193
13061W        W28192   7.419   5.629  13.066  0.2653  0.0666 -0.0451
13062W        W28193   1.675   2.410   0.910 -0.0813 -0.3961  0.1954
13063W        W28194   4.105  17.472   2.780  0.1122 -0.3436 -0.1798
13064W        W28195  12.046   1.972  12.534 -0.1194 -0.0248  0.2606
13065W        W28196  10.463   2.300  11.857 -0.0475  0.0989  0.1558
13066W        W28197  18.083  11.532  14.131  0.0935 -0.2450 -0.0369
13067W        W28198  11.448   9.312   1.604 -0.1044 -0.0199 -0.0496
13068W        W28199  11.120   9.662   1.309 -0.1739  0.1203  0.1208
13069W        W28200   3.952   0.503  10.822 -0.1513 -0.0785  0.0106
13070W        W28201   0.784   6.225   0.634 -0.2434  0.0209 -0.2226
13071W        W28202  10.747   7.988   3.455  0.1040 -0.1127 -0.5712
13072W        W28203  16.946   6.267   5.030  0.0537  0.1776  0.1891
13073W        W28204   3.569   8.397  16.233  0.1587 -0.1076  0.0403
13074W        W28205  13.783   4.814   4.752 -0.2672 -0.2846  0.0705
13075W        W28206   6.729   3.057   5.479  0.3172 -0.2810  0.3214
13076W        W28207   9.481   9.148   3.366 -0.3188  0.0662 -0.0494
13077W        W28208   6.257  15.217   1.064  0.0598  0.1700 -0.4369
13078W        W28209   4.621   4.426  13.696 -0.4263  0.2905  0.3150
13079W        W28210   9.062   3.529   1.241  0.1839  0.1624 -0.3646
13080W        W28211  10.941  18.074   5.470  0.3396 -0.0966 -0.2512
13081W        W28212  17.101  12.068   0.036 -0.0566 -0.2559  0.0001
13082W        W28213   9.263   2.381   2.984 -0.2664  0.1124  0.2107
13083W        W28214   2.566   4.479  14.690 -0.1717 -0.0612 -0.1573
13084W        W28215   8.363  11.110  14.851  0.0293 -0.4552  0.3784
13085W        W28216  13.227  13.376  15.814 -0.3053 -0.0536  0.1183
13086W        W28217   9.814   3.489   4.979 -0.0241  0.0047 -0.1083
13087W        W28218  17.122  14.339   4.257  0.2551 -0.1473 -0.1059
13088W        W28219  10.314  10.072   1.512 -0.5698  0.1918  0.2532
13089W        W28220  10.207   9.781  15.349  0.0010  0.2459 -0.0584
13090W        W28221  16.780  10.270   1.273  0.0713  0.2017 -0.1034
13091W        W28222  17.617   0.857  11.176  0.2623 -0.0574 -0.1709
13092W        W28223   9.466   3.962  11.190  0.1786  0.1647  0.2098
13093W        W28224  12.485   5.286   1.892  0.0759  0.0289  0.0259
13094W        W28225   3.080   5.297  11.243  0.0422  0.0053 -0.3952
13095W        W28226   9.161  13.739  11.788  0.1367 -0.3394  0.0406
13096W        W28227  13.921  11.678   0.734 -0.2443  0.0959  0.2032
13097W        W28228   7.824  10.892  13.995 -0.0217  0.1254  0.0215
13098W        W28229  12.074   5.458  13.807 -0.0755 -0.3637  0.0959
13099W        W28230  15.603   0.786  12.473  0.0118 -0.1512  0.0458
13100W        W28231  17.587   6.899   4.128 -0.1772  0.0261  0.0292
13101W        W28232  11.884   2.530   4.356 -0.2513  0.1664  0.0320
13102W        W28233  14.277   8.405   2.885 -0.0723  0.0197  0.0903
13103W        W28234  10.116   9.727   2.621 -0.0543  0.1720 -0.2682
13104W        W28235  16.679   4.830  13.034  0.1901 -0.1944 -0.0336
13105W        W28236  15.477   0.907   4.234 -0.1083  0.1123 -0.0478
13106W        W28237   6.480   6.010  15.627 -0.2178  0.2282  0.0643
13107W        W28238  17.468  11.100   1.031 -0.0173 -0.0403  0.2069
13108W        W28239  17.395   8.023  12.133  0.0048  0.0149  0.1203
13109W        W28240   2.536  10.077   4.491  0.0439  0.1731  0.0952
13110W        W28241   3.218   5.661  14.917  0.0737 -0.1520  0.0489
13111W        W28242  14.153   7.950  12.503 -0.1952  0.1122 -0.1727
13112W        W28243   9.100   1.441  12.222  0.2955  0.2572  0.1395
13113W        W28244  11.794   9.517   5.885 -0.0269  0.0529  0.5820
13114W        W28245  14.555   6.649   4.728  0.0987 -0.0523 -0.2612
13115W        W28246  13.800  14.734   0.965  0.0526 -0.0845 -0.0574
13116W        W28247   1.390   6.970  13.210 -0.3483 -0.2627  0.1962
13117W        W28248   3.923   9.685  15.087 -0.0446 -0.1517 -0.1599
13118W        W28249   7.218  11.923   3.906 -0.1332 -0.2209 -0.1544
13119W        W28250   7.644  17.760  13.021 -0.2220 -0.0172 -0.2733
13120W        W28251   5.387  17.227   1.556  0.3114  0.1315 -0.1152
13121W        W28252  14.732   9.952  13.666  0.4124 -0.0815 -0.0525
13122W        W28253   4.395   0.180   4.099 -0.1979 -0.1373  0.0403
13123W        W28254  12.566  12.231  14.830  0.1365  0.1442 -0.1770
13124W        W28255   8.138  15.567  15.443  0.2325  0.2905 -0.1823
13125W        W28256   7.915  10.141   1.680  0.1343  0.1178 -0.0394
13126W        W28257  11.472   0.809   2.189 -0.2551 -0.2626  0.0212
13127W        W28258   4.204  14.519   2.247  0.5352  0.1109  0.3209
13128W        W28259  10.504   4.314  12.549 -0.4071  0.4904 -0.1734
13129W        W28260  18.079   0.781  14.843  0.3558 -0.0972  0.0179
13130W        W28261   8.723   1.141   2.598  0.0092  0.1551 -0.0149
13131W        W28262   7.404   5.508  11.539 -0.0522  0.2987  0.1366
13132W        W28263   9.124  17.593   2.189  0.0289  0.0200  0.1154
13133W        W28264   6.254   8.096  12.564  0.1954  0.1465 -0.4673
13134W        W28265   0.665  17.491   0.935 -0.4334 -0.2126 -0.1751
13135W        W28266  10.802   0.927  15.869 -0.4290 -0.0949 -0.1249
13136W        W28267   6.933  17.119   4.930  0.0539 -0.0214 -0.2153
13137W        W28268  11.635   3.112  15.430  0.0001  0.0443 -0.2427
13138W        W28269   4.375   5.269  12.998 -0.0004  0.0763 -0.3052
13139W        W28270  17.024   2.072   1.611  0.1022  0.0328  0.3072
13140W        W28271  13.822   9.612  13.460  0.1208  0.0953 -0.0513
13141W        W28272  14.590   1.750  13.299 -0.1315 -0.1433 -0.1145
13142W        W28273   1.201  18.044   2.481 -0.1180  0.1046  0.0426
13143W        W28274  17.828   6.056   0.771 -0.4543 -0.1472  0.0251
13144W        W28275   0.057   0.431  14.350 -0.1394 -0.0963  0.0961
13145W        W28276  13.258  13.643   0.168  0.2091  0.1015 -0.1669
13146W        W28277  11.197   5.126  10.663  0.1528  0.0437 -0.0889
13147W        W28278  17.195  16.119   1.313  0.1970  0.1792 -0.3092
13148W        W28279   8.452  15.766  11.467 -0.0085  0.1634 -0.1553
13149W        W28280  17.650   7.247  11.725 -0.0160 -0.0797 -0.0429
13150W        W28281  18.182  12.571   2.005  0.3426  0.0079 -0.0644
13151W        W28282   7.496  17.152  11.825  0.1324 -0.1288  0.0973
13152W        W28283  13.584   8.165  13.890  0.1450  0.3582  0.0360
13153W        W28284  16.776  17.641  13.542  0.1456  0.2289 -0.0859
13154W        W28285   0.349   0.400   0.780  0.0202 -0.2383 -0.1277
13155W        W28286   1.654  14.304   1.982  0.0137 -0.2211 -0.5512
13156W        W28287   5.636  17.358  15.909  0.3812 -0.0715  0.0805
13157W        W28288  11.300   3.017   1.520 -0.1571  0.2908  0.1357
13158W        W28289  12.429   5.389   3.183 -0.1703  0.1258  0.0403
13159W        W28290   1.457   1.309  10.495  0.1943 -0.0395  0.3483
13160W        W28291   8.279  12.271   0.042 -0.3372 -0.3021  0.1825
13161W        W28292  13.983  15.367   4.781  0.2473  0.0524  0.1231
13162W        W28293  12.034  12.326  12.223 -0.1057 -0.1446 -0.0157
13163W        W28294  16.173   0.054   3.241 -0.0209  0.1948 -0.0272
13164W        W28295   0.375  17.027   2.073 -0.0283  0.1625 -0.1064
13165W        W28296  11.740   0.423  10.103 -0.0375 -0.0893 -0.2138
13166W        W28297   3.823  14.818   4.387 -0.0882  0.0723  0.0302
13167W        W28298  18.064  11.625   3.201  0.2540  0.3308 -0.1684
13168W        W28299   1.284   9.372   5.841 -0.0942 -0.0311 -0.2331
13169W        W28300  12.836  10.352   0.555 -0.0718 -0.1593 -0.1123
13170W        W28301   9.649   8.267   5.166  0.0916 -0.1211  0.0063
13171W        W28302  10.407  17.512  12.627 -0.4034  0.0576 -0.2390
13172W        W28303  16.702   1.702  11.296  0.2495 -0.1589  0.0243
13173W        W28304  11.624  13.416  15.012  0.3976 -0.2749  0.2091
13174W        W28305  14.238   4.504  12.753 -0.0500 -0.0683  0.1031
13175W        W28306   4.468  14.449   0.418  0.0135 -0.1531 -0.0021
13176W        W28307   4.935   5.008  11.577 -0.0044  0.1986 -0.0010
13177W        W28308   7.557   9.553  11.050 -0.0619  0.0976  0.2316
13178W        W28309  15.720   6.207  16.045  0.2420 -0.0716  0.0441
13179W        W28310  16.109   9.210  12.022 -0.0614  0.1808 -0.1032
13180W        W28311  12.682   0.044   1.889  0.1146 -0.3197  0.0948
13181W        W28312  16.892  15.406   3.405  0.2375  0.2620  0.0092
13182W        W28313  12.221   9.803   3.857  0.1466 -0.0813  0.2629
13183W        W28314   8.595   4.609  12.443 -0.1389 -0.0549 -0.1436
13184W        W28315  17.778  15.277   2.807 -0.2139 -0.6036  0.0793
13185W        W28316  11.134   3.500   4.978  0.2892 -0.1674  0.3866
13186W        W28317   3.991   2.474  13.407 -0.1078  0.1180  0.1545
13187W        W28318   2.386   5.875   4.757 -0.4012  0.1177 -0.0367
13188W        W28319   9.439  17.341   1.517  0.0506  0.0580 -0.4360
13189W        W28320   6.273   0.343  11.720  0.0526 -0.0801  0.1262
13190W        W28321  15.679  15.780  15.716 -0.0751  0.0703  0.0107
13191W        W28322  14.665  12.808  12.859 -0.0920  0.2238  0.0337
13192W        W28323   2.541   5.544  14.632  0.1175 -0.2473  0.2089
13193W        W28324  13.421  13.997  14.554 -0.1875 -0.2390 -0.0231
13194W        W28325  15.600   2.233  15.984 -0.1277  0.0727  0.0778
13195W        W28326   6.913   2.697  13.842 -0.0857  0.0463 -0.1153
13196W        W28327  11.893  11.671   2.104  0.0715  0.0650  0.0296
13197W        W28328  10.630   5.946  11.667  0.4871 -0.0616 -0.1721
13198W        W28329  11.278  15.702   0.917 -0.0464  0.1934 -0.1381
13199W        W28330   1.866   6.949   2.432  0.1275 -0.1406 -0.1084
13200W        W28331  11.065  17.763   1.914  0.1211 -0.1371  0.1139
13201W        W28332  11.672   2.772   1.612 -0.1573  0.0841  0.0051
13202W        W28333   6.169   7.363  16.104 -0.0748  0.0162  0.0344
13203W        W28334  10.741  12.321  15.504 -0.0281 -0.0853  0.1484
13204W        W28335   0.971   4.892   6.008 -0.0002 -0.1387  0.2336
13205W        W28336  16.914  12.738   4.950 -0.0792 -0.0223 -0.0603
13206W        W28337  11.945  17.876   4.619 -0.1973  0.2185  0.0280
13207W        W28338   9.646  16.351  13.823 -0.1086  0.1181  0.0742
13208W        W28339   1.929   3.777  15.627 -0.2708 -0.2768  0.0516
13209W        W28340  13.801   3.357  15.424 -0.1284  0.0956 -0.0007
13210W        W28341   0.863  15.811   4.553  0.1236 -0.0402  0.0183
13211W        W28342  13.816   3.596  14.316 -0.0394 -0.0185 -0.2300
13212W        W28343   9.769   0.539   1.008  0.2154 -0.0188 -0.0717
13213W        W28344  12.612   7.778   6.590 -0.2110 -0.0840  0.0029
13214W        W28345   9.352  12.767  15.840  0.0261  0.3931  0.1281
13215W        W28346   6.133   7.393   4.839  0.1490  0.1498 -0.0451
13216W        W28347   9.624   9.263   5.004  0.2222  0.0531  0.1811
13217W        W28348  15.141   5.464  15.998  0.0364 -0.2492 -0.0524
13218W        W28349  11.209   3.058   2.019 -0.0049  0.1998  0.1997
13219W        W28350   0.866   3.468  12.947 -0.0486 -0.0429 -0.0652
13220W        W28351  13.283  15.638  16.145  0.1177 -0.0038  0.6383
13221W        W28352  11.980   8.100   0.682 -0.0962 -0.2155 -0.0631
13222W        W28353  15.931   3.321   5.168 -0.0565  0.0889  0.1134
13223W        W28354  16.345  12.418  14.451 -0.1219  0.0736  0.1723
13224W        W28355   7.424  10.350   3.525 -0.2810 -0.3861 -0.0137
13225W        W28356  15.868   5.001   4.998 -0.0891 -0.3169  0.3969
13226W        W28357   5.507   5.989   3.009  0.0046  0.1080  0.2783
13227W        W28358  10.261   0.944  13.775 -0.1256 -0.3576  0.0699
13228W        W28359  16.082   9.373   1.010  0.0582  0.3054  0.2574
13229W        W28360   6.201  13.624   4.079 -0.3163 -0.2137  0.2853
13230W        W28361  16.837  14.495   2.430  0.1776 -0.0382 -0.1789
13231W        W28362  14.628  10.460  14.737  0.0839  0.2132  0.0284
13232W        W28363   3.909   0.935  15.142 -0.1104  0.0161  0.1487
13233W        W28364  16.141  12.167  12.887  0.1661 -0.0326 -0.0359
13234W        W28365  13.112  17.417  15.834 -0.1417  0.3254 -0.0831
13235W        W28366  17.802   4.858   3.564 -0.3141  0.1224 -0.0688
13236W        W28367   8.682  10.456  12.017 -0.0456  0.0703 -0.2306
13237W        W28368   1.048   0.307   1.194  0.0907 -0.0315  0.1026
13238W        W28369  10.585   5.415  13.950 -0.3508 -0.0787 -0.0872
13239W        W28370   0.835   7.539   0.192  0.4027 -0.1287  0.3030
13240W        W28371  14.640   5.282  16.230  0.1874  0.1273 -0.1290
13241W        W28372   8.386   7.537  11.294  0.0541 -0.0323  0.0170
13242W        W28373  15.864  11.784   1.264  0.2483 -0.0741  0.1137
13243W        W28374   5.915  15.905   0.607 -0.1379  0.2992 -0.2122
13244W        W28375   0.913   5.879  13.684  0.3205  0.2735  0.0283
13245W        W28376   3.967   6.188  10.550 -0.0055  0.1228  0.1034
13246W        W28377   7.800  16.370  14.889 -0.0367 -0.0689 -0.1851
13247W        W28378   9.699   7.818   3.461  0.2339 -0.2057  0.2439
13248W        W28379   7.085   8.858  11.214  0.0957 -0.0645  0.1336
13249W        W28380   8.690   8.002  14.864 -0.0372 -0.3005  0.2735
13250W        W28381  17.645   6.424   1.066  0.1139  0.0297 -0.1514
13251W        W28382   4.848  12.466   3.743 -0.0454  0.0360 -0.0190
13252W        W28383   6.346  17.059  14.156 -0.2395 -0.2507 -0.0963
13253W        W28384   3.441   6.861   1.718 -0.0878 -0.0350 -0.0038
13254W        W28385  10.186   6.659   0.971 -0.2225  0.1171  0.2726
13255W        W28386  14.271   4.028  13.955 -0.1497 -0.0202 -0.2560
13256W        W28387   0.495   1.031  13.511 -0.1229 -0.0372  0.0960
13257W        W28388   2.117   2.024  13.684  0.1445  0.2400 -0.1807
13258W        W28389   8.087   1.018   5.085 -0.0100 -0.1777 -0.2225
13259W        W28390  13.806   0.182   1.993  0.3020  0.0544  0.0319
13260W        W28391  16.446   7.028  10.971  0.0171 -0.0333  0.2629
13261W        W28392  16.094   6.694   2.280  0.0714  0.0427  0.2603
13262W        W28393  16.427  16.038  14.753  0.1370  0.1989  0.0949
13263W        W28394   4.890   9.586   3.782  0.2500 -0.0645  0.1066
13264W        W28395  17.692   1.419   1.039 -0.0082  0.2918  0.2388
13265W        W28396  14.335   1.551  11.156  0.1696 -0.3172  0.2725
13266W        W28397  10.043   1.762   5.351 -0.3489 -0.0536  0.1158
13267W        W28398   3.797   3.307  12.275 -0.1153 -0.0084 -0.1579
13268W        W28399   7.807   7.474   0.825  0.2537  0.1254  0.0294
13269W        W28400  14.032  12.256   5.283  0.0180  0.2698  0.0818
13270W        W28401   8.855   5.097   1.050 -0.1703  0.1268 -0.1505
13271W        W28402  10.304   1.533   0.268 -0.0019 -0.0480  0.0304
13272W        W28403   0.557  17.764   6.179 -0.1548  0.2656  0.0878
13273W        W28404   2.305   0.088  12.056  0.5758  0.2150 -0.1803
13274W        W28405   7.888  13.948  11.422  0.1788  0.4608  0.2056
13275W        W28406   9.876   4.032   2.096  0.1490 -0.0744  0.1041
13276W        W28407  16.081  12.979   0.274 -0.0742 -0.1928  0.2917
13277W        W28408   5.812   5.204   2.739 -0.0615  0.2000 -0.0836
13278W        W28409   8.338   2.350   3.200 -0.2155  0.0701  0.0475
13279W        W28410   9.610   0.924   2.183 -0.1641 -0.1199 -0.0674
13280W        W28411   7.214  13.063  11.377  0.1701 -0.2606 -0.3558
13281W        W28412   2.549   0.481  14.577 -0.2130 -0.1184  0.3148
13282W        W28413  11.744   9.537   3.455  0.2180  0.0617  0.1309
13283W        W28414   0.394   7.321   2.436  0.1459 -0.0479  0.0083
13284W        W28415   8.528  13.472  13.692 -0.0266  0.0769 -0.0366
13285W        W28416  15.897   0.106  14.159 -0.0118  0.0438  0.4680
13286W        W28417   5.311  14.364  11.726 -0.1956 -0.2421  0.0716
13287W        W28418   8.554  17.246  12.701  0.1335 -0.2329 -0.0519
13288W        W28419  10.804  15.372   4.673  0.1874  0.1204 -0.1748
13289W        W28420   0.619  12.506   0.217 -0.0278  0.2367 -0.1064
13290W        W28421   7.207  12.525  13.701 -0.2742 -0.1159  0.1552
13291W        W28422   4.617  16.643   2.937 -0.0807  0.5537  0.0381
13292W        W28423  17.179  12.335  12.735  0.0219  0.0880 -0.4779
13293W        W28424  13.818   7.804   5.434  0.1767  0.0424  0.0600
13294W        W28425  16.289  17.379  13.218 -0.1599  0.1506 -0.3970
13295W        W28426  11.448   0.353  11.095 -0.5196  0.2636 -0.1908
13296W        W28427   5.874   0.881  13.561  0.1368 -0.2131  0.0195
13297W        W28428   9.172  16.580  13.783  0.0298 -0.0019 -0.0255
13298W        W28429   1.556   9.638   5.420 -0.1599  0.3030  0.0130
13299W        W28430  14.658   6.131  11.780  0.4480  0.0572  0.0924
13300W        W28431  10.074   8.996   4.161 -0.0150  0.0482  0.1618
13301W        W28432   9.097   4.497  12.407  0.2394  0.2302 -0.1949
13302W        W28433   6.641   5.229  16.176  0.1172 -0.0454 -0.1119
13303W        W28434  15.573  15.685   2.036  0.2546  0.1752  0.3492
13304W        W28435   4.797   8.472  13.157 -0.0801 -0.1416  0.0694
13305W        W28436   4.598  10.012  12.427  0.0100  0.1278  0.0351
13306W        W28437   0.643  12.765  14.138 -0.0603 -0.0103 -0.0494
13307W        W28438  16.151   4.339   0.172 -0.1068  0.1076 -0.0177
13308W        W28439   1.670  10.045  15.661  0.1197 -0.1381  0.0813
13309W        W28440  16.807  13.619   1.922  0.1529  0.0215  0.1889
13310W        W28441   2.787  11.186   4.018  0.2114  0.0147 -0.0951
13311W        W28442  17.813  17.158  10.745 -0.0985  0.1938  0.0020
13312W        W28443  11.960  11.894   1.648  0.0687  0.0911  0.4747
13313W        W28444   0.851  13.897  15.500 -0.2799 -0.1177 -0.0697
13314W        W28445  10.925  12.853  11.524  0.0833  0.0773 -0.3238
13315W        W28446   5.481   1.542   1.388  0.1777  0.1340 -0.0240
13316W        W28447   1.425   5.754  15.288  0.3559  0.1726  0.1539
13317W        W28448   0.956   7.038   0.298  0.2533 -0.0672  0.3704
13318W        W28449  17.706   4.927  11.611 -0.2085 -0.1101  0.0009
13319W        W28450  17.704  13.849   1.933  0.2867 -0.1354  0.0743
13320W        W28451   2.076   3.054  11.839 -0.1319  0.0978  0.0024
13321W        W28452   6.503  13.289   4.298 -0.3175  0.2924  0.1823
13322W        W28453   1.476   0.777  14.907  0.1338  0.0941 -0.1379
13323W        W28454   4.113  16.260  12.212  0.3724  0.2176 -0.2300
13324W        W28455  17.815   1.306  12.278  0.0424  0.1115  0.1583
13325W        W28456  11.820  10.547   4.859  0.0436  0.0057  0.0174
13326W        W28457   7.114  11.776  13.146 -0.0227  0.1579 -0.1972
13327W        W28458   8.063   1.526  12.379 -0.1205  0.0118  0.1130
13328W        W28459  10.057  12.096   1.894 -0.2832  0.0555  0.0469
13329W        W28460  13.780  12.404   4.671 -0.0084  0.1956 -0.0705
13330W        W28461  14.211   7.503  12.848 -0.1719  0.1282 -0.1518
13331W        W28462  15.098  18.001   1.538 -0.3932 -0.3150 -0.1396
13332W        W28463   9.358   6.004   2.645  0.1353  0.1960  0.0520
13333W        W28464   2.522  15.188   0.047  0.1494 -0.0035 -0.1152
13334W        W28465   1.133   7.380   0.613  0.1695  0.1419 -0.2640
13335W        W28466  10.948   2.229   0.641  0.1160  0.2856 -0.1200
13336W        W28467  14.581   2.472   5.955  0.0906  0.0236  0.2637
13337W        W28468   7.780   1.943   5.188 -0.1100 -0.3368 -0.3153
13338W        W28469   1.136  16.652  13.119  0.1395 -0.0645  0.1615
13339W        W28470  12.734  13.110   1.048 -0.0314 -0.0388  0.1066
13340W        W28471  16.972   1.280  12.235  0.1473  0.3609  0.1379
13341W        W28472  11.117  13.438   4.542  0.2685 -0.0245  0.1943
13342W        W28473  10.274  12.459  15.176  0.0620 -0.0447  0.0975
13343W        W28474   2.819  12.831  14.173  0.3606  0.1208  0.1056
13344W        W28475  14.352  16.408   4.604  0.2586 -0.0740  0.0472
13345W        W28476   9.531  12.080  14.166  0.2411  0.2067  0.3178
13346W        W28477   5.736  14.886   3.834 -0.0393 -0.0100 -0.2656
13347W        W28478   6.192  12.393  10.383 -0.0021  0.1801 -0.0863
13348W        W28479   6.532   0.751  15.400  0.1162  0.3908  0.0006
13349W        W28480  10.659   0.959  11.322  0.0304 -0.2322  0.1111
13350W        W28481   7.925  17.244  14.052 -0.0381 -0.1449 -0.2944
13351W        W28482   7.924  11.087   0.243  0.0028  0.0889 -0.1176
13352W        W28483  11.070   6.124   2.134  0.2799  0.1085  0.0375
13353W        W28484  15.820   1.597   3.755 -0.0022  0.0126  0.2886
13354W        W28485   6.917  16.052  14.927  0.0362 -0.4234  0.2036
13355W        W28486  14.497  13.108  11.404  0.1434 -0.4661  0.2277
13356W        W28487  14.334  10.528   2.632 -0.0026  0.1627  0.1533
13357W        W28488  15.706  14.420   5.303 -0.0431  0.0901 -0.0960
13358W        W28489   9.078  14.944  10.603 -0.1416 -0.3411  0.1728
13359W        W28490  16.958   8.942   0.901 -0.1834  0.1190  0.2534
13360W        W28491   1.573  11.991  13.292 -0.0973  0.0599  0.0412
13361W        W28492   9.832   3.865   4.604  0.1041  0.0463  0.2860
13362W        W28493   3.611   5.486  16.213  0.1253 -0.0956  0.1983
13363W        W28494  15.331   1.250  11.655  0.1368 -0.2464 -0.0742
13364W        W28495   8.233   8.047   3.748  0.0807 -0.0864 -0.1015
13365W        W28496   4.023  15.326  14.964 -0.1232  0.0974 -0.3081
13366W        W28497   1.888   2.813   3.971  0.0651  0.1968 -0.2357
13367W        W28498   3.969  10.327   0.790  0.1263 -0.1040  0.1362
13368W        W28499  16.583   1.199  14.978 -0.3113  0.0632 -0.1669
13369W        W28500   1.684  15.001   1.226  0.0631  0.1722 -0.0288
13370W        W28501  14.767  12.623  13.391 -0.1380  0.0531  0.0202
13371W        W28502   4.453   4.439   0.934 -0.1433 -0.2368 -0.1883
13372W        W28503  10.161  17.673   2.726 -0.1195  0.1680  0.1500
13373W        W28504  17.948   7.566   4.980  0.0901  0.0833 -0.3047
13374W        W28505  10.122  17.732   3.251 -0.1464 -0.0921  0.3671
13375W        W28506   0.942  12.650   1.093 -0.0140  0.0379  0.2088
13376W        W28507   5.735   1.164  12.072  0.0292  0.3488 -0.2721
13377W        W28508   0.725   2.318   3.505  0.2249  0.0604  0.3181
13378W        W28509   2.049  14.695   0.222 -0.0930  0.0785 -0.1537
13379W        W28510  15.718   9.362  11.160 -0.0745  0.0877 -0.1382
13380W        W28511   8.896  16.496  13.316 -0.0315  0.4113  0.0565
13381W        W28512   9.457   8.242   3.614 -0.3346  0.1528  0.4235
13382W        W28513   7.016  13.059   1.342 -0.2084  0.0489  0.0837
13383W        W28514  13.548  10.640  11.863 -0.0585 -0.0644  0.0936
13384W        W28515   7.354   0.231   4.512  0.1560  0.1024  0.0624
13385W        W28516   8.776  16.576  10.598  0.0465  0.3801 -0.0373
13386W        W28517   1.575   4.499  13.476  0.0558  0.1380 -0.0011
13387W        W28518   9.948  15.353  14.320  0.2062  0.1077  0.0162
13388W        W28519   5.666   0.364  12.310 -0.1044 -0.0732  0.0277
13389W        W28520   4.640   8.832   4.325 -0.0005 -0.2397 -0.0878
13390W        W28521  17.894  11.666  12.960  0.0251 -0.0556  0.1251
13391W        W28522  16.389   9.290   2.154  0.2909  0.2725  0.0618
13392W        W28523   9.282   9.670   4.911  0.0880  0.0970  0.0348
13393W        W28524   1.249  15.179  15.962  0.1815  0.4745 -0.0693
13394W        W28525   5.820   1.847   4.794  0.0183  0.0400 -0.0724
13395W        W28526  12.900   5.652   2.030 -0.1870 -0.0567  0.0304
13396W        W28527   2.326  13.235  11.389 -0.1282 -0.1726  0.3234
13397W        W28528   3.088   5.897  11.570  0.0902  0.2569  0.1311
13398W        W28529   1.425   3.442  12.388 -0.0207  0.1837  0.1748
13399W        W28530   9.917   0.729   2.646  0.0406 -0.0682 -0.1111
13400W        W28531   3.751   7.276   1.506 -0.0828 -0.0364 -0.0010
13401W        W28532  11.015   9.026  10.086 -0.0368  0.1768 -0.2776
13402W        W28533  10.632  10.927   2.596  0.1574 -0.2742  0.0419
13403W        W28534   7.310  11.740  12.268 -0.2629  0.0489  0.1047
13404W        W28535  15.588  13.082   5.306 -0.0721 -0.1405 -0.5194
13405W        W28536   3.102   1.457  15.981 -0.0470 -0.0642  0.2445
13406W        W28537   9.348  17.825   5.936 -0.2006 -0.3228 -0.3898
13407W        W28538  15.463   1.145   6.192 -0.1429  0.2590  0.2011
13408W        W28539   4.662   5.256  14.776 -0.3220 -0.1976 -0.1972
13409W        W28540   6.379  13.802   3.597 -0.1633 -0.4159  0.0951
13410W        W28541  16.290   4.763  11.719 -0.3682  0.2311 -0.1322
13411W        W28542   3.017   3.020   2.671  0.1567  0.1551 -0.0232
13412W        W28543  10.258  17.257   3.101 -0.1221 -0.1907 -0.0511
13413W        W28544  12.127   1.427   0.015 -0.0608  0.0587  0.2153
13414W        W28545  16.685   3.062   3.684 -0.1066  0.0992 -0.1636
13415W        W28546   9.348   5.083   4.161 -0.0362  0.0712  0.1008
13416W        W28547   0.469   2.988   1.502 -0.1993  0.1884 -0.1706
13417W        W28548  15.503   7.446  13.339  0.1291 -0.1749 -0.0081
13418W        W28549  15.168   1.510   0.569  0.0711  0.1286  0.0901
13419W        W28550   0.677   0.030  15.585  0.1679 -0.1011 -0.0680
13420W        W28551   6.774  10.791   0.193  0.0163 -0.0418 -0.1385
13421W        W28552  11.891  12.798  13.144  0.4009  0.2546  0.0295
13422W        W28553  14.079   4.136  10.551 -0.0232 -0.2957  0.2203
13423W        W28554  12.580   5.780   5.409  0.0170  0.2467  0.0000
13424W        W28555  16.322   1.742   4.791  0.1188  0.1176 -0.2854
13425W        W28556  10.853   1.270  14.947  0.0334  0.1055  0.0859
13426W        W28557  16.077  16.408  14.777 -0.0308  0.1155 -0.1255
13427W        W28558  15.213   3.650  12.675  0.1969 -0.0535 -0.0324
13428W        W28559   1.763  17.035   3.596  0.0464  0.0324 -0.2121
13429W        W28560  10.693  15.141   4.213  0.0197  0.0116  0.2259
13430W        W28561   8.160   6.616  12.053 -0.0368 -0.0374 -0.0747
13431W        W28562   5.499   1.294   2.588  0.1725  0.2127 -0.0025
13432W        W28563  18.116   7.561   4.216  0.2100 -0.5894  0.0567
13433W        W28564  15.355  11.050  11.815 -0.0911  0.0876  0.2896
13434W        W28565   1.325   6.771  15.787  0.1823 -0.0169 -0.2100
13435W        W28566  14.819   6.745   5.114  0.0682 -0.2244 -0.3063
13436W        W28567  14.835   5.310   2.801 -0.1408 -0.1757  0.0522
13437W        W28568   1.486  13.745  14.371 -0.0373  0.1300 -0.1414
13438W        W28569   7.395   4.631  11.737 -0.0493 -0.0936 -0.3652
13439W        W28570  17.658  14.062   0.614 -0.0217  0.0844  0.1907
13440W        W28571   5.904   9.832  15.255 -0.1222 -0.1034 -0.0395
13441W        W28572   4.994   0.839  15.963 -0.1251 -0.0911 -0.2324
13442W        W28573   6.247   9.584  11.502  0.3005  0.4149  0.0312
13443W        W28574  12.681  15.024   4.434  0.2934  0.2760  0.0208
13444W        W28575   2.992   8.691  11.438  0.1480  0.0486 -0.1637
13445W        W28576  16.198   4.658   1.232  0.2474 -0.2151  0.0347
13446W        W28577   2.021  16.094   2.548 -0.0240 -0.2451 -0.0814
13447W        W28578   4.706  12.976  15.316  0.2156 -0.0516  0.0076
13448W        W28579  10.833   3.413  13.110  0.2470 -0.0848 -0.3444
13449W        W28580  10.549  18.135  11.886 -0.1392  0.1512 -0.0186
13450W        W28581  10.266  12.087  14.832  0.0321  0.1463  0.0764
13451W        W28582   6.251   2.084  14.413  0.1200  0.1894 -0.0874
13452W        W28583   2.824  17.142  14.324  0.2476  0.5343 -0.0028
13453W        W28584  15.218   6.303   3.446 -0.0903 -0.3434 -0.2585
13454W        W28585   5.323   0.057  14.480 -0.0522  0.0078 -0.0350
13455W        W28586   5.597   9.652  11.372 -0.2687 -0.2667 -0.0796
13456W        W28587  15.509   3.935  12.246 -0.1585 -0.0995 -0.1747
13457W        W28588  15.873  12.413   1.687  0.2631  0.0550  0.1516
13458W        W28589  13.408  10.758  13.125  0.3584  0.1818 -0.4255
13459W        W28590  13.260   4.572   4.826 -0.1570 -0.1651  0.1380
13460W        W28591   6.381   7.624  13.980 -0.1522  0.1403  0.2592
13461W        W28592  10.735  11.110   5.832  0.2273 -0.2099  0.0043
13462W        W28593  14.392  10.991   5.823 -0.0360  0.2374  0.1750
13463W        W28594  16.884   8.245  10.396 -0.2688  0.0461 -0.1051
13464W        W28595   4.527  16.687  12.565 -0.1399  0.2208  0.0125
13465W        W28596  16.563   1.964   4.355 -0.1035 -0.2907  0.1802
13466W        W28597  15.263  11.412  12.614  0.0466  0.2920  0.2446
13467W        W28598  14.013  15.070  10.354  0.0445  0.0509 -0.3084
13468W        W28599   3.042   3.329   0.722 -0.0230  0.0308  0.0258
13469W        W28600  11.069  12.125   4.322  0.3737 -0.0421  0.3917
13470W        W28601   8.745   2.087   4.845 -0.0524 -0.0533  0.1539
13471W        W28602  10.441  11.395   9.930 -0.1768 -0.0218  0.1903
13472W        W28603   7.147   0.918  16.207 -0.0775  0.0510  0.0290
13473W        W28604   3.322   4.878   0.978 -0.1662  0.2529 -0.1373
13474W        W28605  11.849  14.416  15.830 -0.1506  0.2274  0.0464
13475W        W28606   2.880  17.271  12.821 -0.2563  0.1602 -0.0502
13476W        W28607   0.573   2.415   0.526 -0.2229 -0.0177 -0.0827
13477W        W28608  14.498   5.261  12.537 -0.0064  0.0517 -0.3560
13478W        W28609  12.031  10.237   1.481  0.0876  0.1508  0.0454
13479W        W28610  14.444  15.291   4.936  0.0162  0.0432 -0.0783
13480W        W28611   1.339   2.529   1.596  0.0462  0.2168 -0.3837
13481W        W28612  15.326   8.184   1.159 -0.1853  0.1287  0.1593
13482W        W28613   3.720   2.626  16.061  0.0280  0.0887  0.2331
13483W        W28614  16.499   6.796  13.766 -0.0280  0.1784 -0.0085
13484W        W28615   1.709  17.713  14.958 -0.1097 -0.4077  0.1195
13485W        W28616   6.785   1.952  12.407  0.0139  0.1551  0.0872
13486W        W28617   8.390   8.780   3.221  0.1515  0.2895  0.0534
13487W        W28618   7.191  11.881   5.181 -0.0237 -0.0599  0.0222
13488W        W28619   6.163  10.871  12.677 -0.3740  0.3445  0.0699
13489W        W28620  14.238  10.754  14.176 -0.0114 -0.0815  0.2245
13490W        W28621   5.167   3.767  13.653 -0.1661 -0.3316  0.3254
13491W        W28622  14.429   8.268   0.453  0.0620 -0.0461  0.0145
13492W        W28623   9.994   2.072  11.283  0.1696 -0.2318  0.1939
13493W        W28624  13.043  16.919  12.412  0.0501 -0.0775 -0.0007
13494W        W28625  14.314   2.649   3.227  0.0669  0.2390  0.1016
13495W        W28626  12.221   5.790   0.917  0.2932 -0.1867 -0.3631
13496W        W28627  18.049   9.874   6.126  0.0928 -0.0441 -0.0633
13497W        W28628   2.612   9.253  13.493 -0.0373 -0.1121  0.1048
13498W        W28629  16.201   4.094   5.683 -0.1057 -0.2496  0.0551
13499W        W28630  13.832  14.988  12.049  0.1901 -0.1521 -0.2591
13500W        W28631  13.005  16.708   3.242  0.1745  0.2672 -0.1186
13501W        W28632   8.607  14.021   3.926  0.0896  0.1511  0.2229
13502W        W28633  10.239  12.616  13.251  0.1794 -0.0157  0.1075
13503W        W28634  16.151   6.747   5.262 -0.0845 -0.1004 -0.0776
13504W        W28635  14.712   7.775   2.940  0.1612 -0.0114 -0.0357
13505W        W28636   6.442  17.742   5.429  0.1387 -0.0163 -0.3344
13506W        W28637   9.716  14.668   3.334  0.2583  0.0498 -0.1914
13507W        W28638  10.503   2.801   1.448  0.1065  0.0571 -0.0069
13508W        W28639   5.470  10.260  12.060 -0.1138  0.0063  0.0625
13509W        W28640  12.304  14.762  13.476  0.3582 -0.4303 -0.0436
13510W        W28641   6.852  11.044  15.204  0.2181  0.3322  0.1569
13511W        W28642  16.642   2.509  16.006  0.0658  0.0688 -0.1106
13512W        W28643  15.373   5.416   1.300 -0.0985  0.1293  0.2680
13513W        W28644  12.755  14.440  11.060  0.0985  0.0561  0.2890
13514W        W28645   7.478   3.865  15.859 -0.0768 -0.0581  0.1253
13515W        W28646  12.508   0.664   0.602  0.0758  0.2547  0.2925
13516W        W28647  14.274   1.227   3.858 -0.1145 -0.1610 -0.1446
13517W        W28648   7.145  13.885   4.669  0.0380 -0.1748  0.2704
13518W        W28649  14.807  10.556   3.503 -0.1917  0.0635  0.3118
13519W        W28650   2.590  14.800  13.564  0.0384 -0.1031 -0.0614
13520W        W28651  12.501  17.674   2.828 -0.4406 -0.0163  0.1086
13521W        W28652  12.990  11.850   5.719 -0.3181  0.1447  0.1323
13522W        W28653   1.611   5.837   3.377  0.1362  0.1844 -0.3597
13523W        W28654   9.339  15.729   1.402  0.1056  0.0681 -0.0165
13524W        W28655   4.914  15.886   4.022  0.1341  0.0391 -0.0392
13525W        W28656   9.961   1.999  13.850 -0.0259  0.1438  0.0333
13526W        W28657   0.907   5.784   2.912 -0.0965  0.2279 -0.0944
13527W        W28658  14.433   0.106   3.659 -0.0505  0.2425  0.0688
13528W        W28659   6.677  11.996   4.009 -0.0326 -0.1637 -0.0646
13529W        W28660   2.846   5.951  14.697 -0.1421  0.0817  0.1810
13530W        W28661   1.315   0.634   4.729 -0.1539  0.0010 -0.0954
13531W        W28662   1.311   1.781   5.276  0.2578 -0.2502  0.1219
13532W        W28663   4.321   0.862  14.738 -0.1470 -0.1624  0.0530
13533W        W28664  14.081   2.176  13.283  0.1733 -0.1939 -0.3288
13534W        W28665  12.036  13.680   1.390 -0.0919  0.2250  0.2599
13535W        W28666   1.391  10.835   3.429  0.0784 -0.5721  0.0942
13536W        W28667   3.000   5.932   0.030  0.0728  0.1582  0.0721
13537W        W28668  14.023   9.250   4.320  0.0229 -0.2129  0.1371
13538W        W28669  15.691   2.906   3.895  0.0932  0.0640 -0.2486
13539W        W28670  11.766  12.900   0.124  0.3233  0.2961  0.1414
13540W        W28671   5.211  10.530   4.735 -0.1829 -0.0921  0.3149
13541W        W28672   2.482   5.984  15.512 -0.1184  0.0598 -0.0373
13542W        W28673   5.347  14.992  14.940 -0.0133  0.0381 -0.0269
13543W        W28674  11.943  12.261   4.708  0.0164  0.1834  0.1817
13544W        W28675   7.256  15.344   1.555  0.1488  0.3560 -0.0259
13545W        W28676   3.765   3.562   4.538  0.0115  0.1431 -0.0218
13546W        W28677   4.849   6.501   5.377 -0.0159  0.0887 -0.0270
13547W        W28678   0.700   0.564   2.546  0.1447  0.0053  0.0836
13548W        W28679   9.798   3.246  11.154  0.0316  0.2935 -0.0469
13549W        W28680   2.719   6.329  11.462 -0.5422 -0.1888  0.0310
13550W        W28681   2.811   4.817   0.261 -0.2642 -0.1663  0.2268
13551W        W28682   5.521  17.428   3.020  0.0597  0.0555  0.0808
13552W        W28683  13.131  13.137   5.502 -0.0463 -0.1334 -0.1231
13553W        W28684   2.382   0.997  14.842 -0.0312  0.1202  0.1081
13554W        W28685  12.429   3.106  14.650  0.0787  0.1947  0.1485
13555W        W28686   2.181   6.250  16.225 -0.0750  0.0088 -0.0673
13556W        W28687  15.441  11.960   5.916  0.1562 -0.1141 -0.2387
13557W        W28688   5.782  10.202   4.983 -0.0750  0.1683 -0.0891
13558W        W28689   5.658   8.649  14.777  0.2343  0.0818  0.1948
13559W        W28690   9.050   0.951   5.627  0.0758  0.0550 -0.0508
13560W        W28691  11.689  16.698   5.170 -0.1864 -0.2823  0.0279
13561W        W28692   8.888   7.404  14.277 -0.0129 -0.0330  0.1048
13562W        W28693   2.440  10.473  13.048  0.0208  0.0278 -0.3605
13563W        W28694   2.922  11.965   0.253  0.1035  0.0754 -0.1252
13564W        W28695   7.253   2.689  11.972 -0.0408 -0.0879 -0.0711
13565W        W28696  17.390  11.334   5.321 -0.0949  0.0497  0.1232
13566W        W28697   5.361  10.977  10.964 -0.1654  0.1156  0.1985
13567W        W28698  11.697  16.311   2.769 -0.1660  0.1016 -0.1429
13568W        W28699  10.813  15.684   1.592  0.0726  0.4317 -0.4240
13569W        W28700  12.967   3.853   3.073 -0.3918 -0.0732 -0.2567
13570W        W28701  12.405   8.360   3.616  0.0939 -0.2575  0.2777
13571W        W28702   4.996   0.240   1.184 -0.0380  0.0546 -0.0082
13572W        W28703  10.588  15.910   1.994  0.2284  0.2409  0.2288
13573W        W28704   5.358   4.406  11.239  0.0415  0.0092  0.0567
13574W        W28705   8.057  14.737  14.847 -0.1714  0.1467  0.6015
13575W        W28706  11.023   6.695   0.266 -0.0425  0.0597  0.2278
13576W        W28707   7.714  15.507   2.300  0.0744  0.0657 -0.0194
13577W        W28708  13.858   0.422  13.770  0.2124 -0.1634 -0.0106
13578W        W28709  12.458   9.631   2.946 -0.5622 -0.1489 -0.0808
13579W        W28710  10.540  17.894  13.399  0.0069 -0.1439  0.0001
13580W        W28711  18.055   0.972  15.723  0.2146  0.2042  0.0548
13581W        W28712  10.563   7.953  14.546  0.0507 -0.2402 -0.0191
13582W        W28713  11.535   4.775  11.926 -0.0289 -0.1845 -0.1215
13583W        W28714   2.308   5.606   2.039  0.1956  0.0258  0.1527
13584W        W28715   6.521  14.534  13.895  0.0201 -0.3836 -0.0310
13585W        W28716   5.941   6.945  11.718  0.0709  0.0478 -0.1487
13586W        W28717   6.956   8.961  13.047 -0.2147 -0.2542  0.0325
13587W        W28718   5.494  11.659   2.469 -0.2421 -0.2247  0.2244
13588W        W28719  15.217   1.026   1.926  0.0763 -0.0338 -0.1057
13589W        W28720   8.299   3.368   2.342  0.0523 -0.0830 -0.0782
13590W        W28721   7.681   6.480   3.676  0.2360  0.2115  0.0013
13591W        W28722   3.372  12.026   3.309 -0.3871  0.1218 -0.0340
13592W        W28723   8.925   4.521  15.099 -0.0507  0.3806  0.0182
13593W        W28724   7.119   6.895  13.705 -0.0392  0.2305  0.0586
13594W        W28725   0.715  13.882   0.304 -0.0306 -0.1750 -0.0740
13595W        W28726   3.189  12.158  12.982  0.0474 -0.1760 -0.0481
13596W        W28727  16.319  10.214   1.012  0.2982 -0.0542 -0.0645
13597W        W28728  11.417  17.693  13.896 -0.1585  0.0028  0.2738
13598W        W28729  10.942  11.499   9.844 -0.0435  0.2939 -0.2540
13599W        W28730   9.482  12.293  12.773 -0.1835  0.1403 -0.0513
13600W        W28731  15.851   3.294  11.624 -0.2461 -0.0619  0.0319
13601W        W28732   3.473   0.927  15.432  0.0161  0.0702 -0.0483
13602W        W28733  12.923   9.096   3.045  0.1346  0.0721 -0.0619
13603W        W28734  13.370   5.448   1.969 -0.1311  0.1611 -0.0230
13604W        W28735  14.137   1.505   2.505 -0.0880 -0.2211 -0.1274
13605W        W28736  16.645   3.177   0.500  0.0006  0.1991  0.1995
13606W        W28737  11.270   8.663   3.507  0.1075 -0.1823 -0.1719
13607W        W28738   1.038   0.634   0.458 -0.3233  0.1323  0.1656
13608W        W28739  17.765   0.997  11.920 -0.1905 -0.1562  0.2882
13609W        W28740  11.999   2.696  13.497  0.1724  0.1522  0.1256
13610W        W28741  16.235   2.951   5.054  0.0645 -0.0378  0.1322
13611W        W28742  11.354  17.695   3.845 -0.1353  0.1552  0.2264
13612W        W28743   7.813  17.540   0.980 -0.0468 -0.0629  0.2639
13613W        W28744   3.133   9.095   0.945 -0.1079 -0.3388 -0.0498
13614W        W28745  14.472   9.481   3.327 -0.0708 -0.1777  0.1364
13615W        W28746  16.308   3.656  15.806 -0.3199  0.2608 -0.0989
13616W        W28747   7.820   2.769   1.937  0.0793 -0.1094 -0.0725
13617W        W28748   7.698  17.517  15.542  0.3986 -0.1435  0.1282
13618W        W28749  18.111  14.296  13.709 -0.2698 -0.0407 -0.0277
13619W        W28750   3.766   9.371  14.526  0.0193  0.0877 -0.1194
13620W        W28751  10.984  10.062  10.032 -0.0643  0.1005 -0.3197
13621W        W28752   7.377   1.874   5.885 -0.2639 -0.2983 -0.0601
13622W        W28753   9.477  15.829   4.512  0.0369 -0.2609 -0.1593
13623W        W28754   7.583   0.710   0.221 -0.1769 -0.0161  0.0499
13624W        W28755   2.979   2.191   0.115  0.1954 -0.0591 -0.1622
13625W        W28756   7.325   2.677   2.210  0.0549  0.1328  0.1428
13626W        W28757  13.484   4.715  10.970  0.1333 -0.3082  0.0564
13627W        W28758   0.366  14.450  12.660  0.1055 -0.2125  0.4888
13628W        W28759  16.730  12.113   2.236  0.1515 -0.3556 -0.1457
13629W        W28760   8.979   1.989  13.202 -0.0798 -0.1814 -0.0090
13630W        W28761   2.067   0.608   4.183  0.1411  0.2915  0.1018
13631W        W28762  11.179  14.632  14.608  0.1096 -0.0811  0.2250
13632W        W28763  17.102   4.000   2.220 -0.2033 -0.2391  0.0725
13633W        W28764   3.341   8.028  15.005  0.3424  0.2738 -0.1168
13634W        W28765   8.661   7.846   4.599  0.2717  0.1928  0.0273
13635W        W28766  16.796  13.265  11.632  0.1677 -0.1173 -0.0544
13636W        W28767   1.196   6.870   2.690 -0.0190 -0.0803  0.0995
13637W        W28768   0.771  10.077  11.594 -0.0540  0.0899  0.2515
13638W        W28769   2.923   3.631  10.820 -0.0075  0.0402 -0.0381
13639W        W28770  14.727  12.265  12.761 -0.1714  0.2101  0.1960
13640W        W28771  17.666  11.421  15.227 -0.2280  0.1092 -0.0107
13641W        W28772  17.936  17.347  12.983  0.0876 -0.1371 -0.1750
13642W        W28773  14.026   2.023  13.987  0.0949 -0.0004 -0.0284
13643W        W28774   6.971   8.437  13.092 -0.1320 -0.1353 -0.2289
13644W        W28775   2.899  15.179  13.271 -0.1274  0.0234  0.2783
13645W        W28776  17.937  10.892  13.017 -0.0120  0.1390  0.0375
13646W        W28777   8.377   6.439   0.519  0.1886  0.3676  0.0401
13647W        W28778   3.139   2.137   0.586 -0.0180 -0.1826 -0.2327
13648W        W28779   5.777   9.084  13.445  0.1016 -0.2320  0.1523
13649W        W28780   4.157  13.221   4.991  0.1132 -0.3173  0.3200
13650W        W28781  10.475  15.375   1.799  0.0800 -0.1317  0.2747
13651W        W28782  16.488  17.535  11.777  0.1275  0.0862 -0.0294
13652W        W28783  17.521   0.043  12.736 -0.1121  0.0629  0.0992
13653W        W28784  15.761  12.130  16.121 -0.3595 -0.0752 -0.1288
13654W        W28785   7.634  14.349  12.692 -0.1244  0.0708 -0.2094
13655W        W28786  14.596  16.837  13.167 -0.1519 -0.2116 -0.0110
13656W        W28787   2.952   2.178   9.880  0.0348 -0.1741  0.1942
13657W        W28788   1.685  10.233   3.339 -0.0123 -0.0090 -0.0960
13658W        W28789   5.205  11.347  11.800  0.0355 -0.0154 -0.1486
13659W        W28790   2.241  10.582   5.097 -0.1591 -0.0935 -0.1084
13660W        W28791  17.473  15.380  14.893 -0.1219  0.1562 -0.1865
13661W        W28792  15.065  10.267  12.468 -0.0460  0.2179 -0.0618
13662W        W28793   9.692   1.694   2.798  0.1134 -0.2043  0.2156
13663W        W28794   6.735   2.373   0.696  0.0324  0.1488 -0.1004
13664W        W28795  10.119   9.474   3.123 -0.0286  0.2646 -0.1463
13665W        W28796  12.875   4.703  11.346 -0.2554  0.1545 -0.1727
13666W        W28797  16.899   9.081  15.889 -0.0669 -0.1149  0.0024
13667W        W28798  17.427   9.508   2.544 -0.0914 -0.2280 -0.1188
13668W        W28799  12.003   7.345  15.758  0.2902 -0.0586  0.1454
13669W        W28800   8.773   4.331   5.117 -0.1319 -0.2341  0.1545
13670W        W28801   9.794   9.334   4.327 -0.2125 -0.0549  0.2303
13671W        W28802   0.109  14.093   3.291  0.2484 -0.0652 -0.1702
13672W        W28803  10.160   0.911  10.982 -0.0458  0.0961  0.0555
13673W        W28804  15.701   2.687  15.717  0.4439  0.1504  0.0574
13674W        W28805  13.514   6.481   4.036  0.2062  0.1810  0.1128
13675W        W28806   0.782  14.151   1.957 -0.0095 -0.4413  0.1185
13676W        W28807   5.724   7.420   1.717  0.0705 -0.0539 -0.1721
13677W        W28808   4.601   9.824   1.178  0.2843 -0.4622  0.0461
13678W        W28809  10.018   4.075   3.816  0.0195 -0.1268 -0.0260
13679W        W28810   8.437   7.126  14.935  0.0127 -0.0777 -0.4728
13680W        W28811   0.424   0.873   4.918 -0.3376  0.3115 -0.0043
13681W        W28812   2.609   1.865  13.766  0.0355  0.0935 -0.0039
13682W        W28813   5.568   5.769  15.597  0.3058 -0.1138  0.0851
13683W        W28814  13.174   9.184   2.169 -0.1705  0.2028  0.0383
13684W        W28815   0.066  16.566   2.760  0.0497  0.1855  0.2059
13685W        W28816  12.878   5.943   0.500 -0.1511 -0.1007  0.1103
13686W        W28817   4.811   3.955   3.170  0.0243  0.2030 -0.1004
13687W        W28818  16.718   4.321   2.385  0.1989 -0.1743 -0.0250
13688W        W28819   6.251  16.068  10.078  0.1095  0.0621  0.1590
13689W        W28820  12.911   8.726   5.188  0.0413  0.1016 -0.0763
13690W        W28821  15.874   8.907  12.404  0.0970  0.0908  0.3148
13691W        W28822  10.023   3.948  11.299 -0.2065  0.2811 -0.0995
13692W        W28823   3.013  13.781   0.061  0.0266  0.0986 -0.0492
13693W        W28824  17.062   4.196   3.273  0.0174 -0.3312 -0.0987
13694W        W28825   0.565  14.022  16.138  0.4895 -0.0913 -0.0842
13695W        W28826   5.645   0.171   3.713 -0.0540 -0.0304 -0.0434
13696W        W28827  13.187  16.227   4.205 -0.2310 -0.1077 -0.0020
13697W        W28828   0.568   8.395   2.692 -0.4090  0.1752 -0.2969
13698W        W28829  15.693   3.990  16.184 -0.0749 -0.3037  0.1987
13699W        W28830  13.138   9.751  12.372 -0.2514 -0.1580  0.2226
13700W        W28831   6.083   9.788  12.746  0.0075 -0.2434  0.0508
13701W        W28832  11.466  17.497   5.529 -0.3621 -0.0314 -0.2622
13702W        W28833   4.014   4.252   3.407  0.1376  0.0172  0.1796
13703W        W28834   9.589  10.276  13.050  0.0065  0.0029  0.1095
13704W        W28835   8.765   9.124  10.525 -0.0782  0.0098 -0.1791
13705W        W28836  10.060   4.669  15.039 -0.0214 -0.0065  0.0214
13706W        W28837  11.368   3.275   4.047  0.0235 -0.0811  0.0037
13707W        W28838   6.347  11.640  12.366 -0.0950  0.1844 -0.1390
13708W        W28839   4.189   2.630  15.824 -0.0140 -0.1655  0.2373
13709W        W28840   3.767  15.932  13.272  0.2494  0.1100  0.1304
13710W        W28841   4.523   1.335  10.966  0.1074  0.1095 -0.1922
13711W        W28842   2.685  15.070   0.593  0.2518 -0.0428  0.1567
13712W        W28843  15.287  11.767   0.756  0.0216 -0.2878  0.1771
13713W        W28844   5.860   1.493   1.051 -0.3220  0.0466  0.0099
13714W        W28845   9.956   0.243   0.587  0.0557  0.0485 -0.0729
13715W        W28846   8.024  18.160  16.043 -0.1284 -0.0248  0.4021
13716W        W28847  11.790   1.637  13.943  0.3931  0.4031 -0.1836
13717W        W28848   3.868  16.114   3.752  0.1316 -0.0619 -0.1278
13718W        W28849  15.049  16.190   0.331  0.0889  0.1713  0.4640
13719W        W28850  15.901  12.754  13.199 -0.0402  0.0040 -0.0021
13720W        W28851   9.850   6.529  12.634 -0.0621 -0.0311  0.2550
13721W        W28852  15.251  13.632  10.873 -0.0782  0.2597  0.2110
13722W        W28853   5.596   8.564   2.898  0.0052 -0.1369  0.2390
13723W        W28854   8.292   9.036  11.887 -0.1867  0.1209  0.0700
13724W        W28855  16.299  11.038   6.224 -0.0809 -0.2560 -0.2206
13725W        W28856   5.000  10.781   1.303 -0.1915  0.1598 -0.0588
13726W        W28857  13.800  12.166  12.435  0.1843 -0.0526  0.0184
13727W        W28858   4.966   6.084   1.031 -0.1925  0.4611  0.0795
13728W        W28859   2.503   4.399  14.022 -0.1700  0.1092  0.1214
13729W        W28860   2.893   4.136   0.468 -0.2430 -0.1626  0.1431
13730W        W28861   4.660   0.770   2.685  0.0661 -0.2317 -0.1303
13731W        W28862  17.173   3.553  11.851 -0.1420 -0.0056  0.2202
13732W        W28863   1.955   3.107  10.608  0.0922 -0.2857 -0.1010
13733W        W28864  12.462   6.360   4.401 -0.4625 -0.0362 -0.0450
13734W        W28865   2.249   7.038  16.047 -0.0542  0.3025  0.2352
13735W        W28866   4.453   0.039  15.930  0.1910  0.3842  0.0257
13736W        W28867   9.996  10.174  13.834 -0.2276 -0.1835 -0.0696
13737W        W28868   8.093   6.951  12.510  0.0658 -0.1741 -0.1567
13738W        W28869  17.787   7.142   3.273  0.2137  0.2542  0.2308
13739W        W28870   3.769   2.726  12.538  0.0538 -0.1939 -0.2560
13740W        W28871  12.232   6.827  12.377  0.0892 -0.1837  0.4020
13741W        W28872  12.361  15.990   0.070 -0.1795 -0.1420  0.2236
13742W        W28873   1.712   1.547  11.989  0.0085  0.0355 -0.1085
13743W        W28874   4.714   6.380  14.322 -0.1912  0.1425 -0.2670
13744W        W28875   3.635   4.434  10.182  0.1817 -0.0790  0.2838
13745W        W28876  15.192   5.267   3.539 -0.0812  0.0539 -0.1332
13746W        W28877   2.990  16.775  13.022  0.1095 -0.0662 -0.1050
13747W        W28878   2.265  16.424  13.916  0.1920 -0.1242 -0.1074
13748W        W28879   7.895   7.414   4.268  0.2888  0.1215 -0.2512
13749W        W28880  14.988   9.820  16.203  0.0353 -0.1442  0.0722
13750W        W28881  10.018   3.036  15.890 -0.0628 -0.0178  0.1235
13751W        W28882   4.392   7.787  14.041 -0.1219 -0.2409  0.1407
13752W        W28883   4.854  13.870   2.841  0.3140 -0.0793 -0.0731
13753W        W28884   9.202  16.520  15.078  0.0566 -0.1146 -0.0062
13754W        W28885   0.658   2.476  13.630 -0.0447 -0.0210  0.2474
13755W        W28886  14.423   7.305   0.676  0.1400  0.1708 -0.3068
13756W        W28887   2.532  11.747   3.031  0.1360 -0.0834 -0.1358
13757W        W28888   8.852   7.241   2.292 -0.1680 -0.0656 -0.2324
13758W        W28889   4.692   7.356   1.367 -0.2778 -0.0459  0.3149
13759W        W28890   6.772  13.908   1.593 -0.1966  0.0746  0.2687
13760W        W28891   8.442   7.652  11.753 -0.2361  0.0332 -0.0633
13761W        W28892   3.376   1.978   5.167 -0.0431  0.0311 -0.0100
13762W        W28893   9.263   7.236  16.165 -0.0169  0.4129 -0.1081
13763W        W28894   2.725  16.464   5.567 -0.0219 -0.1240 -0.0028
13764W        W28895   2.018  16.916  10.434  0.0897 -0.0056  0.2940
13765W        W28896   2.279   8.319  12.325  0.1311 -0.1648  0.2141
13766W        W28897   0.681   9.935  12.457 -0.1127 -0.2465 -0.2290
13767W        W28898   6.001   1.191  12.555 -0.1648  0.1585 -0.0066
13768W        W28899  10.665  13.784  11.766  0.0069 -0.4108 -0.2182
13769W        W28900   6.339   9.602  11.988  0.0798  0.1623  0.0949
13770W        W28901  17.619   1.766  10.897 -0.1220 -0.0251 -0.1994
13771W        W28902  14.094   7.496  15.523 -0.3306  0.0030 -0.1999
13772W        W28903   1.242  16.731   2.463 -0.2130 -0.0460  0.0297
13773W        W28904  10.832   9.471   5.036  0.2544 -0.1209 -0.1624
13774W        W28905  13.191   2.253   3.868  0.0771 -0.0709 -0.1119
13775W        W28906  12.850   3.269  14.460  0.0891  0.1880 -0.2597
13776W        W28907   1.686   9.747   2.873  0.2478 -0.0583  0.1950
13777W        W28908  14.706   1.040  14.110  0.1100  0.2237 -0.3028
13778W        W28909   5.073   9.108   4.402 -0.0173  0.0383  0.2041
13779W        W28910  14.046   6.132  15.563  0.0210  0.0861  0.2129
13780W        W28911  11.461   1.122   4.211  0.0589 -0.1314  0.0288
13781W        W28912   9.805   0.390  15.755 -0.0994  0.0359  0.0193
13782W        W28913   9.171  14.872  12.678  0.3505  0.2174 -0.0760
13783W        W28914   3.744  13.221  11.433 -0.1593 -0.1310  0.0566
13784W        W28915   5.734   4.155   1.236 -0.0493  0.0408 -0.3133
13785W        W28916   1.195  16.294   0.425 -0.0438 -0.0084 -0.1657
13786W        W28917  11.262  17.098   5.334 -0.0672  0.2662 -0.0071
13787W        W28918   7.326  12.208   3.311 -0.1250  0.0929 -0.2326
13788W        W28919   1.726  10.650   3.093  0.1156 -0.1081  0.2791
13789W        W28920  17.037   2.723   4.650 -0.1096 -0.0839 -0.0639
13790W        W28921  13.049  10.642  10.114  0.0197 -0.1270  0.1645
13791W        W28922   2.004  11.046  14.474 -0.3249 -0.3617  0.0992
13792W        W28923   5.820  11.220   4.644  0.0757  0.2133 -0.0340
13793W        W28924  16.284  17.936   2.586 -0.2155  0.1146  0.0821
13794W        W28925   2.774   5.313  15.135 -0.0786 -0.0849 -0.1667
13795W        W28926  17.277   2.496   2.657  0.0363 -0.1823  0.0931
13796W        W28927  16.995  16.427   1.665 -0.0603  0.0224 -0.0913
13797W        W28928  14.901  13.931   2.245 -0.4293 -0.1779  0.0889
13798W        W28929   2.689   0.514  15.587 -0.0329 -0.5789  0.1123
13799W        W28930   9.467   2.840   0.302 -0.2443  0.2624 -0.1507
13800W        W28931  15.798  11.623   2.279  0.2427  0.2294  0.2641
13801W        W28932   2.351   9.135   4.717  0.0943  0.0123  0.2217
13802W        W28933  14.417  10.120  11.925  0.1226  0.0718  0.1205
13803W        W28934  17.297   0.355  13.073  0.0682 -0.2812  0.2317
13804W        W28935  13.195   1.336   3.773 -0.0833 -0.3970  0.0397
13805W        W28936   5.974  16.232  15.410  0.1545  0.1789 -0.0035
13806W        W28937   0.462   6.597  12.190  0.0474 -0.5189  0.0643
13807W        W28938   9.606  16.626  16.047 -0.1267 -0.0209  0.2637
13808W        W28939   7.355  12.787   4.206 -0.0525 -0.0727 -0.3692
13809W        W28940  17.153   3.814  11.344  0.2284 -0.0214 -0.0847
13810W        W28941   4.990  17.416  11.779 -0.0422 -0.0640 -0.2086
13811W        W28942  16.634   0.073   2.340  0.0202 -0.4112 -0.4021
13812W        W28943   7.695  13.002   1.270  0.1055  0.0830 -0.2510
13813W        W28944  13.722   0.875   4.953  0.0950 -0.2275 -0.0754
13814W        W28945   3.612  11.434  14.651  0.0625  0.3581  0.0428
13815W        W28946  15.691   9.175   5.074 -0.0312 -0.0581 -0.4060
13816W        W28947  16.774   6.552  11.871 -0.0396  0.0243 -0.1323
13817W        W28948   1.366  17.691  12.368  0.1507  0.0628  0.2963
13818W        W28949  13.554  14.299   3.700 -0.0972  0.0049 -0.1433
13819W        W28950   2.527   3.478   0.750  0.1555 -0.1136  0.1657
13820W        W28951   0.108  13.799  11.640  0.1822 -0.0969  0.0759
13821W        W28952  16.125  16.521   3.658  0.0520 -0.0047  0.0317
13822W        W28953   9.798  13.090  11.595 -0.1544  0.1097  0.1935
13823W        W28954   2.618  12.036  16.126  0.0555 -0.0207  0.0324
13824W        W28955  11.290  17.586   1.458  0.0595 -0.2592  0.2949
13825W        W28956   0.444   5.330   1.966  0.0904  0.0639  0.2393
13826W        W28957   8.028   4.512   2.384  0.0360  0.0127 -0.1354
13827W        W28958   4.792   1.974  11.549  0.2163  0.1449  0.0263
13828W        W28959  14.951   1.585  11.994 -0.0690  0.2008 -0.0008
13829W        W28960  16.980   8.165  12.907 -0.3725 -0.0923 -0.1788
13830W        W28961   9.640   5.675   2.366  0.0462 -0.1597  0.1346
13831W        W28962  12.104   6.465   6.196 -0.0292  0.0740  0.0348
13832W        W28963  17.018   0.497   2.990 -0.1306 -0.3260 -0.2341
13833W        W28964  16.191  16.859  12.614 -0.1299  0.1653  0.1889
13834W        W28965   7.707   3.668  15.233  0.1674  0.0718  0.1316
13835W        W28966  14.748   0.137  15.750 -0.0372 -0.0167  0.0935
13836W        W28967   7.065  12.201  14.143 -0.2899 -0.0384  0.0487
13837W        W28968  11.302  18.090   2.230 -0.0725 -0.0237 -0.0457
13838W        W28969   5.366   5.689  11.156  0.1520  0.2423 -0.2178
13839W        W28970   7.393   6.878   3.504 -0.1885 -0.3807  0.0014
13840W        W28971  17.679   9.692   4.350  0.0203 -0.1304  0.1000
13841W        W28972  16.955   2.150   4.707  0.2128 -0.1574  0.1573
13842W        W28973   7.736   0.483  13.644  0.0100  0.2307 -0.0205
13843W        W28974   1.418  11.232  12.596  0.0217  0.2085 -0.2461
13844W        W28975  13.208  11.690  15.828  0.0214 -0.0839 -0.1290
13845W        W28976  15.303   4.981  14.727 -0.1457 -0.2733  0.2478
13846W        W28977   6.540   1.994  11.470  0.4976 -0.2286 -0.3424
13847W        W28978   3.414  12.235  12.037  0.0797 -0.1780  0.0658
13848W        W28979  14.605   2.988   3.602  0.0129  0.3014  0.1024
13849W        W28980  15.944  13.343   4.619 -0.2596 -0.0067 -0.1425
13850W        W28981  14.530   6.016  15.421  0.0214  0.3275  0.0453
13851W        W28982  10.597  15.280  11.304 -0.2296 -0.2598  0.1856
13852W        W28983   0.894  13.000  15.913 -0.0784  0.1579  0.0344
13853W        W28984   3.447  13.728  13.150 -0.0663  0.2991 -0.0425
13854W        W28985  10.168   6.225  15.257 -0.0526 -0.0026  0.0472
13855W        W28986   7.488   9.192  15.774 -0.1925  0.1343  0.1752
13856W        W28987  12.325  15.763  12.720 -0.0856 -0.0384  0.1705
13857W        W28988   0.204  12.563  11.444 -0.2724 -0.1102 -0.0435
13858W        W28989   2.666   3.678   5.340  0.1297  0.2168 -0.0736
13859W        W28990   2.226   6.507   5.301 -0.2527 -0.1384 -0.1445
13860W        W28991   1.238  16.685   0.773 -0.1430 -0.2163  0.2407
13861W        W28992  10.505  16.448   3.556  0.3065  0.0741 -0.0514
13862W        W28993   2.056   3.104  13.710 -0.0835  0.2565 -0.0915
13863W        W28994   4.354   0.279   4.800  0.0830  0.1493  0.2947
13864W        W28995  16.229  14.696   3.975  0.2085  0.0118  0.3047
13865W        W28996   1.462   2.596   2.997  0.0737 -0.0390  0.0543
13866W        W28997   9.915  15.564   4.732  0.1179  0.3283  0.3013
13867W        W28998   5.304  12.989   2.676  0.1736 -0.0842 -0.1759
13868W        W28999   2.733   8.584  14.580 -0.2746 -0.0664 -0.0686
13869W        W29000  17.469  11.387   6.292  0.1576  0.0345  0.0316
13870W        W29001   0.991  10.067  12.024 -0.2082  0.0911 -0.1610
13871W        W29002  12.790   8.715   3.299 -0.0765 -0.1253  0.1912
13872W        W29003  12.350  10.606   5.489 -0.0567 -0.1929 -0.0598
13873W        W29004   4.069   7.154  10.825  0.0829 -0.3282 -0.1403
13874W        W29005  11.919  12.084  13.180 -0.3564 -0.1246 -0.3279
13875W        W29006  12.231  13.431  14.941  0.0057  0.3021  0.0290
13876W        W29007   0.285  17.564  14.935 -0.1030  0.2594 -0.0101
13877W        W29008  11.073  14.319   0.488 -0.1559  0.1131 -0.0521
13878W        W29009   7.555   9.388   4.194 -0.3149  0.1116 -0.0596
13879W        W29010   0.326   2.889   5.437 -0.0302  0.1423  0.1425
13880W        W29011  13.227  10.602   1.144 -0.0040 -0.1846  0.4207
13881W        W29012  14.244  17.624   4.199  0.1335 -0.0173  0.1759
13882W        W29013  15.029   6.085   0.620 -0.1055 -0.0973  0.0328
13883W        W29014   2.395  17.038   0.986  0.1500  0.0504 -0.0403
13884W        W29015  17.618   1.585   1.619  0.0259 -0.0071  0.0359
13885W        W29016   9.382   4.511  11.946  0.1217  0.0150  0.1234
13886W        W29017  11.849   1.646  12.155 -0.1325 -0.3145 -0.3062
13887W        W29018   8.221   9.794  15.458  0.2053  0.0132 -0.0753
13888W        W29019   3.954   0.414  15.056 -0.1257 -0.0845 -0.0004
13889W        W29020   1.715   3.197  13.386 -0.2346  0.0187 -0.0123
13890W        W29021   9.836   8.634   5.551  0.0210  0.0123 -0.0664
13891W        W29022   6.539  11.100  10.016  0.1700 -0.1056  0.1041
13892W        W29023   2.786   0.635   1.627 -0.2282 -0.1137  0.1730
13893W        W29024  11.966   9.277  16.143  0.2148  0.1818  0.1212
13894W        W29025  11.513   5.135  12.767 -0.0743  0.0643 -0.1798
13895W        W29026  16.371   4.703   2.603  0.0136  0.2275  0.0491
13896W        W29027  11.811   9.740  12.615  0.0744 -0.1733  0.2100
13897W        W29028   8.835   9.978  13.708  0.0438  0.0083  0.3210
13898W        W29029  17.266  11.664  13.941  0.0791  0.1045 -0.1473
13899W        W29030   6.853   0.964  11.351 -0.0347 -0.0477 -0.3588
13900W        W29031   8.338   3.968  15.824 -0.2643  0.1081  0.0573
13901W        W29032  16.684  10.621   1.617 -0.0007 -0.1830  0.0333
13902W        W29033   1.286   3.911  12.313 -0.1728 -0.3182 -0.1891
13903W        W29034  10.944   3.018  11.922 -0.2411 -0.2293  0.2360
13904W        W29035   6.325   4.407   4.068  0.0036 -0.1716  0.0958
13905W        W29036   0.727  10.148   2.774  0.0858 -0.2565 -0.2242
13906W        W29037   4.706   5.454   4.910  0.0211  0.0553 -0.1076
13907W        W29038   3.742   1.632   5.074 -0.0876  0.0461  0.3264
13908W        W29039   3.561  13.832   2.664  0.0729 -0.5289  0.2010
13909W        W29040  11.315  12.170   3.882  0.0598 -0.0526 -0.1241
13910W        W29041  17.364   7.482   0.616  0.2293 -0.0083 -0.0397
13911W        W29042  12.783  14.653  14.278  0.1804 -0.2945  0.0137
13912W        W29043  11.476  12.660   2.679  0.0231 -0.0582  0.0488
13913W        W29044   2.021  16.908   1.884 -0.0645 -0.1110 -0.2249
13914W        W29045  14.999  16.682   0.217 -0.0800  0.1381 -0.1736
13915W        W29046   1.526  13.815  11.648  0.2160 -0.0650  0.1773
13916W        W29047  17.925  11.357   3.658  0.3038  0.2098 -0.0187
13917W        W29048  14.438  12.229  12.347  0.0429 -0.2947 -0.0294
13918W        W29049  18.100   5.920  12.464 -0.0507 -0.1468  0.0076
13919W        W29050  14.225   2.600   5.603 -0.1758  0.0349  0.2214
13920W        W29051   8.186   1.162  15.953  0.0027 -0.3017  0.1830
13921W        W29052  14.130   3.539  13.867 -0.0255 -0.0036  0.0743
13922W        W29053  17.352  13.868   0.967 -0.0522 -0.2211 -0.1843
13923W        W29054  13.792   7.353   1.975 -0.0180 -0.3265  0.0275
13924W        W29055   2.455   8.592   5.225  0.1215 -0.0629  0.1019
13925W        W29056  11.572   7.231  12.831  0.0720  0.0945  0.0591
13926W        W29057  13.300   0.959  14.688  0.3144 -0.0659 -0.0387
13927W        W29058  14.072   2.466   2.819  0.1993  0.1951 -0.0313
13928W        W29059  12.486   2.214  12.511  0.0525  0.3182  0.0668
13929W        W29060  14.463  16.784  15.446 -0.1067 -0.0266 -0.0099
13930W        W29061   8.135   2.530  13.463 -0.1078 -0.0061  0.0985
13931W        W29062  17.255  13.009   1.133 -0.2325  0.0244 -0.0314
13932W        W29063   8.807   4.123   3.626 -0.1577  0.0686 -0.0127
13933W        W29064  13.201   1.842  11.567 -0.0090 -0.2714  0.1086
13934W        W29065   4.304  15.123   4.594  0.2972  0.1594  0.1876
13935W        W29066   3.573   1.641   3.218  0.0293  0.1540 -0.0629
13936W        W29067  14.967  14.737  14.436  0.1290  0.2060 -0.0337
13937W        W29068  10.783   9.840  13.239  0.2782  0.4784  0.0437
13938W        W29069   1.891  12.998   1.766 -0.1312  0.4125 -0.0650
13939W        W29070   2.711   6.505  12.343  0.1501 -0.1971  0.1499
13940W        W29071  13.402  17.281   2.901  0.0325  0.1202 -0.1010
13941W        W29072   0.545  10.270   0.810 -0.1574 -0.3237 -0.0936
13942W        W29073   5.243  15.334   3.240 -0.1706  0.3177  0.0425
13943W        W29074   9.426   0.435   1.354 -0.1373 -0.1971 -0.2131
13944W        W29075   7.630   8.715  14.501 -0.0041 -0.1573 -0.1083
13945W        W29076   1.740   3.242   3.169 -0.1673  0.1743 -0.0360
13946W        W29077  14.831  10.310  13.295 -0.2866 -0.4919  0.0244
13947W        W29078   3.053   6.575   1.464 -0.1621 -0.0709 -0.4002
13948W        W29079   1.129  17.065   3.736 -0.0744  0.0529  0.0303
13949W        W29080   5.435  13.005  11.759  0.1622  0.0820 -0.1565
13950W        W29081  12.677   8.656   2.778  0.2078 -0.1152  0.2778
13951W        W29082   0.403   0.500   2.062 -0.0985  0.0020 -0.4472
13952W        W29083   6.335   2.199   5.410  0.2153  0.1576 -0.0065
13953W        W29084  16.317  16.133  13.037 -0.0591  0.0512  0.0266
13954W        W29085   4.542   3.104   3.412  0.0776  0.1263  0.2192
13955W        W29086   9.260  12.970   9.815 -0.1084 -0.1733 -0.0277
13956W        W29087  11.259  16.053  15.843  0.1644  0.0346  0.0418
13957W        W29088  11.525   2.820  13.342 -0.2679 -0.1131  0.2127
13958W        W29089   9.073  17.701  14.629 -0.2038 -0.2992 -0.0014
13959W        W29090   9.381   7.167  14.342 -0.1118 -0.3743 -0.0836
13960W        W29091   5.646   0.016   1.768 -0.0042 -0.3265 -0.0771
13961W        W29092  10.469  12.271   2.645 -0.0663 -0.3239  0.0950
13962W        W29093   2.899   3.822   0.900  0.2139 -0.0706  0.0065
13963W        W29094   8.342   4.315   5.740 -0.1552 -0.1929  0.2710
13964W        W29095   3.628  13.952   0.934  0.1499  0.2546  0.0896
13965W        W29096   6.216   2.783   5.114  0.1885 -0.0903 -0.3555
13966W        W29097   3.186   6.537   2.005 -0.0565 -0.2747 -0.1548
13967W        W29098  15.557   2.260   3.015 -0.0935  0.2505 -0.1455
13968W        W29099   2.642   9.715  12.274 -0.0647 -0.0589 -0.1479
13969W        W29100   2.545  11.382   9.707 -0.2156  0.0178 -0.1043
13970W        W29101   6.551   7.294   2.001  0.1646 -0.0401 -0.5586
13971W        W29102   6.824   1.026   5.736  0.0789  0.0569  0.1629
13972W        W29103   8.512   2.469   4.581 -0.0617  0.0604  0.0032
13973W        W29104  15.364  10.669  15.182 -0.2345  0.0938 -0.2191
13974W        W29105  13.220  16.116  15.922  0.4511  0.1033 -0.0905
13975W        W29106  13.619  17.818   0.497 -0.0037  0.0764  0.0214
13976W        W29107  13.633   2.081  11.518  0.1755  0.0757  0.1349
13977W        W29108  13.971   6.629   1.141  0.2410 -0.3280  0.1883
13978W        W29109  12.208  10.244   5.164  0.0624 -0.1162  0.0328
13979W        W29110   7.585   8.156   1.933 -0.3650  0.3262 -0.3915
13980W        W29111   8.715   0.391   4.340  0.1827 -0.3632  0.0583
13981W        W29112   5.033   2.015   5.451  0.2894 -0.0536 -0.1630
13982W        W29113  17.048  13.160  12.667 -0.0288 -0.1962  0.0238
13983W        W29114  15.703   8.984   3.800  0.0429  0.3262 -0.1892
13984W        W29115  14.880   1.522  14.347 -0.4784  0.1244 -0.1379
13985W        W29116  12.892   4.682  14.635  0.0488  0.0146 -0.0182
13986W        W29117  15.336  16.093  13.173  0.0936  0.4440 -0.1462
13987W        W29118   5.133   5.967  12.514  0.1066  0.2747  0.2056
13988W        W29119  16.100  11.717  11.170  0.1226 -0.2224 -0.1516
13989W        W29120   3.339  14.814   2.857 -0.0287 -0.0633 -0.2711
13990W        W29121   5.003  17.103  10.728  0.0726 -0.0110  0.1151
13991W        W29122  13.718   7.041   3.467  0.2270 -0.0378 -0.0563
13992W        W29123   0.273  13.605   5.121 -0.1978  0.1459  0.2618
13993W        W29124   1.846   2.862   0.785 -0.0456  0.1023  0.1949
13994W        W29125   5.873  12.293  14.172  0.1200 -0.3045 -0.0221
13995W        W29126  11.990   1.142  13.259 -0.1233  0.2494 -0.1353
13996W        W29127  15.007   8.528  13.194 -0.3296  0.0595 -0.0349
13997W        W29128   9.114   7.056   5.456 -0.0329  0.0906  0.0393
13998W        W29129   4.099   9.811  13.684 -0.1415  0.1668 -0.0049
13999W        W29130   2.418   3.485  12.301  0.1232  0.1289  0.0956
14000W        W29131  11.806   5.289   3.148  0.1434  0.0630  0.1188
14001W        W29132  15.260  17.081   0.463 -0.1348  0.3420  0.4419
14002W        W29133  14.382  14.776   0.728  0.3246  0.0729  0.2436
14003W        W29134  12.169  15.160  13.759 -0.1412 -0.0255  0.1006
14004W        W29135   8.953   9.542   5.410 -0.0486  0.1815 -0.2124
14005W        W29136  16.970   8.588   1.462  0.2606  0.1488 -0.0302
14006W        W29137  14.366  12.170   3.263 -0.0515  0.2824 -0.0834
14007W        W29138  12.145   8.857  15.121 -0.1087  0.1280 -0.1040
14008W        W29139   1.138   1.346   1.264 -0.0252  0.0972 -0.2553
14009W        W29140  14.651  10.181   1.063 -0.1876 -0.5047  0.1466
14010W        W29141   4.112  18.062  12.812 -0.0322 -0.0271  0.0426
14011W        W29142  10.785   6.064  14.715 -0.1522  0.0357  0.1110
14012W        W29143   0.966  13.035   1.882  0.0197  0.1374  0.0852
14013W        W29144   8.109  16.759   4.003 -0.2799  0.3607  0.3154
14014W        W29145   0.122   4.553   3.556 -0.0336  0.0872 -0.0149
14015W        W29146  14.346   5.755  11.006  0.4459 -0.0770 -0.0931
14016W        W29147   5.677  10.297  15.409  0.1531 -0.2160  0.1115
14017W        W29148   4.129  16.169  14.887  0.3622  0.0964  0.1138
14018W        W29149   4.260   7.838   4.151 -0.1073  0.0394  0.0372
14019W        W29150   1.633  13.729   0.966  0.1464 -0.1651  0.3068
14020W        W29151  14.305   0.899   0.198  0.4195 -0.1182 -0.1979
14021W        W29152   4.280   8.325  10.351  0.1558 -0.0488 -0.2302
14022W        W29153  16.899   9.930  13.850  0.1177 -0.2708  0.0582
14023W        W29154  16.808  12.072  14.720  0.1702 -0.2133  0.2251
14024W        W29155  15.424   6.788  12.708  0.0956  0.1637  0.0670
14025W        W29156   0.014  17.646   4.899 -0.0311  0.2600  0.1736
14026W        W29157  14.400   7.803  14.295  0.0263  0.1024 -0.0892
14027W        W29158  12.569   0.187   5.695  0.1850 -0.0818  0.0169
14028W        W29159   5.027  15.753   2.475  0.0889  0.1395  0.3068
14029W        W29160  13.464   7.812   2.761  0.0663  0.4148  0.1001
14030W        W29161   0.829   8.334   3.611 -0.1433 -0.2351 -0.0311
14031W        W29162  15.126  12.064   4.341 -0.0043 -0.3567 -0.2443
14032W        W29163   7.892   7.600   3.756 -0.1138  0.0756  0.1928
14033W        W29164  15.922   3.814   5.361 -0.5046 -0.0609 -0.1255
14034W        W29165  15.316   2.535  15.376 -0.1926 -0.0587 -0.0761
14035W        W29166  10.341   2.149   3.882 -0.1416  0.0906 -0.0148
14036W        W29167   6.135  11.895   1.765 -0.1416 -0.2292 -0.1983
14037W        W29168  16.298  10.632   1.257  0.3451 -0.0016 -0.0244
14038W        W29169  14.286  13.784   5.037 -0.2261  0.0494 -0.0774
14039W        W29170  12.764   7.829  13.952 -0.0045 -0.2114 -0.2433
14040W        W29171   4.053   7.437   9.868  0.1723 -0.0879 -0.3471
14041W        W29172   3.237  15.810   1.202 -0.1023 -0.4829  0.0396
14042W        W29173  12.865  11.512  15.487  0.1149 -0.0684  0.2185
14043W        W29174  11.052  11.602  11.668 -0.2654  0.3767 -0.1314
14044W        W29175  10.122  16.240  11.027  0.1581 -0.1716 -0.0709
14045W        W29176  10.052   2.666  14.545 -0.1089 -0.2122  0.0474
14046W        W29177  11.036  10.178   3.356 -0.2262  0.3796  0.2316
14047W        W29178   0.487   6.644   0.174  0.0895  0.1870  0.0385
14048W        W29179   8.357   9.094   2.783 -0.2421 -0.1188  0.0098
14049W        W29180   7.696   4.689   2.056 -0.2079  0.1208  0.0183
14050W        W29181  15.443  17.952   3.754  0.3462  0.5326  0.2446
14051W        W29182  16.276   9.760   3.331 -0.1352  0.0634  0.0026
14052W        W29183   9.606   7.559   0.149 -0.0827 -0.5550 -0.1382
14053W        W29184   7.205  14.494  11.401 -0.0800  0.1828 -0.0716
14054W        W29185  15.148  11.877  10.717 -0.0589  0.1638  0.0554
14055W        W29186  16.220   2.523   5.266  0.2198 -0.0059 -0.0164
14056W        W29187  11.960   4.423  12.468  0.2698 -0.0399  0.0749
14057W        W29188  17.070  15.727  12.445 -0.1205 -0.4218 -0.2220
14058W        W29189   2.274  14.377  14.318  0.0925 -0.0630  0.2066
14059W        W29190   4.741   9.880   4.939 -0.0301 -0.1667 -0.0635
14060W        W29191  13.781   6.815  15.109  0.0462  0.1373 -0.0809
14061W        W29192  12.715   1.755   2.989 -0.2002 -0.1082 -0.0119
14062W        W29193   1.778   1.137  15.638  0.2087  0.0801  0.0616
14063W        W29194   3.761   9.902   3.133 -0.1024 -0.0637 -0.1300
14064W        W29195   1.449   9.779  14.330 -0.2015 -0.0643 -0.2762
14065W        W29196   3.681  16.578  13.590  0.1722  0.0383  0.0483
14066W        W29197  11.762  16.056   1.469 -0.1214 -0.0711  0.1991
14067W        W29198   2.130  10.094  13.080 -0.1327  0.1929  0.0186
14068W        W29199  13.645  12.543  12.733 -0.2358  0.3100 -0.1346
14069W        W29200   5.820  13.926  11.107  0.1367 -0.1341  0.0017
14070W        W29201  11.521  10.506  12.259 -0.0531  0.0211 -0.1695
14071W        W29202  14.315   2.507  15.538 -0.0633  0.2113 -0.0600
14072W        W29203   7.546   0.969   5.044 -0.0851 -0.1347  0.5285
14073W        W29204  11.568   3.184  13.698  0.2561 -0.1855 -0.3606
14074W        W29205   1.007  12.312  11.431  0.1457 -0.2340 -0.1156
14075W        W29206   4.764   5.336  14.258 -0.3037  0.0522  0.1050
14076W        W29207   4.153  13.313  13.418  0.0130  0.0845 -0.2785
14077W        W29208  17.627   9.681   2.137  0.1593 -0.1413 -0.1126
14078W        W29209   7.780   1.847  14.178 -0.0949 -0.4592  0.1226
14079W        W29210   7.526   5.723  10.624  0.0700  0.0303  0.4870
14080W        W29211   9.123   7.586   5.194  0.1890  0.1178 -0.0224
14081W        W29212  14.842   0.040  13.665  0.2985 -0.1594  0.0182
14082W        W29213  17.872   6.600   6.129  0.1321 -0.0136  0.2551
14083W        W29214   1.518   7.283  10.404 -0.1801  0.0487 -0.4340
14084W        W29215  13.021   4.995   5.083 -0.0379  0.2070 -0.0238
14085W        W29216  10.667   8.453  13.171 -0.0667 -0.1560 -0.1722
14086W        W29217  14.754   8.890  15.620 -0.0911  0.0842 -0.2728
14087W        W29218  12.728   7.297  13.823  0.1188 -0.2045 -0.0851
14088W        W29219   3.018  17.192  11.100 -0.2501 -0.2144 -0.1078
14089W        W29220  14.231   9.305  14.206 -0.0820 -0.0617 -0.1708
14090W        W29221  11.788  16.700   0.065 -0.0091  0.1841 -0.0525
14091W        W29222   9.259   3.659  14.571  0.0087 -0.3471 -0.0888
14092W        W29223  13.883  15.220   5.752 -0.0838  0.2852 -0.0816
14093W        W29224   1.436  11.293  15.187  0.0004 -0.0945  0.1945
14094W        W29225   8.628  14.533  15.497 -0.2733 -0.0733 -0.0758
14095W        W29226  10.977   4.665   0.587  0.0198  0.2823  0.0571
14096W        W29227  12.230   7.843   2.935 -0.1947  0.3284 -0.1357
14097W        W29228   8.467  10.356  15.939 -0.0362 -0.0055  0.0908
14098W        W29229   9.225   6.595   1.696 -0.0351 -0.0983  0.1472
14099W        W29230  14.533  14.330   0.556  0.0259  0.1045 -0.2127
14100W        W29231   3.727   6.009   3.312 -0.1068 -0.2850 -0.2245
14101W        W29232   7.914   4.015  12.286  0.1422  0.1253  0.2995
14102W        W29233   3.294  12.302   5.390  0.0129 -0.2525 -0.2773
14103W        W29234   8.980   5.915  14.776  0.1580 -0.1232 -0.1092
14104W        W29235  16.828  10.974  12.984  0.1861 -0.1684 -0.0976
14105W        W29236   1.074  14.960   1.443 -0.2137 -0.0380  0.0979
14106W        W29237   7.424  15.165   2.611  0.1483 -0.2718  0.0344
14107W        W29238   2.104   6.061  11.060 -0.3463 -0.1745 -0.0730
14108W        W29239  10.326   4.762   5.052  0.0254 -0.1064 -0.2262
14109W        W29240   8.944  10.179   9.944  0.0204 -0.2223  0.2210
14110W        W29241   5.275  12.268  13.585  0.0142 -0.0366 -0.2916
14111W        W29242  14.811  15.550  14.681 -0.1712 -0.3081  0.1015
14112W        W29243   4.038   1.190   1.276  0.0794  0.1206  0.0973
14113W        W29244   9.979  16.019  13.598  0.0236 -0.2509 -0.4713
14114W        W29245   1.065   2.705  10.996 -0.0629  0.0484  0.0645
14115W        W29246  14.928  11.592   3.534  0.0680 -0.0740 -0.0524
14116W        W29247   6.198   5.259  15.944 -0.3429  0.0782  0.1050
14117W        W29248  14.610   0.654  15.448  0.1638 -0.1915  0.1630
14118W        W29249   5.292   3.706  12.041  0.0592  0.0235 -0.4851
14119W        W29250   5.504  11.004  16.171 -0.0695  0.1284  0.2569
14120W        W29251  12.647   7.755   2.081  0.0268 -0.2248  0.1849
14121W        W29252  15.365   9.798  12.806  0.0284 -0.0439  0.3907
14122W        W29253   6.954   5.068  12.835 -0.0382 -0.0748  0.0912
14123W        W29254  14.714  10.230  15.862  0.0901  0.1587 -0.0310
14124W        W29255   7.538  10.613  11.836  0.0487  0.1270 -0.1769
14125W        W29256   7.974  17.795   0.114  0.1413  0.1902 -0.1177
14126W        W29257   8.465  15.142   4.714  0.2255  0.1433  0.1669
14127W        W29258  12.349  12.618  13.109  0.0151  0.1843  0.1087
14128W        W29259  16.131   7.797   3.028  0.1208  0.1156 -0.2322
14129W        W29260   9.289   5.501  13.425  0.1917 -0.0409  0.2689
14130W        W29261   9.528   1.660   5.354 -0.0789  0.2356  0.1657
14131W        W29262   0.075   8.987   2.088  0.0963 -0.1716  0.0735
14132W        W29263  15.885   6.399  14.343  0.0579 -0.2361  0.0585
14133W        W29264   2.526   4.307   3.653 -0.1554 -0.1031 -0.0778
14134W        W29265   8.710  14.007  15.520 -0.0118 -0.1319 -0.3123
14135W        W29266  13.676  14.685  11.681 -0.0678 -0.2141  0.2553
14136W        W29267  14.471  13.927  14.215 -0.3456 -0.1381  0.1322
14137W        W29268   9.391   2.846   0.782  0.1320  0.0744  0.1072
14138W        W29269  13.995   9.237   5.241 -0.1308  0.0619  0.3587
14139W        W29270   2.929   0.007   2.497 -0.2608  0.1262  0.0093
14140W        W29271   6.965   2.603   4.454  0.3962  0.1768 -0.0821
14141W        W29272  15.063  10.181  14.655  0.1390 -0.0287  0.0672
14142W        W29273   7.169  12.862  15.769  0.1009 -0.3412  0.0907
14143W        W29274   1.207   6.996  14.664 -0.1421  0.1230  0.0055
14144W        W29275   3.403   2.517   0.205  0.1278 -0.2113  0.0488
14145W        W29276   7.088  15.853   5.036  0.2456  0.1405 -0.2512
14146W        W29277   4.500   8.299  12.388  0.0229 -0.2094  0.1690
14147W        W29278  16.887   1.528   9.915  0.0786  0.1943  0.4381
14148W        W29279   9.774  15.786  15.124  0.2900 -0.2011  0.1511
14149W        W29280  17.495  14.730   4.231  0.0358  0.2624  0.0118
14150W        W29281  10.915  15.637  13.633 -0.0451 -0.0046 -0.0324
14151W        W29282   7.011  12.999   5.814 -0.2117 -0.1706  0.0929
14152W        W29283  16.780  12.574   5.523  0.1912 -0.0466  0.1112
14153W        W29284   9.282   4.004   1.999  0.1787 -0.2156 -0.0689
14154W        W29285  16.269   7.694  10.374 -0.0932  0.1540 -0.0346
14155W        W29286  17.327   3.745  12.341  0.1561  0.1677 -0.2251
14156W        W29287   2.798   1.342   0.986  0.1733 -0.0400  0.0133
14157W        W29288  11.115   1.464   4.409  0.1817 -0.3069  0.0808
14158W        W29289   0.435   0.011   3.823  0.1272 -0.0691 -0.2389
14159W        W29290  10.754  12.315  15.002 -0.1178 -0.1515 -0.0376
14160W        W29291  12.773  11.437   1.844 -0.1599  0.0162  0.0059
14161W        W29292  17.958   6.033  16.055 -0.3223  0.2130 -0.0980
14162W        W29293  16.768  16.753   2.017 -0.2381 -0.2833  0.0049
14163W        W29294   5.880   4.817  13.560 -0.0735 -0.0256  0.0035
14164W        W29295   0.366   1.867  15.715  0.0640  0.2509 -0.1614
14165W        W29296   2.861   2.626   4.745  0.3183 -0.0287  0.1111
14166W        W29297   4.567   8.903   1.062  0.2657 -0.1765 -0.0166
14167W        W29298  16.199   7.739  12.894 -0.0365 -0.0012 -0.0863
14168W        W29299  17.334   6.104   3.639  0.1316  0.1509 -0.2097
14169W        W29300  13.848  15.538  16.175 -0.0262 -0.1256  0.3320
14170W        W29301   5.133   5.482  11.760  0.0308  0.0229 -0.0156
14171W        W29302   4.672   1.859  15.839  0.2272 -0.0402  0.0031
14172W        W29303  15.917   6.754  13.900  0.1241 -0.1513  0.3693
14173W        W29304   7.728   2.931   1.461 -0.1716 -0.0237 -0.1505
14174W        W29305   0.544   0.305  14.122  0.2986 -0.2597 -0.1348
14175W        W29306  15.641   3.117  14.223 -0.1370 -0.3098 -0.0418
14176W        W29307  12.705  17.875   0.818 -0.2940  0.0548  0.1199
14177W        W29308   2.194  16.019   1.376  0.0784  0.3430  0.1144
14178W        W29309  17.881   9.183  13.075  0.1233 -0.2262  0.2612
14179W        W29310   4.000   1.421  11.118 -0.0356  0.2135 -0.0866
14180W        W29311   8.754  14.002  11.948 -0.1400  0.1288  0.1145
14181W        W29312  16.008   2.516  16.180  0.1342  0.0928 -0.0508
14182W        W29313  15.237   9.551   2.657 -0.0097  0.0693 -0.0150
14183W        W29314  10.228   5.344  13.665  0.0876 -0.4528 -0.1560
14184W        W29315  16.384  13.492  13.677  0.0751 -0.0089  0.1786
14185W        W29316  16.955  17.982   0.400  0.0997  0.0932  0.0223
14186W        W29317   7.807   5.516   1.410 -0.1669  0.2668 -0.1154
14187W        W29318  14.476  13.492  14.012  0.5422  0.1974  0.2345
14188W        W29319  13.751  13.805  15.740  0.2266 -0.2222 -0.1535
14189W        W29320  13.514  15.279   4.690  0.0195  0.0776  0.4512
14190W        W29321  10.538  13.181  10.739  0.2667 -0.0665 -0.0439
14191W        W29322   8.904   0.344   1.345  0.2446 -0.0908  0.1645
14192W        W29323  14.255  16.761  14.061 -0.2085 -0.2596 -0.1197
14193W        W29324  15.949   8.294  13.670 -0.0293  0.1149  0.1239
14194W        W29325   1.373  16.598  16.091 -0.1296 -0.1083 -0.1435
14195W        W29326   1.747  15.254   2.193  0.2198  0.1347 -0.2188
14196W        W29327  14.427   1.356   3.324 -0.2350  0.0798  0.1481
14197W        W29328   0.258   3.253   3.015 -0.0892 -0.1791 -0.0849
14198W        W29329   9.272  17.923  11.030 -0.0544  0.0261  0.0953
14199W        W29330   8.869   1.757   2.606  0.1547 -0.2140  0.0211
14200W        W29331   7.874  14.539   3.226  0.0828  0.0274 -0.0488
14201W        W29332  10.559   4.619  11.245 -0.2505 -0.1603 -0.0434
14202W        W29333  14.384  14.084   4.277  0.4054  0.2345 -0.1863
14203W        W29334  17.914  10.862  11.033 -0.0507  0.2624 -0.3229
14204W        W29335   9.360  15.406  13.830 -0.1986 -0.1283 -0.0663
14205W        W29336   9.407   2.952  11.224 -0.1996  0.1255  0.2522
14206W        W29337   8.072  10.826   1.906 -0.0330 -0.1075 -0.1749
14207W        W29338  15.554   1.863   4.833  0.0862 -0.4323  0.1027
14208W        W29339  11.434   8.122  13.604  0.0284 -0.1029 -0.0143
14209W        W29340  14.707   6.496   0.545  0.0371  0.0815 -0.2206
14210W        W29341   5.572   0.901  14.014 -0.2620 -0.1831 -0.3009
14211W        W29342   5.942   3.418   0.699  0.1196 -0.3278  0.0754
14212W        W29343   2.949   4.963  12.679 -0.2601  0.0422 -0.0958
14213W        W29344   0.754   9.038   0.498  0.1936  0.0372 -0.0500
14214W        W29345  16.306   6.927  15.237  0.0330  0.1220  0.0883
14215W        W29346  14.833   8.033  15.718 -0.0134  0.2577  0.5066
14216W        W29347   4.125   0.000  10.248 -0.0162 -0.5846  0.0868
14217W        W29348   5.741   9.877   3.084  0.0825  0.3894  0.0804
14218W        W29349   3.010  13.588   1.947 -0.0432  0.0354  0.0138
14219W        W29350  17.806   7.506  15.442  0.0912 -0.0116 -0.0449
14220W        W29351   7.515  10.336  15.011 -0.2913 -0.0794  0.2739
14221W        W29352  13.228   3.302  14.782  0.4748 -0.2582 -0.0176
14222W        W29353   0.288   6.970  15.011 -0.3132 -0.0264  0.0403
14223W        W29354   0.445   0.465   3.509 -0.0847  0.1045 -0.1580
14224W        W29355   9.745   7.034  12.319  0.1406  0.2517  0.0429
14225W        W29356   8.520   6.306   3.873  0.0304  0.0380  0.2133
14226W        W29357  14.977   1.696   0.147  0.0788  0.0096 -0.0088
14227W        W29358  12.023  15.828   1.828 -0.1906 -0.0724 -0.4517
14228W        W29359  11.506  14.361   3.990 -0.1930 -0.1257 -0.1844
14229W        W29360   3.051   5.193   5.158 -0.2483  0.2843 -0.0492
14230W        W29361  13.106   8.487   2.991  0.0860  0.0767  0.0790
14231W        W29362  13.822   0.061   2.922 -0.2908 -0.1599  0.1324
14232W        W29363  10.315   6.435  12.360 -0.0087  0.5196 -0.1139
14233W        W29364   9.144   5.660   2.257  0.2723  0.1858  0.0369
14234W        W29365  16.115   7.278   0.432 -0.1751  0.0671  0.1278
14235W        W29366  12.604  16.457  16.094  0.1747  0.0118 -0.1237
14236W        W29367  15.141  17.414   5.255 -0.0343  0.1730  0.0480
14237W        W29368  13.930  16.163   4.636  0.1197 -0.1586  0.1147
14238W        W29369   6.056  11.348  12.702 -0.2697  0.2000 -0.1632
14239W        W29370   8.930   4.220   3.045 -0.1442 -0.2572 -0.3595
14240W        W29371   5.887  14.243  13.886  0.2265  0.2306 -0.0937
14241W        W29372  12.817   4.665   5.600 -0.3717 -0.2076  0.3807
14242W        W29373  16.652   3.474   0.131  0.1008 -0.1501  0.1795
14243W        W29374   6.728   4.394   1.973 -0.1701 -0.1294  0.2616
14244W        W29375  13.983  17.774   1.693 -0.4159 -0.0065  0.0735
14245W        W29376  10.982   0.301  14.940  0.0536  0.1066 -0.1902
14246W        W29377   8.077   7.265  13.119 -0.3148 -0.2027  0.1963
14247W        W29378   4.804  17.618  10.293 -0.2861 -0.1150  0.1893
14248W        W29379   4.839  15.845  13.315  0.2240  0.1248  0.0146
14249W        W29380   4.627   4.827  10.729  0.0984  0.0046 -0.2916
14250W        W29381  16.953   2.613  12.517 -0.2484 -0.0599  0.1484
14251W        W29382   3.493   5.412   4.525 -0.0604  0.1792  0.1447
14252W        W29383   2.704   0.355  10.241 -0.0832  0.0044  0.1915
14253W        W29384  13.765   7.808  15.784  0.2589  0.0352 -0.1284
14254W        W29385   3.529   6.478   1.362  0.1556  0.0864  0.0343
14255W        W29386   3.305   9.652  15.217  0.0387 -0.1020  0.4302
14256W        W29387   9.763   5.626   3.389 -0.0051 -0.0204 -0.2997
14257W        W29388   9.258  14.202  12.733  0.0870  0.2411 -0.1318
14258W        W29389   2.165   2.038   0.070 -0.1782  0.1964 -0.2106
14259W        W29390   4.092   3.735   3.698  0.0768 -0.2908 -0.0098
14260W        W29391   8.148   0.867  14.996 -0.1642 -0.3355  0.0150
14261W        W29392   1.309   8.924   1.607  0.1303  0.1349  0.0979
14262W        W29393  13.831   0.362   3.314 -0.2739 -0.2575  0.4395
14263W        W29394   9.610  13.648   0.243  0.2678  0.1312 -0.2555
14264W        W29395   2.946  10.478   5.469  0.2816 -0.0151  0.3843
14265W        W29396  17.453  10.168  13.379  0.2735  0.1375 -0.0054
14266W        W29397  17.831  12.215  12.118 -0.1103  0.0438 -0.2843
14267W        W29398   2.299  11.206   3.428  0.1969  0.0430  0.1034
14268W        W29399  14.847   3.856  15.141 -0.2339  0.2517  0.3470
14269W        W29400   3.285  12.631  14.393  0.1894  0.0504 -0.1197
14270W        W29401  10.021   8.464   4.822 -0.0083 -0.1212  0.1352
14271W        W29402  14.974   2.951  14.023 -0.1112  0.2778 -0.0091
14272W        W29403   2.015  17.906  12.201  0.0175  0.0154  0.1796
14273W        W29404  11.030  15.641   4.252 -0.1016 -0.0144 -0.1607
14274W        W29405   7.383  17.977   2.454 -0.4119 -0.1858  0.0192
14275W        W29406   4.162   6.828   0.007  0.0879  0.2416  0.2003
14276W        W29407  15.678  15.663  13.471  0.2804  0.1926 -0.1236
14277W        W29408   0.417  12.726   2.711 -0.1761  0.0263  0.1092
14278W        W29409  10.364   2.727   2.291  0.0424  0.0164 -0.0030
14279W        W29410  10.012   6.265   1.719  0.0362 -0.0541 -0.1014
14280W        W29411   1.854  13.201  12.140  0.0092  0.0400 -0.0181
14281W        W29412  13.783  13.548   3.857  0.0280  0.1022  0.0024
14282W        W29413   7.171  14.807   3.647  0.0731  0.1619  0.1659
14283W        W29414   6.134  14.429   2.179 -0.1909  0.0732  0.1000
14284W        W29415   5.594  13.567  14.606  0.0194  0.1061  0.1208
14285W        W29416   0.525   7.228  15.440 -0.3134 -0.0847  0.1269
14286W        W29417   0.132   0.998   3.947  0.0370 -0.1204  0.1285
14287W        W29418   8.698  10.435   0.644 -0.0510 -0.2269  0.3719
14288W        W29419   6.156  11.694   0.549 -0.1119 -0.2302 -0.0062
14289W        W29420  11.620   2.095  15.443  0.1143  0.1080 -0.0406
14290W        W29421  10.002   1.376  14.739 -0.2064 -0.1069 -0.0605
14291W        W29422   0.842  12.446   1.846 -0.1380  0.1703 -0.0171
14292W        W29423  15.192   9.838   2.194  0.2867 -0.0257  0.0090
14293W        W29424   0.711   7.299   0.915 -0.0014  0.0475  0.0713
14294W        W29425   3.414  16.348   3.839  0.1869 -0.0849  0.0465
14295W        W29426  16.125   1.448   3.281  0.2716  0.0752  0.0486
14296W        W29427  13.266  11.891   0.668  0.1673  0.0038 -0.1300
14297W        W29428  11.697   5.475  11.329  0.2876 -0.2436  0.0846
14298W        W29429  17.576   7.873  15.214  0.0312 -0.0306 -0.2522
14299W        W29430  14.193   5.927  14.465 -0.0588  0.2179  0.3288
14300W        W29431  15.126  11.061  13.626  0.3362 -0.0060 -0.3133
14301W        W29432   3.035  13.813  12.488 -0.0805  0.2392  0.1405
14302W        W29433   0.675  10.198   1.745 -0.4953  0.1406  0.0203
14303W        W29434  12.014   3.189  15.965 -0.1115  0.0492 -0.0682
14304W        W29435   3.817   4.804   1.999  0.0395 -0.1924  0.0413
14305W        W29436  11.369   8.831   3.949 -0.0161  0.1779  0.0512
14306W        W29437  14.837   8.660   3.055 -0.0139  0.2081  0.1865
14307W        W29438  10.581  11.335   3.371 -0.0948  0.0830 -0.0786
14308W        W29439  16.155   8.069   5.160 -0.2462 -0.1625  0.2122
14309W        W29440   3.784  17.153   4.121  0.1782 -0.0642  0.1628
14310W        W29441   7.770   7.065   5.229 -0.0940 -0.0163 -0.1065
14311W        W29442   3.796  11.125  14.993  0.1287 -0.0446 -0.1028
14312W        W29443   4.631  12.478   0.217 -0.0746  0.3069  0.0547
14313W        W29444  12.313   4.286  10.687 -0.2393 -0.1228 -0.3207
14314W        W29445   2.064  17.136   0.569  0.3913  0.2105 -0.0044
14315W        W29446  11.751   3.814  12.846 -0.1748 -0.0388  0.0809
14316W        W29447  12.813  13.840   3.916  0.2267 -0.2807 -0.1236
14317W        W29448   0.884  10.060   5.901 -0.2578  0.0636 -0.2045
14318W        W29449   6.050  16.408   4.448 -0.3183  0.0906 -0.2310
14319W        W29450  16.661  11.727   0.611 -0.1726  0.0405  0.2871
14320W        W29451  13.093  18.072   0.377 -0.0575  0.3746  0.0711
14321W        W29452   6.137  14.770  12.010 -0.0038  0.1626 -0.2592
14322W        W29453   9.601  15.417  13.414 -0.0867  0.2942  0.1651
14323W        W29454   7.797  13.582  14.114  0.0868 -0.1800 -0.0832
14324W        W29455   0.585  12.402   0.844 -0.2197 -0.0677 -0.1640
14325W        W29456  12.508   6.646   3.431 -0.1591  0.0809 -0.0999
14326W        W29457   7.677   6.390  15.171  0.3255  0.0476  0.2559
14327W        W29458  16.296   1.117  16.105  0.0428  0.0062  0.2051
14328W        W29459   3.809   9.791   4.431  0.0540 -0.1754 -0.0050
14329W        W29460   7.633   6.350   1.157 -0.3054  0.1531  0.0412
14330W        W29461   2.879  15.253  14.016 -0.2868 -0.1782  0.0991
14331W        W29462   1.476  15.240   6.559  0.0106  0.0117 -0.1412
14332W        W29463   8.350   4.638   3.248 -0.0824 -0.0603 -0.1754
14333W        W29464   6.174  10.435  15.662 -0.2999 -0.0108 -0.2301
14334W        W29465   3.172   0.375   1.794  0.1140 -0.0323 -0.0302
14335W        W29466   3.682   1.284   5.372 -0.2250  0.0178  0.0899
14336W        W29467  10.080  14.174  12.208  0.2115 -0.0945  0.2413
14337W        W29468   6.128  17.313   1.859  0.1669 -0.0294  0.1943
14338W        W29469   3.902   4.940  14.900 -0.0027 -0.2658  0.0359
14339W        W29470  14.533  11.476  12.547  0.1136  0.1916 -0.1740
14340W        W29471   5.772  11.231   3.255 -0.0201 -0.1027 -0.0441
14341W        W29472  15.379  16.887   1.295 -0.2394  0.0178 -0.1377
14342W        W29473   8.512  10.985   2.363 -0.0869 -0.0515  0.3907
14343W        W29474  16.527   8.480   4.248  0.0062  0.1326  0.0703
14344W        W29475  17.478  10.248   0.493 -0.0509 -0.0381  0.1359
14345W        W29476  12.239   9.755   1.401  0.1376  0.0239 -0.1242
14346W        W29477   1.199   2.850  14.478  0.0858 -0.3540  0.1077
14347W        W29478   5.311   5.077  16.111 -0.2587 -0.3221 -0.1028
14348W        W29479  11.343   4.589   6.147 -0.2712 -0.0890  0.2302
14349W        W29480  17.198   0.736   1.324  0.2436  0.1367  0.2797
14350W        W29481  17.472   1.677   3.146  0.2449  0.2725  0.1080
14351W        W29482   8.509   0.788   4.031 -0.2891  0.0903 -0.1969
14352W        W29483  10.320   4.946   3.974 -0.0804  0.0772  0.1949
14353W        W29484  11.272   5.175  11.160 -0.3215  0.0309 -0.2513
14354W        W29485   8.753   5.365   4.971 -0.1361  0.0198  0.0849
14355W        W29486   9.289   5.460  10.985 -0.0487 -0.2012 -0.1227
14356W        W29487   7.417  16.637  15.579  0.0918 -0.0671  0.1229
14357W        W29488   6.935  13.211   5.336  0.1842  0.0291  0.3513
14358W        W29489  15.194   3.012   3.589  0.0773  0.1628  0.1996
14359W        W29490   1.546  11.480  13.060 -0.0466 -0.0526 -0.0314
14360W        W29491   3.030   4.786  15.013 -0.1677 -0.0620  0.0203
14361W        W29492   6.118   8.817   0.992  0.0881  0.1523 -0.2161
14362W        W29493  14.954  14.077   0.570  0.1087  0.1372  0.1524
14363W        W29494   3.976  13.222   3.750 -0.2486  0.2264  0.1632
14364W        W29495   7.207  16.105   2.566  0.1283  0.0242  0.1671
14365W        W29496   2.229   1.366  13.671 -0.0032  0.0617 -0.1140
14366W        W29497  10.364  14.393  14.076  0.2697 -0.1291  0.0915
14367W        W29498   5.294   1.250  15.422  0.0795 -0.0829  0.0844
14368W        W29499   2.569   2.308  15.283  0.0023  0.1046 -0.2780
14369W        W29500  16.088   2.030  11.821 -0.0048 -0.0830  0.1385
14370W        W29501   8.764  10.066  13.006  0.2082 -0.4161 -0.2443
14371W        W29502   2.305   9.557  16.049 -0.1574  0.1607  0.0567
14372W        W29503   1.863  11.448  15.406 -0.0053 -0.0513  0.0620
14373W        W29504  10.657   0.795   1.617  0.0416 -0.4823  0.0638
14374W        W29505  18.177   2.489   0.104 -0.1111  0.0887 -0.1099
14375W        W29506   4.207  10.909   2.656 -0.0215 -0.3297 -0.3249
14376W        W29507  13.076   1.655   1.863 -0.0219 -0.1491 -0.3191
14377W        W29508   6.710  11.333   2.769  0.2519  0.4977  0.1662
14378W        W29509   9.416   5.816   0.539 -0.0301  0.0599 -0.4061
14379W        W29510  12.808  10.961  13.406  0.1736  0.2821 -0.0415
14380W        W29511  11.429   5.459  13.163  0.1429  0.1395  0.1881
14381W        W29512  16.019   1.299   5.489  0.0200 -0.2370  0.2581
14382W        W29513   0.058  17.441  13.422 -0.0060  0.0267  0.4006
14383W        W29514  16.264  17.401   4.689  0.0931 -0.1196 -0.2809
14384W        W29515   4.317  17.643  15.763  0.1493  0.4096 -0.0749
14385W        W29516  10.819   2.597   2.416 -0.1124  0.2384  0.3784
14386W        W29517  14.126  10.443  13.837 -0.1429  0.1832 -0.0042
14387W        W29518   0.391   8.665  11.127  0.0392  0.0694  0.1327
14388W        W29519  15.174  11.572  13.111 -0.0643  0.0326 -0.1417
14389W        W29520   5.663  10.107  13.894  0.4750  0.1638 -0.0175
14390W        W29521   6.232   0.891   5.921  0.0451  0.0502  0.1276
14391W        W29522   0.204   5.673  12.993 -0.1018 -0.1985  0.2369
14392W        W29523  17.715   7.109  13.748 -0.3544 -0.1221  0.0368
14393W        W29524   9.433   3.661   0.442 -0.2651 -0.0094 -0.3520
14394W        W29525  10.417  16.920  13.402 -0.2465  0.4327 -0.0620
14395W        W29526   0.042  10.747   3.463  0.2268  0.3715 -0.1194
14396W        W29527  12.743  12.033   0.978 -0.4371 -0.1006  0.4337
14397W        W29528  12.088   4.887   1.970 -0.1810 -0.2145 -0.1607
14398W        W29529   2.507   2.419   2.218  0.0129  0.3147  0.1364
14399W        W29530  15.695   1.250   1.729 -0.2614  0.3496  0.2006
14400W        W29531  11.943   9.235  10.386 -0.0680 -0.0384 -0.3233
14401W        W29532   8.645   2.442   2.285 -0.2511  0.0491  0.1201
14402W        W29533  16.797  11.682   2.738 -0.0402  0.3510  0.3208
14403W        W29534   2.499  15.614   0.893  0.3071  0.2400 -0.2015
14404W        W29535  17.239  16.270   6.631  0.0221  0.3801 -0.1276
14405W        W29536   5.078  15.186  11.843 -0.0659  0.2058 -0.1358
14406W        W29537  17.205   1.771   4.414  0.0216  0.2331  0.0033
14407W        W29538  10.441   7.613   3.005  0.1436 -0.2051  0.0581
14408W        W29539   1.866   7.816   2.677 -0.1222 -0.0028  0.5625
14409W        W29540   2.329  16.399   4.638  0.2705  0.0653  0.1029
14410W        W29541   9.946  12.809   3.787 -0.3956 -0.3307 -0.2672
14411W        W29542   0.722   1.952  10.775  0.1445  0.1704  0.0390
14412W        W29543   0.768  10.903  13.976 -0.0345 -0.1404 -0.2947
14413W        W29544  17.281  10.870   6.009 -0.0059 -0.1795 -0.0847
14414W        W29545   8.319   1.475   1.965 -0.1196 -0.0838 -0.3688
14415W        W29546  11.992   8.560   4.769 -0.0273 -0.3301  0.2423
14416W        W29547   4.930  11.655   4.346  0.0669  0.1298  0.1734
14417W        W29548   4.167  13.457   3.039  0.2121  0.2871 -0.0279
14418W        W29549   8.396   0.112   9.837  0.0009  0.1023  0.1360
14419W        W29550  14.200   5.308   1.409  0.4589 -0.1450 -0.1516
14420W        W29551   3.488   4.513  15.058 -0.1457 -0.1398 -0.3755
14421W        W29552   2.954   5.464  10.734  0.0436  0.1977  0.1477
14422W        W29553   4.114   9.178   3.850 -0.1142  0.2717 -0.4060
14423W        W29554  16.510  12.260  15.526  0.2360 -0.4079  0.0295
14424W        W29555   7.594  10.602   5.406  0.1047  0.1104 -0.0301
14425W        W29556   5.507  11.319   4.192  0.0165  0.0741  0.1794
14426W        W29557  10.030  10.828  14.913  0.0903  0.1692  0.1147
14427W        W29558  17.726  17.454   1.593  0.0873 -0.4096 -0.1302
14428W        W29559   7.513  11.209   2.391 -0.3457  0.2686 -0.1091
14429W        W29560  12.837   3.697   4.061  0.2358 -0.1564  0.0205
14430W        W29561   5.872   5.388   5.853  0.0039 -0.0964  0.0364
14431W        W29562  10.170  13.029   3.293 -0.1456  0.1152 -0.1545
14432W        W29563   3.712  12.331  14.466  0.2508  0.0667  0.0124
14433W        W29564  12.682  10.910   4.748  0.5139 -0.1605  0.0264
14434W        W29565   5.430   8.811  14.362  0.3143 -0.0641 -0.0960
14435W        W29566   5.927  13.338   2.342 -0.1953  0.1721 -0.1533
14436W        W29567   9.259  14.619  13.399  0.0283 -0.0264 -0.3993
14437W        W29568   8.346  14.379  12.094 -0.0153  0.5789 -0.0194
14438W        W29569   2.428  10.956  10.723 -0.2098  0.1513 -0.1739
14439W        W29570  11.401  11.785   3.147  0.2385  0.0395 -0.1196
14440W        W29571   8.351  11.839   0.226  0.0978  0.1939 -0.0360
14441W        W29572   3.037  15.804   1.689 -0.1022 -0.3385  0.1711
14442W        W29573   3.786  12.638   4.422  0.5222  0.3051 -0.1964
14443W        W29574  16.575   9.517  10.630 -0.1673 -0.0923 -0.2525
14444W        W29575   9.803   0.794  14.541 -0.2271 -0.0934  0.3028
14445W        W29576   1.438   9.325  11.504  0.2555 -0.0171 -0.0320
14446W        W29577   4.186   6.151  12.617 -0.1638  0.2796  0.4269
14447W        W29578   3.875  11.519  10.972  0.1053  0.0719  0.1373
14448W        W29579  15.900  15.340  11.856  0.0255  0.1350  0.1142
14449W        W29580   1.414  12.954  13.824 -0.3575 -0.0814  0.0328
14450W        W29581   9.591  11.624   1.258  0.3660  0.1897  0.0643
14451W        W29582  17.314   2.405   4.854  0.0194 -0.0365  0.1396
14452W        W29583   6.475  12.357  15.569  0.1156 -0.2374  0.0237
14453W        W29584  11.874  15.471   0.815 -0.1404  0.0476  0.0905
14454W        W29585   5.172  18.158  15.860  0.0323 -0.1805  0.1345
14455W        W29586  14.483  15.035  15.899 -0.1688  0.0411  0.1727
14456W        W29587  14.816   4.354  14.624  0.1206 -0.0350 -0.1301
14457W        W29588  15.438   9.194  12.031  0.4350 -0.4776  0.0680
14458W        W29589  11.800   1.460   2.001 -0.0702  0.0296 -0.0247
14459W        W29590  10.749   4.650   1.999 -0.2236 -0.1692  0.1795
14460W        W29591   5.175   7.802  14.654 -0.0890  0.3421  0.1458
14461W        W29592  10.967  18.139  14.596  0.3939  0.0773  0.3837
14462W        W29593  13.446  12.720  13.535  0.1591  0.3956 -0.0791
14463W        W29594  16.956   6.726   3.005 -0.1276  0.0595  0.5092
14464W        W29595   5.061   3.342   5.983 -0.0899  0.1355  0.3995
14465W        W29596  12.172   6.443   2.448 -0.0324  0.0415 -0.1633
14466W        W29597   6.693   4.640  14.835  0.1082  0.0246  0.0908
14467W        W29598   2.249   5.296  14.949 -0.2704  0.1482 -0.1066
14468W        W29599  11.319   4.764   4.728 -0.0194 -0.0429 -0.0294
14469W        W29600   8.228   3.490  16.088 -0.1592 -0.2833  0.3859
14470W        W29601   1.542  15.573   1.836 -0.0849  0.1196 -0.2046
14471W        W29602  15.747   7.275   1.007 -0.3877  0.2603 -0.1369
14472W        W29603   1.964   0.547  12.961  0.1216 -0.0576 -0.1876
14473W        W29604   9.651  17.357  11.534 -0.1758  0.0014 -0.3012
14474W        W29605  11.996  13.525   4.156  0.0843  0.2182 -0.2844
14475W        W29606   5.087   2.104  13.879  0.1637 -0.1138 -0.2663
14476W        W29607   3.790  16.307   4.280  0.1455 -0.0418 -0.2317
14477W        W29608  18.014  10.106  12.134  0.0029 -0.0557  0.2071
14478W        W29609  11.136  13.583  11.778 -0.0528  0.0247 -0.3730
14479W        W29610  12.944  10.463   1.611 -0.1877 -0.2284  0.0550
14480W        W29611  17.569   4.202   2.919  0.0373 -0.1129  0.0295
14481W        W29612   4.108  14.546   5.052  0.2546 -0.1684 -0.2118
14482W        W29613   2.130  17.338  15.179  0.0759  0.0867  0.1139
14483W        W29614  15.407  14.565   1.817  0.1836  0.6529  0.1044
14484W        W29615  11.160   8.907  13.574 -0.1061  0.0552  0.1921
14485W        W29616   2.004   3.040   1.668  0.1068  0.6534 -0.0022
14486W        W29617   0.604   2.308  11.110  0.0810  0.1735 -0.0560
14487W        W29618   4.745  10.785   4.322  0.0189 -0.1619  0.0753
14488W        W29619   4.189  14.591   0.826  0.0484  0.1627 -0.2996
14489W        W29620   8.170  12.577   5.245 -0.0828  0.0998  0.0018
14490W        W29621   3.111   3.634   2.457  0.2999  0.1047 -0.0210
14491W        W29622   2.152   6.535   4.382  0.0508  0.0029  0.5029
14492W        W29623   7.342  17.388   4.255 -0.2093  0.0313 -0.3279
14493W        W29624   7.808   1.674   6.057  0.1529  0.1048  0.0569
14494W        W29625  17.895   0.775   0.534 -0.1782 -0.0189  0.1057
14495W        W29626   0.559  15.625  13.931  0.1200  0.1663 -0.3570
14496W        W29627  14.893  10.645  16.106  0.1965  0.2856 -0.4085
14497W        W29628  13.872   6.056   0.901 -0.4097 -0.1317  0.2009
14498W        W29629   4.262  13.230  12.948 -0.0674  0.0606  0.0216
14499W        W29630  12.636   1.494   0.016  0.2157  0.0863  0.1381
14500W        W29631  13.100  11.064   2.584 -0.0847  0.2347 -0.1971
14501W        W29632  12.254   7.063   1.606  0.1437 -0.3164  0.5727
14502W        W29633  15.127   3.299  13.072 -0.0909  0.2201  0.1335
14503W        W29634   4.778  15.671  15.353 -0.1345  0.1661  0.0658
14504W        W29635  12.840  13.589  15.477  0.0936  0.0521 -0.1379
14505W        W29636   2.186   6.407   0.494  0.3442 -0.2923 -0.0141
14506W        W29637   4.981   1.198  12.634 -0.1191  0.1203 -0.0455
14507W        W29638  14.305   7.959  13.064  0.4695 -0.1639  0.0026
14508W        W29639   0.342   0.898  11.465  0.0963  0.2806  0.0714
14509W        W29640  15.311   5.268  10.819 -0.1000  0.0829 -0.2694
14510W        W29641   5.026  11.558  14.943  0.1185  0.1224  0.1833
14511W        W29642   8.922  15.188   3.794  0.2841 -0.0067  0.2869
14512W        W29643  16.612   2.343   5.557  0.0836  0.3077 -0.0616
14513W        W29644  12.450  17.903   1.531 -0.1075 -0.1538  0.0324
14514W        W29645   9.514  12.531   2.969  0.2853 -0.1226  0.1917
14515W        W29646   4.557  11.087  13.359 -0.1404  0.0670  0.0299
14516W        W29647  13.608  15.213  14.216  0.1517  0.0731 -0.0960
14517W        W29648   0.348   9.805   3.892 -0.1769 -0.0353 -0.1313
14518W        W29649   9.186  15.546   4.211  0.1589 -0.0977  0.2541
14519W        W29650   2.774  15.530   5.497 -0.0472 -0.0876 -0.5436
14520W        W29651   0.035  12.637  10.613  0.2271 -0.0027  0.0575
14521W        W29652  15.206   1.949   4.465 -0.0284 -0.0874  0.0531
14522W        W29653  13.644  10.426   4.041  0.0837  0.0986  0.1206
14523W        W29654  15.427   3.438   2.118 -0.1470 -0.0261 -0.8018
14524W        W29655   2.992  13.343  16.101 -0.0443  0.0632  0.2639
14525W        W29656  10.725  14.369   1.489 -0.0023 -0.0819  0.0291
14526W        W29657  11.810   3.270   3.377  0.2348  0.1856  0.0704
14527W        W29658   1.222   9.651  11.795  0.0212 -0.2715  0.1735
14528W        W29659   6.777   6.155   0.276  0.1653  0.2234  0.3036
14529W        W29660  11.691   2.439  11.230  0.0825 -0.2253  0.0436
14530W        W29661   2.940  13.788   4.414  0.1502  0.1406  0.1310
14531W        W29662  14.455   6.617   3.816 -0.1554 -0.3141  0.0982
14532W        W29663   2.122   5.050   2.967 -0.1530  0.1757  0.1250
14533W        W29664  18.117  11.318   4.969  0.0881  0.1025  0.0765
14534W        W29665   2.718   4.316   1.114 -0.0837 -0.4047  0.0086
14535W        W29666  15.389   0.212   2.978  0.2240  0.2380  0.0115
14536W        W29667  13.512   0.943  12.148 -0.2021  0.1509 -0.0623
14537W        W29668  13.985   8.509  11.386 -0.0889  0.0170  0.0667
14538W        W29669  16.111  10.942  14.670  0.1176 -0.0804 -0.2364
14539W        W29670  17.138   2.787  14.169 -0.1835 -0.0490  0.0714
14540W        W29671   2.750   9.405  14.336  0.2518 -0.3374  0.3601
14541W        W29672   1.868   1.103  12.383 -0.1474 -0.1367  0.1161
14542W        W29673   9.831  15.113   2.377 -0.0711 -0.2023  0.1464
14543W        W29674  17.326  16.973   5.671 -0.2184 -0.0818  0.0723
14544W        W29675  15.937   6.969   1.453  0.3305 -0.0206 -0.1262
14545W        W29676   0.387  14.926   5.199  0.0018  0.1921 -0.1892
14546W        W29677   2.848   6.030  12.450  0.1367  0.0559  0.3998
14547W        W29678  12.493  17.846  13.200  0.3109 -0.0583 -0.1944
14548W        W29679   6.499  15.401  12.158 -0.0349  0.4101 -0.0411
14549W        W29680  14.093   2.157  14.718  0.0611  0.1173 -0.3304
14550W        W29681  16.545  15.499   4.287 -0.1789 -0.0511  0.1189
14551W        W29682  16.950  13.526   1.034  0.1243  0.0032 -0.1932
14552W        W29683   5.596   6.440  13.291  0.2514  0.2771  0.1049
14553W        W29684   5.949   3.139  12.962 -0.1302 -0.0025 -0.1173
14554W        W29685  17.095   2.191  11.781 -0.0121  0.0247 -0.1472
14555W        W29686   5.633  16.011   3.096 -0.0178  0.2097 -0.2161
14556W        W29687   2.630  14.631  14.672 -0.0101 -0.1486  0.2300
14557W        W29688  11.134  12.061  14.319 -0.0519 -0.2335 -0.0253
14558W        W29689  12.324  14.229   5.766  0.0839 -0.2560 -0.0379
14559W        W29690  10.081  14.213   0.570  0.4320  0.2110 -0.3194
14560W        W29691   9.825   3.119  12.099 -0.1243  0.0559  0.2324
14561W        W29692  18.002  14.325   2.287 -0.1595  0.3285  0.2378
14562W        W29693  13.917   7.905   1.072 -0.2648 -0.1054 -0.0693
14563W        W29694  15.197   8.710   1.010 -0.1209 -0.0142  0.0100
14564W        W29695  10.527  12.578   0.815  0.1331 -0.0372 -0.2166
14565W        W29696   4.412   1.986   0.742  0.0217 -0.0900  0.2274
14566W        W29697  16.436  11.842  12.658  0.0779  0.0525 -0.1169
14567W        W29698   8.777   4.248   1.329  0.1955  0.0967 -0.4257
14568W        W29699  14.061  11.544  13.878 -0.0076  0.0841 -0.0667
14569W        W29700   4.665  10.331   0.486  0.1247  0.0961  0.2702
14570W        W29701   3.743   7.052  14.197  0.2396 -0.0700  0.0600
14571W        W29702   3.252   5.647  15.873 -0.0557  0.0503  0.0300
14572W        W29703   6.964   4.810  16.098 -0.0237 -0.1489  0.0130
14573W        W29704   0.230   4.022  15.500 -0.3662  0.1311  0.2293
14574W        W29705  17.966   6.802   4.478  0.2248  0.3709  0.0840
14575W        W29706   8.676  17.889   2.549  0.1222  0.1696 -0.1228
14576W        W29707   9.866  11.718   2.197 -0.0567 -0.0361 -0.0418
14577W        W29708   7.396   4.476   2.416  0.4166 -0.0242 -0.2334
14578W        W29709   2.853   3.004   2.208 -0.1312 -0.3915 -0.1402
14579W        W29710   6.814   8.433   5.491  0.1867  0.0772 -0.0129
14580W        W29711  10.317   1.217   4.831  0.0308  0.4576  0.1803
14581W        W29712  13.799   0.135  11.841  0.0205  0.0952  0.0681
14582W        W29713   5.090   7.275   1.157 -0.1438  0.2256  0.3409
14583W        W29714   2.881   1.154   1.575  0.3469  0.1854  0.0683
14584W        W29715  16.609   6.244   2.630 -0.0386 -0.0901  0.2094
14585W        W29716  15.069  14.865   5.481  0.3831 -0.0743  0.0391
14586W        W29717   7.567   0.026  12.825  0.2975  0.1167  0.0432
14587W        W29718   5.670  11.046  12.544 -0.1130 -0.4326  0.0398
14588W        W29719  16.110   1.656   6.250 -0.0826  0.0219 -0.0339
14589W        W29720  11.071   6.089  11.514  0.1083  0.1315 -0.0446
14590W        W29721   6.333   3.212  13.741  0.3000  0.1628 -0.0380
14591W        W29722  17.877   1.268  13.909 -0.0297 -0.0079 -0.3415
14592W        W29723   0.121  12.737   4.610 -0.0995  0.1669 -0.1994
14593W        W29724  16.341   7.558  15.052  0.0281  0.1105 -0.1483
14594W        W29725   2.172   2.764   2.588 -0.0711  0.0142 -0.1428
14595W        W29726   1.959  13.701   4.303  0.1039  0.1711 -0.5467
14596W        W29727   6.199  17.723   4.954 -0.1503  0.3945 -0.3919
14597W        W29728  15.115  13.743   5.058  0.0650  0.0414  0.3187
14598W        W29729  10.653   5.322  14.433 -0.2648 -0.0125  0.1315
14599W        W29730  14.380   1.737   0.009 -0.0720  0.0738  0.0104
14600W        W29731   1.681   7.655  14.910 -0.1232  0.0760  0.0551
14601W        W29732  12.412  15.447   3.606  0.0689 -0.3351  0.3725
14602W        W29733  15.246   4.042   5.599  0.0242 -0.0524  0.0868
14603W        W29734   4.735   4.857   1.444 -0.0240 -0.2831 -0.0693
14604W        W29735  11.403   9.524  12.232 -0.1320  0.0877 -0.0437
14605W        W29736   8.818  16.984   2.203  0.1893 -0.0055 -0.1100
14606W        W29737   3.283  10.134   1.397  0.0855 -0.0137 -0.0256
14607W        W29738  17.229   8.591  11.971 -0.0910  0.1539  0.0700
14608W        W29739   5.522   8.406  10.726  0.3088 -0.1088 -0.1136
14609W        W29740  15.163   0.858   0.614 -0.1447  0.0408 -0.0220
14610W        W29741  10.183   9.325  15.280 -0.0264  0.1702  0.0727
14611W        W29742  15.567  13.455  14.840 -0.0288 -0.1159 -0.0385
14612W        W29743   7.599   6.073  14.144 -0.1290  0.1422  0.2169
14613W        W29744  13.156  13.729   1.763 -0.0907  0.4299  0.0366
14614W        W29745  10.940   6.434   4.188 -0.1747 -0.4604  0.1362
14615W        W29746  15.778  15.525  15.269 -0.1314 -0.2364  0.2920
14616W        W29747   3.566   9.282   0.035  0.1920 -0.1043  0.1970
14617W        W29748  17.937   1.226  16.144 -0.4492  0.0239  0.2122
14618W        W29749   7.878   0.237   6.149 -0.0028  0.0186  0.0629
14619W        W29750   8.948   5.966   0.487 -0.0853 -0.1189  0.2773
14620W        W29751  13.104  11.663  13.304 -0.0859  0.0122 -0.2888
14621W        W29752   0.126  12.537  15.728  0.0938  0.2098  0.0017
14622W        W29753   6.235  17.735  13.897 -0.0156 -0.0154 -0.2221
14623W        W29754  13.207   1.268  12.978  0.1479  0.1485 -0.0781
14624W        W29755   8.400  16.080   1.715  0.2236  0.1824  0.1149
14625W        W29756  11.082  13.965  12.084 -0.0393  0.0888  0.4331
14626W        W29757   2.496  14.520   1.179 -0.0432 -0.1460  0.0649
14627W        W29758   2.424   7.271   5.689 -0.0793  0.2775  0.0288
14628W        W29759   9.628   1.063  11.532 -0.3036 -0.0195 -0.0360
14629W        W29760   7.354  10.863   3.700  0.3566 -0.0708  0.0461
14630W        W29761  16.968  18.066  15.132  0.3616  0.1552 -0.0947
14631W        W29762   8.108   1.354   3.920 -0.3279  0.2845 -0.0028
14632W        W29763  12.362   4.570  11.574  0.1834  0.0880 -0.0800
14633W        W29764   0.942   8.446   5.298 -0.0421  0.2163 -0.2110
14634W        W29765  12.710   8.947  13.216  0.2117 -0.2844  0.1753
14635W        W29766  13.384   8.352  12.224  0.2437  0.1185  0.2095
14636W        W29767  11.613  16.494  15.827  0.0810  0.0681 -0.0418
14637W        W29768   5.454  17.517  14.985 -0.2928  0.0081 -0.1568
14638W        W29769   5.109  12.231   3.397  0.0508  0.0244 -0.1353
14639W        W29770  16.722   0.709   1.296  0.0091  0.3972  0.0745
14640W        W29771   4.400  11.678   1.223  0.0759 -0.0787 -0.1216
14641W        W29772   8.566  10.253  14.103 -0.2438 -0.0446  0.0189
14642W        W29773  14.313  15.822   4.745  0.0561 -0.4493 -0.2707
14643W        W29774  18.049   5.481  13.496 -0.1337 -0.1659  0.2712
14644W        W29775  14.137  16.860  13.574  0.1931  0.0137  0.1742
14645W        W29776   9.219   8.831   3.706  0.0848  0.0523 -0.1741
14646W        W29777  10.272   3.337  13.662 -0.2227 -0.0164  0.2514
14647W        W29778   9.987  16.782   4.610  0.1650 -0.2659  0.4365
14648W        W29779   2.666  18.164  15.998 -0.0955  0.4334 -0.0288
14649W        W29780   1.407   1.185  14.221 -0.1083 -0.2815  0.0764
14650W        W29781  13.899   4.910   1.344  0.1579 -0.2074  0.3228
14651W        W29782   0.175   7.875  14.708 -0.0149  0.3333 -0.1479
14652W        W29783  12.877   1.114  14.886  0.1192  0.1766 -0.1336
14653W        W29784   4.151   9.083   4.812 -0.0922 -0.0031 -0.0588
14654W        W29785  10.333   4.800   2.235 -0.0492 -0.2339  0.1650
14655W        W29786  17.963  12.890   5.394 -0.5140  0.2450  0.0172
14656W        W29787   9.239   0.336  15.495 -0.0757 -0.2152 -0.0245
14657W        W29788   4.540   7.263   4.737  0.0711  0.1658 -0.0698
14658W        W29789   0.455  10.749   1.784  0.4166 -0.2893 -0.2523
14659W        W29790  18.071   2.612  15.198  0.0224 -0.1466 -0.0866
14660W        W29791  16.836   0.147  13.888 -0.0640  0.1493  0.0900
14661W        W29792  14.994  15.274  11.102 -0.2050  0.0864 -0.0878
14662W        W29793   1.337   8.672  13.150 -0.2522 -0.1926 -0.1460
14663W        W29794   7.736   2.551  12.823  0.2597  0.1483  0.1248
14664W        W29795  12.667  14.044  11.402  0.0344 -0.1499 -0.0212
14665W        W29796  14.029   8.562  13.675  0.1151  0.3518 -0.3440
14666W        W29797   2.528   8.681   0.356 -0.0721  0.1130  0.2719
14667W        W29798   2.547  16.327  15.669  0.4432 -0.3727  0.1100
14668W        W29799   7.547   5.048   0.702  0.0419  0.2416 -0.1319
14669W        W29800  13.421   5.869  14.885 -0.0124  0.1519  0.1264
14670W        W29801   6.329  16.995   3.605  0.1247 -0.1816 -0.0435
14671W        W29802  14.237  12.014  13.882 -0.0579 -0.2105 -0.1544
14672W        W29803  13.870  16.593  14.607  0.1786 -0.2316  0.2230
14673W        W29804   8.005   3.792   4.401 -0.2624  0.1823 -0.0814
14674W        W29805  16.932   8.823   3.139 -0.0323 -0.1095 -0.0924
14675W        W29806  10.196   6.685  14.289 -0.1452 -0.0746 -0.3266
14676W        W29807   0.535   9.299   0.899 -0.2240 -0.1849  0.2988
14677W        W29808   1.653  14.965  12.059 -0.0670 -0.0133  0.2765
14678W        W29809   9.512   8.358   1.716 -0.1586  0.0934  0.3141
14679W        W29810   1.105   7.169   3.203 -0.0413  0.0202 -0.1711
14680W        W29811  14.296  16.525  14.987 -0.3711  0.2939 -0.1541
14681W        W29812   3.174   9.654   3.834 -0.1529 -0.0322  0.1886
14682W        W29813  17.833  11.022   5.346 -0.0250  0.1776 -0.1409
14683W        W29814  11.260  12.545   9.791 -0.2017  0.0240  0.0535
14684W        W29815   7.127  14.391  12.519  0.0947  0.1302  0.1493
14685W        W29816  10.836   7.195  12.591  0.0556  0.0055  0.2395
14686W        W29817  14.562   1.434   5.237  0.2059 -0.2506 -0.0194
14687W        W29818  11.203   8.735  14.165  0.0123 -0.0002  0.0637
14688W        W29819  10.632   2.871  12.876  0.0646  0.2240  0.1068
14689W        W29820   0.258  12.121  11.721  0.4494 -0.0507  0.2264
14690W        W29821   8.861  15.108   5.054  0.2702 -0.0584  0.1805
14691W        W29822  16.478   0.655  15.832 -0.4643  0.0632 -0.0320
14692W        W29823  15.854   4.759   0.403 -0.4466 -0.0558 -0.4031
14693W        W29824   5.201   9.627   1.785  0.0567 -0.3822 -0.1064
14694W        W29825   7.659   1.217   2.648  0.2151  0.0586 -0.0652
14695W        W29826   5.197   8.421   0.289 -0.0793  0.1729  0.2779
14696W        W29827   0.189   2.014  16.159 -0.1642  0.1290 -0.0378
14697W        W29828   0.621   8.763   2.194 -0.3009  0.2748 -0.0749
14698W        W29829   0.651  10.653   0.070 -0.2373  0.1145 -0.1102
14699W        W29830   3.136   1.052   1.196  0.0378  0.1296 -0.1003
14700W        W29831   6.954   6.119   4.975  0.1791  0.2143  0.2441
14701W        W29832  13.430  13.201   5.038  0.1027  0.4421 -0.0629
14702W        W29833   3.226   3.326   2.095  0.1397 -0.2238 -0.3180
14703W        W29834  10.923   6.654  15.435  0.1239 -0.1469 -0.2268
14704W        W29835   7.811  17.321  15.078 -0.1968  0.0832  0.2354
14705W        W29836  15.271   4.004  15.864  0.0446  0.0588 -0.2863
14706W        W29837   9.203  14.261   4.112 -0.2919  0.0547 -0.0748
14707W        W29838  10.448   7.573   3.718 -0.0640  0.2471 -0.1154
14708W        W29839   5.184   7.305  11.510  0.0892 -0.0391  0.1233
14709W        W29840   2.039   1.142  11.897  0.1080 -0.2888 -0.0046
14710W        W29841  10.247  17.886  10.723  0.0791  0.0793  0.1918
14711W        W29842   5.400  14.016  14.870 -0.0109 -0.1202  0.1106
14712W        W29843   9.582  17.201  12.993 -0.1096 -0.2310 -0.0873
14713W        W29844   1.037   7.067  11.451  0.0381  0.1319  0.1438
14714W        W29845  17.195  13.310   2.924 -0.0491  0.0143  0.0181
14715W        W29846   8.434   1.963   4.468  0.1514  0.0004  0.0981
14716W        W29847   9.562  13.130  14.142 -0.2411  0.2890  0.1980
14717W        W29848  16.507   2.145   3.888  0.1061  0.0631 -0.3892
14718W        W29849  10.694   9.020  13.418 -0.2035 -0.0314  0.3102
14719W        W29850   9.354   5.699   5.296 -0.0354 -0.0191 -0.2776
14720W        W29851  13.346   1.276   0.976  0.1678  0.1202 -0.1751
14721W        W29852   0.209  15.905  12.461  0.0247 -0.2922 -0.1583
14722W        W29853  10.027   1.616  14.277 -0.0604  0.2508  0.0339
14723W        W29854   2.534  16.143   0.955 -0.0481  0.2089  0.2314
14724W        W29855  16.947   8.173   0.094 -0.1030  0.1593  0.0231
14725W        W29856  15.750   0.538   0.175  0.1354 -0.0333  0.0623
14726W        W29857   3.899  12.244  11.303  0.1848 -0.0710 -0.2810
14727W        W29858   9.677  14.917  12.760 -0.1629 -0.2624 -0.1786
14728W        W29859  13.798  17.004  15.563  0.0604 -0.1804 -0.0575
14729W        W29860   0.131  10.042  13.135 -0.4757  0.0741 -0.2940
14730W        W29861  15.277   6.623   5.720  0.1985  0.4291 -0.2687
14731W        W29862   0.260   2.527   1.386  0.2178  0.2738 -0.1697
14732W        W29863   3.856   3.177  14.909 -0.2878 -0.0546  0.1900
14733W        W29864  10.047   8.639   3.091  0.1990  0.2595  0.0436
14734W        W29865  12.655   0.171   6.234 -0.3899  0.2920  0.0470
14735W        W29866  10.309  11.679   0.975  0.1249  0.2263  0.2753
14736W        W29867  10.617   2.130  12.325 -0.0256 -0.1075  0.0080
14737W        W29868  12.098  11.628  14.095 -0.3044 -0.1416  0.0339
14738W        W29869   6.941  14.618  14.421 -0.1022 -0.2144  0.3010
14739W        W29870   5.878  12.549  15.434  0.1172  0.0683  0.1665
14740W        W29871   2.056   0.326   0.429  0.1621  0.1905 -0.0773
14741W        W29872   9.639   5.533   2.879 -0.0173  0.0680 -0.1151
14742W        W29873   8.238   9.020  14.899  0.1088 -0.0119  0.0476
14743W        W29874   5.090   6.499  12.298  0.1706  0.2147 -0.0282
14744W        W29875   6.552   9.835   0.320 -0.1729 -0.0932 -0.0889
14745W        W29876  12.727  11.368   5.691  0.0657  0.2138  0.0966
14746W        W29877   5.336   7.179   5.161  0.1447 -0.0919 -0.3530
14747W        W29878   9.510   2.613  12.913 -0.0034  0.1068 -0.2484
14748W        W29879   4.311   4.786  13.124 -0.0370  0.0045  0.4306
14749W        W29880  17.816   3.411  15.695  0.0187 -0.0522  0.0752
14750W        W29881   3.875   0.115  11.163 -0.1462 -0.1201 -0.3994
14751W        W29882  18.178  15.024   5.595  0.2465 -0.0597 -0.2152
14752W        W29883  11.893   3.415  14.676  0.1465 -0.0994 -0.0218
14753W        W29884   9.312   0.159   3.121 -0.1376  0.2115  0.0568
14754W        W29885   7.108  18.161   5.904 -0.0470  0.0934  0.2599
14755W        W29886   1.809   3.748  13.062 -0.2867 -0.1288 -0.1320
14756W        W29887   9.955   9.502  14.865 -0.0311  0.0536 -0.0909
14757W        W29888   4.998   3.610  10.930 -0.0858 -0.1008 -0.0151
14758W        W29889  15.295   2.719  12.787 -0.3292 -0.3540  0.2011
14759W        W29890  13.335   9.754  13.357  0.0047  0.0184  0.2785
14760W        W29891   4.215   5.219  12.250 -0.0176 -0.2473  0.1423
14761W        W29892   0.752  12.983   5.978  0.2081 -0.1030 -0.1423
14762W        W29893   3.042   8.901   2.695 -0.1116 -0.3883 -0.0411
14763W        W29894  10.528  11.963   1.763  0.1283  0.1467 -0.2360
14764W        W29895  12.587  14.640   1.552  0.1219  0.1076 -0.1538
14765W        W29896  15.125   1.689   1.268 -0.2613 -0.0851 -0.0790
14766W        W29897  12.064  16.541  12.171 -0.0848  0.3661  0.0234
14767W        W29898   0.575   6.239  10.845  0.0888  0.4725 -0.3242
14768W        W29899   2.727  17.392   1.082 -0.1957 -0.0348 -0.3713
14769W        W29900  11.723   5.099  14.978 -0.0052 -0.2720  0.2212
14770W        W29901   3.063  18.121   2.042 -0.2313  0.4016 -0.1359
14771W        W29902  11.716   0.730  14.377  0.0448  0.3257  0.0802
14772W        W29903  10.838   5.472   2.603 -0.2009 -0.0163 -0.1803
14773W        W29904  17.909   3.045   0.372  0.1516  0.1198 -0.2094
14774W        W29905   5.182   9.827   2.775 -0.2356  0.1992 -0.1585
14775W        W29906   4.444  11.026   3.521  0.0842  0.1861  0.0573
14776W        W29907   6.766   5.589  10.347 -0.3432  0.2630  0.1259
14777W        W29908  17.856  13.967   6.764 -0.1057  0.1676 -0.2194
14778W        W29909   3.827   3.372   0.419  0.1086  0.1896 -0.1198
14779W        W29910   9.311   8.695   0.761 -0.0681  0.1687  0.3060
14780W        W29911  11.136   3.272  14.024 -0.1807  0.0278  0.1381
14781W        W29912  16.784  10.980   4.765  0.2138 -0.0266 -0.0206
14782W        W29913  11.918  11.163  15.187 -0.0321  0.1339 -0.1557
14783W        W29914   9.028   0.866  15.687 -0.1988 -0.0249  0.2270
14784W        W29915  15.799   7.596   5.004 -0.0357 -0.1513  0.1374
14785W        W29916  11.622  14.747   1.480  0.0129  0.0018  0.0603
14786W        W29917  12.241   9.968  15.731 -0.3428  0.2131 -0.0296
14787W        W29918  16.007  14.303  11.915 -0.3413  0.0306 -0.0165
14788W        W29919   0.516  16.162   4.767  0.0264 -0.0613  0.0137
14789W        W29920   9.389  17.149   4.962  0.0895 -0.0874 -0.0807
14790W        W29921   0.195   0.546   1.647 -0.0143 -0.0438  0.1368
14791W        W29922  12.924   9.855  15.131 -0.1096  0.2005  0.1803
14792W        W29923   5.544  16.458   3.272 -0.1212  0.2358 -0.1700
14793W        W29924  17.758   7.483   2.111 -0.0310  0.1516  0.1796
14794W        W29925  10.978  12.432   2.480  0.1381  0.1542 -0.2035
14795W        W29926   5.459   9.879   0.920  0.1016 -0.2369  0.4219
14796W        W29927   7.638  10.468  10.865  0.0118  0.0412 -0.0869
14797W        W29928   8.972  17.298   0.103  0.0686 -0.0540 -0.0553
14798W        W29929   8.861   4.602   0.756 -0.0696  0.2414  0.0998
14799W        W29930   5.498   1.983   5.607  0.0457 -0.0267  0.1301
14800W        W29931   6.979   0.484   5.799 -0.1552  0.3835 -0.1650
14801W        W29932   1.760  12.341  14.964  0.3192  0.0093 -0.0793
14802W        W29933  17.278   7.957  10.615 -0.1198  0.1252  0.0315
14803W        W29934   7.481  17.306   1.639 -0.3058 -0.0306  0.0868
14804W        W29935  14.489   5.482   2.498 -0.1718  0.0270  0.2379
14805W        W29936   3.135  16.617  15.935  0.0957 -0.0436  0.1484
14806W        W29937   3.123  15.137   5.713 -0.0520 -0.3373  0.1513
14807W        W29938   3.432   3.611  10.801  0.1285  0.1836  0.3575
14808W        W29939   8.645   8.167  13.688  0.1358  0.2938  0.1100
14809W        W29940   2.096  10.938   4.813 -0.1931 -0.0308  0.3181
14810W        W29941  11.760   2.978  11.771 -0.1130 -0.0961  0.1170
14811W        W29942  10.843  17.755   3.135 -0.0710  0.2001 -0.0529
14812W        W29943  16.069   1.482  14.760 -0.0989 -0.0677 -0.0775
14813W        W29944   1.424  14.160  11.339 -0.0443  0.0372  0.0073
14814W        W29945   2.796   1.295   4.941  0.0121  0.0283  0.4654
14815W        W29946  17.582  14.964  13.426  0.3001  0.0394 -0.0618
14816W        W29947   4.006  17.663  14.787 -0.0677  0.0267  0.0395
14817W        W29948  15.069   2.156   1.036  0.1482 -0.1877  0.0292
14818W        W29949   5.512   7.280  12.298  0.1660 -0.0756 -0.0641
14819W        W29950   8.563  13.214   1.774 -0.2418  0.1486 -0.4015
14820W        W29951   3.927   2.408   0.274 -0.1334  0.2806  0.1907
14821W        W29952  15.348  15.277  12.445  0.0444 -0.0099  0.1507
14822W        W29953   3.217   1.223   0.239 -0.0822 -0.0777 -0.2444
14823W        W29954   3.611   4.037  11.024 -0.1451  0.0235  0.0589
14824W        W29955   9.694  16.284   4.298 -0.0677 -0.1697 -0.0264
14825W        W29956   2.172   2.444  15.950  0.3556  0.1283 -0.3518
14826W        W29957  14.424   9.442   5.500 -0.0886 -0.1107 -0.2254
14827W        W29958  17.930  17.937   1.934  0.2028 -0.2182  0.0683
14828W        W29959  10.460   8.888   3.600 -0.1930 -0.3556  0.1292
14829W        W29960   5.125   8.676   2.709 -0.0755 -0.3539  0.2935
14830W        W29961  15.167  10.492   1.328  0.2232  0.2094 -0.0953
14831W        W29962   5.900   1.474   2.861  0.3743  0.1479  0.3584
14832W        W29963   1.272   1.742  16.079 -0.1713  0.3312 -0.1905
14833W        W29964  17.038  10.550  14.161  0.0386 -0.0369  0.1199
14834W        W29965   0.090   9.456   0.821 -0.1038 -0.1640  0.2510
14835W        W29966  12.455   9.964  11.834 -0.3119 -0.0073  0.1153
14836W        W29967   4.648   4.809   0.662  0.0098 -0.1320  0.0173
14837W        W29968  13.302  13.810  15.520  0.0220  0.2268 -0.0077
14838W        W29969  10.308  13.929  13.860 -0.2377  0.3308  0.0425
14839W        W29970   8.748  15.356   2.418  0.2700 -0.0447 -0.1226
14840W        W29971  10.963   9.162   1.509  0.0914 -0.0730  0.0100
14841W        W29972   2.113  16.656  12.856 -0.2519 -0.2758 -0.0061
14842W        W29973  10.607   3.206   0.002  0.0918  0.2617 -0.0744
14843W        W29974   2.082   2.402  12.391 -0.0700 -0.0013  0.2800
14844W        W29975  10.422   2.426   3.449  0.0285 -0.1949 -0.2561
14845W        W29976   1.014   3.285   3.984  0.0273 -0.2835  0.1924
14846W        W29977   3.588   2.110  13.287  0.1325  0.0820 -0.0922
14847W        W29978  13.409   6.327   1.812  0.3786 -0.2750 -0.0061
14848W        W29979   2.609  17.735  14.379  0.3273 -0.1650 -0.1688
14849W        W29980  13.868  10.412  15.582 -0.2168  0.0112 -0.0368
14850W        W29981   7.270   9.385  13.060  0.3429  0.0680 -0.1735
14851W        W29982   2.548  10.032  15.786 -0.2128 -0.0085 -0.0370
14852W        W29983  10.928   9.796  12.268 -0.1415 -0.4147 -0.0033
14853W        W29984   0.427   7.483  11.505 -0.2324 -0.2534  0.0284
14854W        W29985  15.212   3.072  16.194 -0.3882 -0.2206  0.2449
14855W        W29986  13.267  15.878  13.018  0.0735  0.1994 -0.0393
14856W        W29987   3.098  15.187   3.648  0.2004  0.0917  0.0742
14857W        W29988  10.732   5.977   5.572  0.2531  0.2075 -0.0431
14858W        W29989   7.143   5.098   6.082 -0.3140  0.0818  0.0602
14859W        W29990   3.624   7.639   0.388  0.1359 -0.0855  0.0189
14860W        W29991   3.440   6.839  12.538 -0.1902 -0.0636  0.1867
14861W        W29992   7.752  17.943  11.395 -0.0833  0.2143  0.0162
14862W        W29993   1.197   8.647  15.014  0.1432  0.1063  0.0045
14863W        W29994  16.801   1.688   0.830  0.0050  0.2003  0.4914
14864W        W29995  16.213   3.305  16.128  0.0591 -0.1083  0.2787
14865W        W29996   0.990  14.728  13.420  0.3324  0.0408  0.0813
14866W        W29997   0.358  10.442   1.337 -0.4001 -0.3386 -0.1019
14867W        W29998  17.192   0.925  12.831  0.1034  0.4248 -0.1690
14868W        W29999   1.083  13.707   1.035 -0.0530  0.0952  0.1177
14869W        W30000   8.507  11.939   1.041  0.1324  0.0294  0.1701
14870W        W30001   4.174  13.001  14.953 -0.2112 -0.1314 -0.4291
14871W        W30002   0.561   9.519   1.492  0.0991 -0.2102  0.0726
14872W        W30003  13.664  13.332   5.653 -0.0350 -0.1566 -0.1540
14873W        W30004  10.539  17.951  14.402  0.2808  0.2398  0.1764
14874W        W30005   1.117   2.018   3.701  0.2833 -0.1852 -0.1800
14875W        W30006  17.892   5.500  12.474 -0.1934  0.3149 -0.0809
14876W        W30007  13.866   3.569  10.989  0.1218 -0.1068  0.2571
14877W        W30008  17.784  12.955  10.740  0.0398  0.0608  0.0794
14878W        W30009  17.382   1.914  14.228 -0.0601  0.1825  0.2157
14879W        W30010  10.327   0.593   1.287 -0.0710  0.4940 -0.0421
14880W        W30011   8.332   6.101  10.281  0.4435 -0.3457 -0.0630
14881W        W30012   8.595  12.265  12.229 -0.0252  0.0609  0.1358
14882W        W30013   3.991   9.713   1.941 -0.2493  0.0616  0.1267
14883W        W30014   1.092   8.810  12.190 -0.2536 -0.0650 -0.1473
14884W        W30015  14.837  16.313   4.488  0.0870  0.2623  0.1533
14885W        W30016  14.698   1.044  14.616  0.0434  0.0046 -0.0819
14886W        W30017   3.884  10.295  15.501 -0.2261  0.1698 -0.0020
14887W        W30018   1.911   5.771  15.339 -0.1929 -0.1733  0.0329
14888W        W30019   1.466   5.470  14.894 -0.2632 -0.0296 -0.2478
14889W        W30020   2.364   5.506   3.117  0.0225  0.0890  0.0046
14890W        W30021  14.507   2.322   3.591 -0.0552 -0.1524 -0.1811
14891W        W30022   9.184  17.933   2.572  0.2269 -0.1144 -0.2719
14892W        W30023  12.765   5.593  15.744 -0.4220  0.2133 -0.0239
14893W        W30024  13.865  17.699  13.561 -0.1006  0.3795  0.1435
14894W        W30025   7.350   0.771  12.298  0.2037  0.2156 -0.2095
14895W        W30026  17.439   2.425  12.570  0.2420 -0.0559 -0.2236
14896W        W30027   7.059  10.173   2.270 -0.2070 -0.0248  0.1575
14897W        W30028  15.527   1.415  13.264 -0.0781 -0.0485  0.0284
14898W        W30029   6.863   1.211  11.792 -0.0174 -0.1142 -0.1547
14899W        W30030   0.237  12.224   0.400 -0.0489  0.0795 -0.2995
14900W        W30031   4.864   6.017  16.147  0.3119 -0.1054 -0.1273
14901W        W30032  13.327   4.747  13.620 -0.2091 -0.1603  0.2824
14902W        W30033   3.068   9.337  15.620 -0.1688  0.0024  0.0294
14903W        W30034   3.531   0.005   1.884 -0.2023 -0.1856  0.2505
14904W        W30035   2.961  17.263   4.490 -0.2038  0.0498 -0.0557
14905W        W30036   7.399  17.875   1.653 -0.0582  0.1618  0.1895
14906W        W30037   7.895  13.292   3.158  0.1106  0.0332  0.1696
14907W        W30038   5.203  15.350  13.417 -0.0594 -0.0621 -0.2923
14908W        W30039  11.551  15.827  12.238  0.1002 -0.1358 -0.0159
14909W        W30040  14.496   3.839  13.570  0.3138  0.2632 -0.1419
14910W        W30041   4.653   6.543  11.870  0.2051 -0.0901 -0.0315
14911W        W30042  16.351   9.688   4.216  0.1127 -0.1616  0.0909
14912W        W30043   8.766  15.322  13.836  0.2909 -0.1079  0.0700
14913W        W30044   3.119   3.772  10.375  0.0955  0.2237  0.1702
14914W        W30045   2.933  12.584  12.833 -0.1601 -0.0787  0.1154
14915W        W30046   6.027  17.886   2.703  0.3798  0.2308  0.0160
14916W        W30047   2.608  11.222   1.875  0.1003 -0.2221  0.1767
14917W        W30048  12.553  13.497   6.019  0.0320 -0.1053 -0.4029
14918W        W30049   2.908   9.288  12.221  0.0699  0.1174 -0.2200
14919W        W30050   6.169  16.817  13.149  0.2990  0.1793 -0.1659
14920W        W30051   8.549   2.887   2.659 -0.2243  0.1663  0.1092
14921W        W30052   3.595  10.640   5.062 -0.0488 -0.0905 -0.0988
14922W        W30053  18.145  10.354  10.881 -0.0978 -0.3647 -0.1529
14923W        W30054   4.216   6.715   3.671 -0.0472 -0.3792 -0.1970
14924W        W30055  16.125   0.634   2.121  0.0296  0.0736 -0.1020
14925W        W30056  14.170  12.197   1.827  0.0011 -0.0017  0.0874
14926W        W30057  17.653   2.408  15.333  0.3463 -0.3066 -0.0873
14927W        W30058  14.970   4.799   1.466 -0.1803  0.0143 -0.0542
14928W        W30059   8.331   8.614  15.325 -0.0634 -0.1494 -0.1007
14929W        W30060  14.741   1.786   1.573  0.0755 -0.0463 -0.1821
14930W        W30061  10.107   1.324   0.712  0.3865 -0.1590  0.2305
14931W        W30062  17.683   5.887   1.213  0.2159  0.0922  0.0586
14932W        W30063   0.509   7.965   0.030  0.3286  0.1271  0.2805
14933W        W30064  15.155   5.187   6.279 -0.3183 -0.4613 -0.0934
14934W        W30065  17.253  17.670   2.718  0.2039 -0.0901  0.0657
14935W        W30066   8.064   2.898  12.960 -0.0467 -0.0695 -0.1682
14936W        W30067   0.523  16.445   2.759 -0.3308 -0.1049 -0.0328
14937W        W30068  16.432   4.191   1.009 -0.2579 -0.0056  0.1470
14938W        W30069   6.024   0.602   2.847 -0.2522  0.0690  0.0106
14939W        W30070  15.532  11.718  11.616  0.0030 -0.0688  0.1013
14940W        W30071  14.984   5.929  11.485  0.1299  0.0950 -0.0795
14941W        W30072   7.514   7.001   0.957  0.0978  0.4069  0.1263
14942W        W30073   8.330   9.794  16.136  0.3157 -0.3098  0.0142
14943W        W30074   4.322   8.611   3.401  0.2300 -0.1626 -0.0658
14944W        W30075   8.539  15.884  13.100 -0.0821 -0.4161 -0.1522
14945W        W30076  10.946  15.014  10.960  0.2454  0.1413 -0.0827
14946W        W30077   1.419   8.328   0.842 -0.1161 -0.0025  0.0456
14947W        W30078  17.212   3.576   1.838 -0.0155 -0.5069  0.0972
14948W        W30079  16.971  10.674   3.043  0.0202  0.0171  0.1338
14949W        W30080   6.508  14.347  15.776  0.2620  0.0856  0.1451
14950W        W30081   9.241   9.415   1.587 -0.2893  0.1798  0.0430
14951W        W30082  12.492  13.384   4.032  0.1437  0.0757  0.1656
14952W        W30083   8.851  13.172   0.602 -0.3603 -0.2958 -0.0923
14953W        W30084  10.208  16.593  13.072 -0.0163 -0.2279  0.0161
14954W        W30085   9.913  11.412  13.683  0.1364  0.0183 -0.4478
14955W        W30086   0.059  16.761   1.321  0.3521  0.2498 -0.0452
14956W        W30087   6.230  12.482   4.746 -0.2526  0.0129  0.2640
14957W        W30088  18.046  17.967  13.590  0.1899  0.1161  0.1962
14958W        W30089   0.724  12.868   2.303  0.2274  0.1602 -0.0602
14959W        W30090  17.824   5.049  13.913  0.0817  0.1127  0.4638
14960W        W30091  12.420  16.543   1.184 -0.0147  0.0723 -0.0310
14961W        W30092  15.664  11.365  13.044 -0.1371  0.3801  0.1195
14962W        W30093  17.818   2.081   5.007 -0.0882  0.0293  0.0132
14963W        W30094   5.935   1.113  15.623  0.0919  0.3084 -0.1906
14964W        W30095  15.763   5.384   3.323 -0.2364  0.1701 -0.3548
14965W        W30096   4.731  11.793   2.800 -0.1622  0.1658 -0.0868
14966W        W30097  14.618   9.658   4.677  0.0134  0.3199  0.5463
14967W        W30098   6.722   7.703  12.404 -0.2381 -0.3051 -0.0421
14968W        W30099   5.806  17.352  10.074  0.3274 -0.2555 -0.0281
14969W        W30100  17.973  10.965  14.889 -0.3905 -0.0963 -0.1448
14970W        W30101   9.109  16.556   2.145 -0.1588  0.0373  0.1462
14971W        W30102  17.452  11.710  14.817 -0.1282 -0.1287 -0.1430
14972W        W30103   2.451  15.598  15.296 -0.1511  0.1728  0.0184
14973W        W30104   9.159   8.716  14.897 -0.0616 -0.3195 -0.1396
14974W        W30105  10.419  15.859  14.336  0.1707  0.0318 -0.1675
14975W        W30106   0.319  16.397  14.649  0.1160  0.4218 -0.0763
14976W        W30107   7.032  14.046   3.150  0.2663 -0.2387 -0.1076
14977W        W30108  17.622  15.030  11.815  0.0260  0.2009 -0.1701
14978W        W30109   7.857  15.066   2.472  0.0337 -0.0966 -0.5717
14979W        W30110  16.629  12.271  11.129  0.1428  0.0516  0.1134
14980W        W30111  13.000  12.786  13.423 -0.1915 -0.0117 -0.0849
14981W        W30112  16.918   2.710   2.176 -0.1396  0.0379  0.3110
14982W        W30113   5.538   4.350  12.726 -0.0567  0.1164 -0.3197
14983W        W30114  16.460   4.958   3.065  0.1795 -0.1374 -0.0811
14984W        W30115   3.356  12.110   2.104 -0.2456  0.1421 -0.0785
14985W        W30116  10.706   2.249   6.300 -0.2477 -0.2563 -0.2563
14986W        W30117   9.747   9.862  15.139 -0.2693  0.0321  0.1172
14987W        W30118  14.953  15.194  14.296 -0.1675  0.0132  0.2296
14988W        W30119  12.078  11.082   5.400  0.1443  0.1075  0.0626
14989W        W30120  17.090   7.495   3.423  0.3393 -0.1079 -0.0302
14990W        W30121   4.310   5.080   1.139  0.1218 -0.3109 -0.1216
14991W        W30122   5.552  14.939   3.378  0.1216  0.0879 -0.1392
14992W        W30123  13.830  12.807   4.990 -0.0257 -0.3719 -0.1831
14993W        W30124   5.811   5.667   4.600  0.1647 -0.0405  0.2378
14994W        W30125  13.273   4.406  14.435 -0.1525  0.3026  0.2408
14995W        W30126   0.802   1.666  13.987 -0.1596  0.0358  0.2461
14996W        W30127  13.102   0.277   6.501 -0.0356  0.0269  0.1242
14997W        W30128  13.135   2.789  11.627 -0.0970 -0.0429 -0.0960
14998W        W30129  16.257   3.402  10.883  0.0891 -0.1486  0.0906
14999W        W30130   1.059  13.166   1.092 -0.0165  0.0146  0.1211
15000W        W30131   0.563   6.681  15.315 -0.2352  0.0093  0.0189
15001W        W30132  16.471  17.270   1.988  0.0893 -0.1886 -0.0652
15002W        W30133  13.979   9.848   1.453  0.4625 -0.0232 -0.0210
15003W        W30134   9.082  18.065  11.925 -0.1316  0.2817 -0.0281
15004W        W30135   1.335   2.262  15.925  0.0473  0.1547 -0.1361
15005W        W30136   3.767   2.745  11.502 -0.0031 -0.0751 -0.0212
15006W        W30137   8.358  10.263   4.627  0.1502  0.1735  0.0448
15007W        W30138   6.890   5.296   5.291  0.2481 -0.2076 -0.1506
15008W        W30139   8.190   3.489   1.371  0.2585 -0.0517 -0.2829
15009W        W30140   0.844  13.788   2.901  0.1153 -0.0108  0.0377
15010W        W30141   9.818   6.938   3.324 -0.1753  0.2107 -0.0095
15011W        W30142   7.732   9.873  13.691 -0.2148 -0.0317  0.0771
15012W        W30143   9.891   9.086  11.667  0.0189 -0.1428 -0.2451
15013W        W30144  12.241   6.209   1.282 -0.0685 -0.2248 -0.2697
15014W        W30145   1.477  11.058  12.060  0.0887 -0.2628  0.1378
15015W        W30146   4.793  14.561  16.236 -0.1630  0.0954  0.0768
15016W        W30147   8.140   6.302   3.470  0.0217  0.1173  0.0737
15017W        W30148  12.309   3.982  12.282  0.0911  0.0110 -0.2303
15018W        W30149  13.575   9.605  12.913  0.3110 -0.0137 -0.1046
15019W        W30150  16.926  10.384   5.335  0.2552  0.3217 -0.3589
15020W        W30151   5.783   0.177   2.559  0.2898  0.1435  0.1671
15021W        W30152   7.516   1.517  12.676 -0.1873  0.2627  0.1353
15022W        W30153   7.210  13.633   0.830 -0.1430 -0.0320  0.2034
15023W        W30154   4.253  12.882   1.872 -0.0253 -0.1711  0.2271
15024W        W30155  16.228  14.057   2.953  0.1447 -0.1414  0.0969
15025W        W30156   4.378  16.036  11.013  0.1659  0.0547  0.1731
15026W        W30157   8.692   3.398   2.616 -0.0799  0.2605 -0.0598
15027W        W30158   4.224  15.979  14.084  0.1353 -0.3516 -0.2460
15028W        W30159  11.967   5.045   4.089 -0.0264  0.4067 -0.0650
15029W        W30160   9.351   3.327   3.516  0.0327 -0.1434  0.2786
15030W        W30161   1.434   1.161  15.303 -0.1343 -0.1487 -0.3413
15031W        W30162  10.023  14.743  12.427  0.1369 -0.0013  0.0996
15032W        W30163   2.390  12.942  14.494 -0.0156  0.0149 -0.1475
15033W        W30164  10.623   8.607  12.750 -0.1519 -0.1511  0.0077
15034W        W30165   6.772  17.229   3.851  0.0488 -0.0677 -0.0288
15035W        W30166   0.743   6.709  10.687  0.0324 -0.0004 -0.2770
15036W        W30167   4.110   9.467   0.873  0.0114 -0.1244 -0.0411
15037W        W30168  14.240   3.873   5.428  0.1389 -0.1574 -0.1117
15038W        W30169   0.963   0.315   4.881  0.0788  0.1119 -0.0149
15039W        W30170   8.644  10.977   3.862 -0.0522 -0.0654 -0.1259
15040W        W30171   8.389  13.840   4.370 -0.2940 -0.0038  0.0418
15041W        W30172  17.828  15.844   1.962  0.1567  0.0512  0.1182
15042W        W30173  12.561  14.340   0.465 -0.2594 -0.1506  0.0849
15043W        W30174   9.828   3.078   5.382 -0.1324  0.1304 -0.2373
15044W        W30175   7.399   0.444  10.247  0.1371  0.2073 -0.1672
15045W        W30176  15.044   8.262   6.529  0.1298 -0.0873  0.3519
15046W        W30177   0.376  16.744  14.246 -0.0580 -0.1551 -0.2894
15047W        W30178   7.180  15.396   2.229 -0.0123  0.2870  0.1128
15048W        W30179  12.508   2.842   5.325 -0.3166 -0.2034 -0.0906
15049W        W30180   7.543  11.820   2.999  0.0208  0.1263 -0.0637
15050W        W30181   7.359  12.158  11.262  0.3142  0.1419 -0.0646
15051W        W30182   1.704  16.039  15.243 -0.1424 -0.0199 -0.0176
15052W        W30183   0.666  14.351   5.496  0.0157 -0.0353 -0.0953
15053W        W30184  16.829   8.562   5.401 -0.2436  0.2211 -0.1100
15054W        W30185   4.634  10.637   3.821  0.1202 -0.1289 -0.1644
15055W        W30186   1.833   1.046   2.880 -0.0149  0.0426 -0.1406
15056W        W30187   3.459  11.553  12.865 -0.1426  0.0216 -0.1809
15057W        W30188   0.084  15.344  14.860 -0.2458  0.1121  0.1307
15058W        W30189   7.582   9.005   0.823  0.0731  0.4894 -0.1501
15059W        W30190  17.036   7.552  15.630  0.1306 -0.2800 -0.2194
15060W        W30191  15.493  10.819   4.685 -0.2113 -0.0210 -0.0032
15061W        W30192   0.635   8.126   3.113  0.0976 -0.1680 -0.1207
15062W        W30193   3.917  13.998   5.322  0.2305  0.0789 -0.0654
15063W        W30194   0.151   9.248  12.280  0.1479 -0.1105  0.2360
15064W        W30195  13.335   5.970   2.721  0.0670 -0.0002 -0.1088
15065W        W30196   9.106  17.027   0.998 -0.2907 -0.0821 -0.1362
15066W        W30197   8.017  10.437   5.171  0.0320 -0.0659  0.1390
15067W        W30198   8.987   5.880  13.212  0.1258  0.1026 -0.2250
15068W        W30199  11.064   7.559   0.375  0.2279  0.1529  0.1166
15069W        W30200   9.785  15.471  15.876  0.1451  0.2218 -0.1032
15070W        W30201   2.645   9.585  11.497  0.0577  0.3823  0.1140
15071W        W30202  11.424   2.480   2.624 -0.1951 -0.0231 -0.1545
15072W        W30203   0.764  12.912   3.670  0.0918  0.0567  0.0412
15073W        W30204  17.965   2.611  13.904  0.1159 -0.3087 -0.2332
15074W        W30205  12.645   9.419   1.671 -0.1264  0.1954  0.2717
15075W        W30206  15.159  15.047   3.757  0.2598  0.0259 -0.0945
15076W        W30207  17.093   2.970   2.586  0.1067  0.3167  0.1900
15077W        W30208  17.246   5.415   5.658 -0.1525 -0.0546 -0.0219
15078W        W30209   5.445   9.362  11.711 -0.1014  0.0539 -0.1535
15079W        W30210   0.345   3.739   4.274 -0.2824 -0.5123 -0.0624
15080W        W30211   4.719   3.951  10.623  0.1188 -0.0113 -0.1172
15081W        W30212   3.871  10.734   4.136 -0.2116 -0.1761  0.0692
15082W        W30213  13.613  17.182  15.069 -0.1790  0.3216  0.0411
15083W        W30214  13.162  17.980   2.840  0.1794 -0.0088 -0.0444
15084W        W30215  12.262   2.315  12.972 -0.1141  0.4306  0.0962
15085W        W30216  13.502  15.127  11.144 -0.1388  0.1994  0.1929
15086W        W30217   5.207   4.148   1.353  0.3312 -0.0642 -0.1929
15087W        W30218   4.285  10.598   4.368  0.1556  0.1179 -0.2643
15088W        W30219  10.482   1.217  14.628  0.0264 -0.1522 -0.2216
15089W        W30220   5.607  11.388   0.891  0.1940  0.0330 -0.0750
15090W        W30221  16.838   6.199   4.077 -0.1962  0.0320  0.0340
15091W        W30222  13.574   6.400   4.533  0.0804 -0.1806 -0.0590
15092W        W30223   9.855  12.855  14.473 -0.2452  0.1076 -0.3134
15093W        W30224   0.630   5.691  13.268  0.0193  0.0119  0.0189
15094W        W30225  17.890   3.672  12.502 -0.2886 -0.0853 -0.0147
15095W        W30226  16.891   3.269  11.386 -0.1101  0.2747  0.2718
15096W        W30227  16.508   8.300   0.551 -0.0786 -0.0319  0.0650
15097W        W30228  15.373   7.794   5.213  0.0678  0.0168 -0.0760
15098W        W30229   1.455   6.065   1.534  0.1101  0.1318 -0.4254
15099W        W30230  10.044  16.527   5.746  0.1073  0.1767 -0.0264
15100W        W30231   7.930  18.152  14.644  0.0884  0.1252  0.0735
15101W        W30232   7.504   1.816  13.768 -0.3322 -0.1115  0.1236
15102W        W30233   7.048  10.110   0.977 -0.2731  0.2004  0.0675
15103W        W30234  18.039  10.253   5.734  0.1656  0.1345 -0.0464
15104W        W30235   8.996   8.508  13.469 -0.2456 -0.3947  0.0181
15105W        W30236   8.971   0.270  11.177 -0.4408  0.0864 -0.1229
15106W        W30237   1.876   4.518  13.880  0.0723  0.3925  0.0523
15107W        W30238   6.972  17.255   5.684  0.0573  0.0533 -0.0651
15108W        W30239  17.270   0.024  13.619  0.2172  0.0419 -0.0061
15109W        W30240   0.700   1.584  15.962  0.4641  0.0233  0.2470
15110W        W30241  12.796  12.328   0.586 -0.1236  0.1589 -0.1600
15111W        W30242   3.842   8.003  11.820  0.2340  0.3050  0.2232
15112W        W30243  17.323   8.233  11.210  0.3073  0.0768  0.0919
15113W        W30244  14.958  14.083   1.160 -0.4927  0.1654  0.0471
15114W        W30245   8.455   0.491  11.237 -0.0253  0.1067  0.1563
15115W        W30246  10.721   0.851   5.644  0.3529 -0.3497  0.0999
15116W        W30247   9.232  16.883  13.183  0.1809 -0.0736  0.2607
15117W        W30248   9.760   7.709   2.276 -0.0364 -0.0808  0.0624
15118W        W30249   7.537   2.400  15.179 -0.1287  0.0056  0.0914
15119W        W30250   7.344   2.702  10.451 -0.0143 -0.0017  0.1591
15120W        W30251   9.055  10.101   1.574  0.1591 -0.3231 -0.2366
15121W        W30252   5.266  16.148   4.336  0.0661 -0.3428  0.0292
15122W        W30253  11.618   3.833  14.532  0.2237  0.1925 -0.3939
15123W        W30254   7.648  13.237  12.090 -0.2028  0.2555 -0.2413
15124W        W30255   5.321   2.715   3.814 -0.0950 -0.1938 -0.0145
15125W        W30256   3.105   6.302   0.319  0.1865 -0.0593 -0.4019
15126W        W30257  12.096  15.140   0.407  0.0288 -0.3104 -0.0817
15127W        W30258   8.041  12.306  14.017 -0.3207  0.0892 -0.4146
15128W        W30259   8.270   2.384   1.175  0.0632 -0.0735  0.0488
15129W        W30260   1.469   2.017   0.641  0.0072 -0.2045  0.0382
15130W        W30261   8.832   7.892  11.398  0.1913  0.0794 -0.3551
15131W        W30262  14.131  16.360  16.183  0.0794 -0.0382  0.0750
15132W        W30263   7.189  15.333  12.765 -0.1514 -0.0116  0.0305
15133W        W30264   2.739   8.255  15.786  0.1882 -0.0019  0.2511
15134W        W30265   2.966   4.592  10.845 -0.0728  0.2579  0.0262
15135W        W30266  11.171   4.244   2.386  0.1657  0.0608 -0.1683
15136W        W30267   4.200  14.431  12.563  0.0636  0.0263 -0.1126
15137W        W30268   0.312   1.461   4.203  0.0034  0.0083 -0.1233
15138W        W30269  15.185   8.613  15.241  0.2448  0.1775  0.1972
15139W        W30270  14.653   9.811   5.217 -0.0326 -0.0742 -0.3142
15140W        W30271   1.827   0.683  13.823 -0.2359 -0.0301  0.1276
15141W        W30272  12.566  12.002  11.362  0.1232 -0.2238  0.0729
15142W        W30273  11.589   5.015   5.129  0.3309 -0.0014 -0.2285
15143W        W30274   9.784  13.651  14.964  0.2882  0.1276  0.0790
15144W        W30275   4.136   0.855  12.907  0.1834  0.1129  0.0583
15145W        W30276   0.090  17.751  15.462  0.0703  0.0115  0.1307
15146W        W30277   7.243   9.706   5.206 -0.1725  0.3133  0.2570
15147W        W30278   8.716   6.694   2.489  0.0313  0.0243  0.0705
15148W        W30279   8.135   9.615  11.766 -0.1530 -0.0722  0.0213
15149W        W30280  17.425   9.023  15.167  0.0228 -0.2207 -0.0118
15150W        W30281  11.132  11.004   2.629 -0.0736  0.0772  0.2433
15151W        W30282   3.082  14.963  13.689  0.0614 -0.0344  0.0681
15152W        W30283   5.881  17.584  11.556  0.1014  0.0863  0.0233
15153W        W30284  14.113   9.807  13.802  0.1686  0.1269 -0.0109
15154W        W30285   9.049   3.992  14.212 -0.1207 -0.4464 -0.3210
15155W        W30286  14.154  10.324  10.025  0.1729 -0.0677  0.1156
15156W        W30287   1.338  10.960  14.028  0.5189 -0.3807 -0.0768
15157W        W30288   8.728   2.626  15.192  0.1084  0.1209 -0.1818
15158W        W30289   0.658  11.009  12.626 -0.0310  0.2108  0.2655
15159W        W30290  10.814   9.727  12.755 -0.1557 -0.1111  0.1751
15160W        W30291   5.932   7.266   2.528  0.0767  0.0465  0.1527
15161W        W30292   7.277  15.511  13.396  0.5736  0.1513 -0.2579
15162W        W30293   8.695   1.031  14.346 -0.1752 -0.2399 -0.0231
15163W        W30294   1.365  13.924  13.932  0.3596 -0.0888 -0.0111
15164W        W30295   8.727  15.407   0.535 -0.3412 -0.0043 -0.0237
15165W        W30296   8.527   7.085  12.850 -0.0727  0.0302 -0.1890
15166W        W30297   1.092   0.843  13.156  0.0495  0.0639  0.3970
15167W        W30298   7.636   5.938  11.207 -0.1751 -0.1515 -0.1347
15168W        W30299   5.338  12.427   4.118  0.1765 -0.3583  0.0404
15169W        W30300   3.222   0.580   1.277  0.0678 -0.0459 -0.7199
15170W        W30301  16.017   5.051  15.341  0.0241 -0.0290  0.3046
15171W        W30302  15.299   6.056  13.557  0.1813 -0.0474  0.0996
15172W        W30303   7.757   3.279  16.065 -0.0868 -0.2426  0.0256
15173W        W30304   2.301   0.803  15.332  0.1254 -0.0110 -0.0054
15174W        W30305   7.262  12.415   3.798  0.3401 -0.2792 -0.1756
15175W        W30306   9.313   3.265   3.001  0.1815 -0.0433  0.3132
15176W        W30307   6.241  12.337  14.564 -0.3153 -0.2232 -0.0899
15177W        W30308  11.468   9.283   2.463 -0.1105  0.2385  0.0778
15178W        W30309  15.352   3.829  15.406  0.1099 -0.1202 -0.1841
15179W        W30310  10.947   2.993  11.387 -0.1348 -0.0391 -0.1758
15180W        W30311  17.178   8.127   5.563  0.1698 -0.1428  0.3103
15181W        W30312  11.544  12.434  16.126  0.0844 -0.1780  0.0035
15182W        W30313   0.705   1.116  14.719  0.0165  0.0377 -0.0663
15183W        W30314  11.522  15.783   0.055  0.3694  0.1092 -0.0860
15184W        W30315  13.379   4.600  13.102 -0.1123 -0.0860  0.0142
15185W        W30316   8.732   0.314  12.470  0.2611 -0.2060  0.1288
15186W        W30317  12.223  17.957   5.029  0.1690 -0.0539  0.1336
15187W        W30318   4.232  16.593  13.537  0.1960 -0.1918 -0.4314
15188W        W30319   5.732  12.974   9.644 -0.2867 -0.3521 -0.2097
15189W        W30320   0.438  12.511   2.212  0.0815 -0.0410  0.2021
15190W        W30321   5.879  15.310   4.123 -0.0071 -0.1249  0.1000
15191W        W30322  18.085   3.106   3.466  0.2308 -0.1132  0.1490
15192W        W30323  12.528   4.565   3.570  0.2019 -0.0151  0.2021
15193W        W30324   7.453   9.816   3.509  0.0008  0.2366  0.0324
15194W        W30325   6.871   9.277  13.456 -0.1374 -0.2074  0.1670
15195W        W30326  15.232   7.176  11.686 -0.3034  0.0647 -0.1617
15196W        W30327   8.205   4.863  15.374 -0.1615 -0.0851 -0.1835
15197W        W30328  17.003   3.874   4.065 -0.3501  0.3236 -0.1075
15198W        W30329   4.570  17.740  14.649  0.0395 -0.4046 -0.0646
15199W        W30330   7.341   3.161   0.533  0.0753  0.3907 -0.2666
15200W        W30331  18.149   7.509   3.174 -0.2625 -0.2318 -0.3274
15201W        W30332  14.033   3.929  16.086  0.0813  0.1312 -0.0377
15202W        W30333  17.285  15.261   0.847 -0.0314  0.1058  0.2667
15203W        W30334   1.710  13.654  12.117  0.0698  0.0472  0.0318
15204W        W30335  14.115   9.842   5.578  0.2705  0.1062 -0.1273
15205W        W30336   7.105   7.137   5.321 -0.0008  0.2514 -0.2301
15206W        W30337  18.074  12.766   1.045 -0.3489  0.0023  0.1188
15207W        W30338  14.299   8.987   0.426 -0.2038 -0.4474 -0.1111
15208W        W30339  14.535   9.438  10.997  0.1015  0.0861  0.1328
15209W        W30340   4.047  15.046  11.849 -0.2076  0.1115  0.2295
15210W        W30341   5.546  10.446   3.971 -0.0834  0.1311  0.0212
15211W        W30342  17.784   4.858   4.627  0.0273 -0.1575 -0.1755
15212W        W30343  12.624   8.119   2.670 -0.0017  0.0138 -0.0567
15213W        W30344  17.013   5.432   1.867 -0.1756  0.1225  0.0199
15214W        W30345  17.571  14.575   0.483 -0.2389  0.2741 -0.2361
15215W        W30346  12.554   3.649  14.516 -0.1797 -0.3809  0.2285
15216W        W30347   8.951  12.225   0.911 -0.2711 -0.1293 -0.0093
15217W        W30348  15.500  16.410  12.625 -0.1418 -0.0408 -0.1050
15218W        W30349  11.146  18.157   0.182  0.0042 -0.0289  0.0683
15219W        W30350   4.191  11.280   2.369 -0.3316  0.0057 -0.0061
15220W        W30351   2.347   9.729   3.181  0.1289  0.0804  0.0581
15221W        W30352  13.952   7.328   2.982  0.0437 -0.1050 -0.1178
15222W        W30353  11.144   7.885  11.457  0.2168 -0.1495  0.0536
15223W        W30354  16.591  15.116  13.560 -0.1543 -0.1525 -0.3328
15224W        W30355  15.255  12.408   0.099  0.0162  0.2185  0.2308
15225W        W30356   5.232   6.164   5.384 -0.0235 -0.1289 -0.1687
15226W        W30357   3.626   4.457  12.079 -0.1222  0.0385  0.2241
15227W        W30358   1.840  17.285  13.569 -0.2464 -0.1596  0.3421
15228W        W30359   7.934   8.589   4.602  0.1948 -0.3028  0.1656
15229W        W30360   4.174  14.213   6.159 -0.1648  0.1309 -0.2427
15230W        W30361   5.419   1.449   3.064  0.3432  0.2659 -0.0103
15231W        W30362   3.719   5.861  12.499  0.1440 -0.4762 -0.1508
15232W        W30363   6.482  13.101   5.567  0.4065  0.1665 -0.0832
15233W        W30364   9.774  16.165   4.815 -0.0559 -0.2662  0.3020
15234W        W30365   2.325   0.696   0.815 -0.0937 -0.1961  0.1867
15235W        W30366   3.035  16.065   0.269 -0.1767  0.0904 -0.1129
15236W        W30367  17.259   4.100   1.708  0.1658 -0.2805 -0.0717
15237W        W30368   4.326  17.098  12.755 -0.0210 -0.0960 -0.0405
15238W        W30369  15.254  10.298   3.512  0.0236  0.0747  0.0363
15239W        W30370   7.716   8.018   1.020  0.0212  0.2930  0.1537
15240W        W30371  14.503  12.333   3.974  0.0287 -0.0796 -0.1521
15241W        W30372   0.808   3.168  14.308  0.1452 -0.0653 -0.0496
15242W        W30373   8.667  14.576   2.483  0.0357  0.0550 -0.1131
15243W        W30374  11.690   4.008  13.608 -0.0365  0.2252  0.1130
15244W        W30375   2.833   4.298   4.094  0.3201 -0.0183 -0.2477
15245W        W30376   9.173   3.796   3.246 -0.2015 -0.4502 -0.0335
15246W        W30377  10.562   1.522   0.686 -0.0009 -0.1974  0.0409
15247W        W30378  17.092   0.280   3.531 -0.1748  0.2100  0.1070
15248W        W30379  17.327  13.470   1.998 -0.1116 -0.1102  0.0276
15249W        W30380  15.106   7.855   4.183  0.0911 -0.0661  0.1679
15250W        W30381   0.947   1.654   0.202 -0.0441 -0.0845 -0.0275
15251W        W30382  12.385   3.576  15.809 -0.1591  0.0254 -0.0207
15252W        W30383  11.495  18.097   4.764 -0.2092 -0.0336 -0.0466
15253W        W30384  12.717  12.656   1.716 -0.1478 -0.0150 -0.2544
15254W        W30385  13.480  16.989   5.622 -0.0044 -0.0019 -0.0086
15255W        W30386   8.963   1.318   4.862  0.3528 -0.1661  0.2267
15256W        W30387  10.963   2.807  13.268 -0.1475 -0.0075 -0.1453
15257W        W30388   6.094  11.586   3.303 -0.0635  0.0754  0.0689
15258W        W30389  17.790   2.469   2.824 -0.0453  0.1122  0.1470
15259W        W30390   0.806   6.749   3.632 -0.1883 -0.1581  0.4096
15260W        W30391  17.209  10.501   1.110  0.0325  0.0230  0.2539
15261W        W30392  15.035  14.857   0.449  0.1027  0.4122  0.0082
15262W        W30393  17.125   6.146  13.856  0.0082 -0.1231  0.0154
15263W        W30394   5.254  10.009   5.046  0.2495 -0.2871  0.0021
15264W        W30395  14.087  16.384  15.451 -0.1250  0.0942 -0.1219
15265W        W30396   5.511   5.530   3.677 -0.2877  0.0009  0.0414
15266W        W30397   2.111   2.711   4.476 -0.0146  0.2224  0.2641
15267W        W30398   2.690   1.868  15.011  0.3199 -0.2980  0.4165
15268W        W30399   8.036   9.862   0.753 -0.1287 -0.0728  0.1489
15269W        W30400   3.077   8.512   3.479 -0.0062 -0.0578  0.0142
15270W        W30401  12.093  14.196   1.354 -0.1830 -0.0669 -0.0352
15271W        W30402   3.234   4.647   0.514 -0.0263  0.2041 -0.2398
15272W        W30403   2.070  12.265  13.126  0.2351 -0.0082 -0.0924
15273W        W30404  16.352   6.019  12.374  0.0657  0.1414  0.1020
15274W        W30405  15.978   4.188   1.314 -0.4077  0.0075  0.4996
15275W        W30406  11.458   3.782  10.831 -0.0523 -0.1902  0.1703
15276W        W30407  17.969  15.023   4.022 -0.1565 -0.2610  0.0491
15277W        W30408   1.029   8.217   4.842 -0.1023  0.0861 -0.0204
15278W        W30409  16.927   3.381   3.986 -0.2498  0.1984 -0.2256
15279W        W30410   3.612   4.185   1.986 -0.0442 -0.0675  0.1187
15280W        W30411  13.299   1.428  13.713 -0.2658 -0.1209  0.0784
15281W        W30412   8.353   8.907  10.691  0.3790 -0.3966 -0.3076
15282W        W30413   9.914   7.211  15.093 -0.0287 -0.1356 -0.0443
15283W        W30414  17.582   2.644  11.775  0.0059  0.0954 -0.0928
15284W        W30415   2.683   0.361  11.214  0.0289 -0.2012  0.0922
15285W        W30416   3.976  15.296  11.391  0.0203  0.1999  0.3045
15286W        W30417   4.150  11.292  14.672 -0.0246  0.1569  0.1824
15287W        W30418   3.531  11.725   4.235  0.0980 -0.0917 -0.0235
15288W        W30419   8.429  10.910  16.074 -0.1682  0.0788  0.1036
15289W        W30420   6.923   7.023  11.660  0.0926 -0.1179 -0.0630
15290W        W30421   7.400  10.119   0.057 -0.0503 -0.1176  0.2906
15291W        W30422  11.122  10.168  14.134 -0.0372 -0.1381 -0.0271
15292W        W30423   8.136  12.938   2.689  0.1045 -0.1395  0.0860
15293W        W30424  15.759   0.922   1.237  0.1066  0.2481 -0.1633
15294W        W30425   2.401  16.148   2.240 -0.1742 -0.0126  0.1887
15295W        W30426  11.941   4.911  12.697 -0.0456  0.0152 -0.0859
15296W        W30427  13.448   0.731   0.418 -0.2432  0.0984 -0.0713
15297W        W30428  12.243  11.793   4.756 -0.1011  0.1125 -0.0344
15298W        W30429   0.853   8.817  13.537  0.1303 -0.2158  0.2502
15299W        W30430  14.463   9.859  12.384 -0.1131 -0.0080  0.2093
15300W        W30431  11.370   1.061  11.679  0.0598 -0.1352 -0.0230
15301W        W30432   0.155   1.596  12.941  0.2794 -0.1983  0.0536
15302W        W30433   8.702  12.567   5.957 -0.0769  0.0061  0.0352
15303W        W30434   7.638   3.096   3.596 -0.0088  0.2227 -0.0944
15304W        W30435   2.207   3.972  11.118 -0.3837 -0.3507 -0.3231
15305W        W30436  12.458  15.089  12.109 -0.0451 -0.2058  0.2014
15306W        W30437   2.950  11.411   1.568 -0.1537 -0.0769  0.0979
15307W        W30438   3.425  16.285   3.063 -0.1633 -0.0477  0.1667
15308W        W30439   9.310   1.832   4.160  0.0966 -0.0634  0.2347
15309W        W30440  12.570  11.051   5.289  0.1243  0.0033  0.0749
15310W        W30441  13.897   2.110  11.996  0.1514  0.2508  0.2790
15311W        W30442   8.766  14.180  12.462 -0.3049 -0.0830 -0.0697
15312W        W30443   3.283   1.414  15.488 -0.2216  0.1561 -0.3253
15313W        W30444  11.616   4.875   3.447 -0.0304 -0.0644  0.0465
15314W        W30445  13.514  12.673  16.125  0.3576  0.1698  0.1138
15315W        W30446   7.128   2.870   3.501 -0.4421  0.0505  0.2051
15316W        W30447   6.910   3.210  10.748 -0.2167  0.2259  0.2562
15317W        W30448  16.589  15.701  10.877  0.0329  0.0083 -0.3677
15318W        W30449   5.515  15.670   2.540  0.1297 -0.0103 -0.2153
15319W        W30450  12.190  16.940   0.369 -0.2139 -0.1496 -0.0003
15320W        W30451   7.308   8.164  15.372 -0.0680 -0.3762  0.2661
15321W        W30452   6.880   3.727   2.380  0.1351 -0.1506  0.1969
15322W        W30453  10.233  12.549  14.214  0.1660 -0.3043 -0.2321
15323W        W30454  17.130  14.840   0.496  0.1432 -0.2850 -0.2156
15324W        W30455  10.739   9.560  11.599  0.2756 -0.2276 -0.1465
15325W        W30456  16.332   1.903  13.498  0.1497  0.0744  0.0608
15326W        W30457  11.588   7.995   3.801  0.1757 -0.1567  0.0658
15327W        W30458  15.368   0.243   4.466  0.1922 -0.0121  0.0216
15328W        W30459  11.097   1.325  11.294 -0.0465  0.0476 -0.1683
15329W        W30460   7.555   9.513  12.704 -0.0696  0.0404 -0.0256
15330W        W30461   3.629   5.534  14.687 -0.0970  0.0009  0.0663
15331W        W30462  17.936   2.841   2.329 -0.2689 -0.2493  0.0487
15332W        W30463  16.922  16.238  11.562 -0.2394  0.2332 -0.0471
15333W        W30464  16.985  16.207   6.175  0.3005 -0.2590 -0.3058
15334W        W30465   8.993   0.605   4.715  0.2088 -0.0760  0.0913
15335W        W30466   8.641  15.757   1.995  0.1609  0.1258  0.0836
15336W        W30467   2.607   7.755  13.984 -0.1862 -0.0391 -0.1626
15337W        W30468   5.028   5.823   4.734  0.1867 -0.1219 -0.0678
15338W        W30469   8.353  10.667   3.474 -0.0879 -0.0511  0.2155
15339W        W30470  13.770  11.061   0.640  0.1328 -0.0658  0.1153
15340W        W30471   7.205   8.729   2.531  0.2372  0.1784 -0.0750
15341W        W30472   7.845  10.472  11.320 -0.2642 -0.2396 -0.1208
15342W        W30473  12.228  10.819   5.016 -0.4674 -0.1114  0.1731
15343W        W30474  14.831  16.998   4.001 -0.0461 -0.0501  0.0226
15344W        W30475   7.349  14.106   0.587  0.2140  0.1112  0.0187
15345W        W30476  15.535  17.019   5.549 -0.1515  0.0246 -0.2874
15346W        W30477   4.107  13.864   5.756  0.0687 -0.0206 -0.2715
15347W        W30478  15.916  15.913  14.156 -0.0107  0.0787 -0.1350
15348W        W30479  17.185   4.889   1.017 -0.1477  0.0708  0.0718
15349W        W30480  16.889   6.559   0.733  0.0056  0.0677 -0.0910
15350W        W30481  12.259  14.044  12.980 -0.1357  0.1342 -0.1736
15351W        W30482   4.171   1.284  13.944 -0.1198  0.0655 -0.1053
15352W        W30483   5.790   6.258   5.336  0.0998 -0.1004  0.3696
15353W        W30484   5.285  12.274  11.199 -0.0071 -0.1209 -0.1331
15354W        W30485   2.800   0.876  12.553  0.0353  0.3066  0.1790
15355W        W30486   3.211  16.603   3.379 -0.1529 -0.0456  0.1506
15356W        W30487   4.179  14.668  13.866  0.1026  0.3678 -0.1984
15357W        W30488  13.571  11.212  12.229 -0.1148 -0.1220 -0.0151
15358W        W30489   4.303   6.637   1.774  0.0106 -0.1998 -0.0539
15359W        W30490   2.293  11.216   0.773 -0.0097  0.0671  0.0348
15360W        W30491  16.323  16.276  14.306  0.0179  0.2127 -0.1762
15361W        W30492  12.102  10.226   0.497 -0.2363 -0.0515 -0.2527
15362W        W30493  11.791  12.643  15.223 -0.1523 -0.1931  0.2893
15363W        W30494  14.425   7.745  11.282  0.1252 -0.0884  0.1617
15364W        W30495  12.253  13.521  15.919  0.1372  0.2339  0.1569
15365W        W30496   3.288  15.325   2.985  0.2480  0.0831  0.0238
15366W        W30497   1.816  11.292   5.067  0.2295 -0.0612  0.2158
15367W        W30498  16.093   8.495   3.863 -0.2095  0.1103 -0.0756
15368W        W30499  12.885   7.208  16.209  0.0487  0.1635 -0.1719
15369W        W30500   4.884   2.892  11.657 -0.2656 -0.0125  0.0452
15370W        W30501   5.151   8.652  11.728 -0.2149  0.1427  0.1273
15371W        W30502  14.931  10.690  12.933  0.1564 -0.1284  0.1134
15372W        W30503   0.805   0.387   3.929  0.1277 -0.0554  0.2778
15373W        W30504  14.153   0.601   1.590  0.1411  0.0458  0.0759
15374W        W30505   0.795  14.969   4.114 -0.1733  0.0240 -0.2836
15375W        W30506   1.302  12.481  13.775 -0.1341 -0.0903  0.0059
15376W        W30507   9.625   5.372  15.041  0.1250  0.1985  0.1344
15377W        W30508  15.515   8.511  10.773  0.1989  0.3286 -0.1554
15378W        W30509  10.394   6.237   0.887  0.2122  0.1772 -0.0336
15379W        W30510  10.219  12.181  11.519  0.1546 -0.0700 -0.1702
15380W        W30511   9.795  10.769  13.167  0.1763 -0.3241 -0.1128
15381W        W30512   3.662   5.684  13.591 -0.0675  0.2094  0.1568
15382W        W30513   9.258  14.450   0.411 -0.1986  0.3064 -0.3192
15383W        W30514  11.720   5.195   0.286  0.0528 -0.0730  0.1166
15384W        W30515  12.397   8.347   0.851  0.0187 -0.0358  0.0721
15385W        W30516   1.628  17.343   0.664 -0.0861  0.0922 -0.1427
15386W        W30517  15.370  12.366  10.706 -0.1503  0.2124 -0.1510
15387W        W30518  14.635   6.201  12.849 -0.2605  0.1770 -0.2099
15388W        W30519   8.471  10.438   5.520 -0.1602 -0.0116  0.1612
15389W        W30520   7.519  12.496  14.144  0.0248  0.2335  0.1114
15390W        W30521   2.372   6.464   3.206 -0.1372 -0.2623  0.0040
15391W        W30522  16.234  14.746  11.002  0.2397 -0.1110 -0.1131
15392W        W30523   2.644   1.770  12.438 -0.2569 -0.4534  0.3018
15393W        W30524  16.774  15.218   5.877 -0.1892  0.2566  0.0636
15394W        W30525  11.913   4.349   4.155 -0.0252  0.0426 -0.1360
15395W        W30526  17.787   4.635  15.817 -0.1235 -0.2511  0.2197
15396W        W30527   0.802   0.536   0.833  0.4304  0.1399  0.0436
15397W        W30528   8.162   4.027   2.348 -0.0115  0.2586 -0.2041
15398W        W30529  15.406   1.453  15.532 -0.1575  0.1747 -0.3032
15399W        W30530   4.737   6.406   0.275  0.0473 -0.1026  0.0685
15400W        W30531  18.041   4.546  11.529  0.2307 -0.2271  0.3366
15401W        W30532   3.696  10.380   3.840 -0.1813 -0.1336 -0.0990
15402W        W30533   9.361  10.553   1.892 -0.0349 -0.0464  0.1073
15403W        W30534  12.300   7.520  13.925  0.2205 -0.0069 -0.2901
15404W        W30535  11.170   6.512  12.018  0.0720 -0.0374 -0.2955
15405W        W30536  10.364  11.510  15.521 -0.0553  0.0121 -0.0497
15406W        W30537  11.308   7.362  14.190  0.0546  0.0660 -0.1382
15407W        W30538   2.231   5.892  12.286  0.3181 -0.0739 -0.3970
15408W        W30539   2.563  11.790  12.376 -0.0405 -0.0435  0.2268
15409W        W30540   6.733  12.379   0.211  0.2816  0.4002  0.0503
15410W        W30541  11.331  11.183  10.820  0.0368  0.3677 -0.2913
15411W        W30542   5.266  12.366  13.096 -0.0689 -0.1319  0.1590
15412W        W30543  15.442   3.777  13.135  0.0034 -0.2082 -0.1532
15413W        W30544   2.072  15.939   3.070 -0.0169  0.1029  0.0425
15414W        W30545   0.943  13.826  14.231 -0.2335 -0.0011  0.1154
15415W        W30546   1.997   8.880   0.346  0.0738  0.1150 -0.1133
15416W        W30547  10.387   8.414   3.378  0.0543  0.1235  0.2050
15417W        W30548   1.723  11.255  11.085  0.2391  0.2247 -0.0070
15418W        W30549   4.273   0.053  13.302 -0.1436  0.2962 -0.2143
15419W        W30550  15.828  16.389  11.777  0.0891 -0.0316  0.2041
15420W        W30551   2.133   9.044  13.272 -0.3967 -0.0181  0.0128
15421W        W30552   4.143   2.384  11.961  0.0245  0.3062 -0.3077
15422W        W30553   4.219   8.831  11.406  0.1444  0.0666 -0.0277
15423W        W30554   4.317   5.716   2.338 -0.1476  0.0624  0.2648
15424W        W30555   3.120   9.549  13.450  0.2561 -0.3109 -0.2779
15425W        W30556  15.147   4.901  11.159  0.2328 -0.1588 -0.1337
15426W        W30557  16.779  12.826   3.509  0.0631  0.1997  0.0496
15427W        W30558   3.419  12.081  15.263 -0.0749 -0.1868  0.3887
15428W        W30559   5.579   6.310   1.043 -0.0141  0.2401  0.0311
15429W        W30560   5.515   5.885   0.050  0.1132  0.3144  0.2418
15430W        W30561  18.088  10.205  15.877  0.2091 -0.2204  0.0970
15431W        W30562  11.165  15.389   0.064 -0.1739  0.1087  0.0226
15432W        W30563   8.934  14.826  14.633  0.1952 -0.1338 -0.3518
15433W        W30564  16.790  18.086  10.200  0.0300 -0.0484  0.0737
15434W        W30565  10.465   9.395   3.487  0.3676 -0.0093 -0.1306
15435W        W30566  14.110  15.865  12.569 -0.0456 -0.0984 -0.0008
15436W        W30567   8.596   3.201  12.110 -0.0549 -0.0871  0.1553
15437W        W30568   6.116   8.069   3.609 -0.0834 -0.0311  0.3075
15438W        W30569   7.666  15.522  11.211 -0.2309 -0.0767  0.5389
15439W        W30570   0.477   3.095  12.794  0.0631 -0.0012  0.1278
15440W        W30571   8.977  14.141   2.790 -0.3081 -0.3153  0.1049
15441W        W30572   0.378  15.171   1.702  0.1883  0.1116 -0.3024
15442W        W30573  16.349   7.719   5.500  0.2547 -0.2258 -0.0147
15443W        W30574  14.884   9.791  12.656  0.0010 -0.2812  0.1504
15444W        W30575   4.568  17.296  13.610 -0.1477 -0.2859 -0.3013
15445W        W30576   4.028  13.899   3.942  0.1379  0.0531  0.2028
15446W        W30577   2.752   8.931  14.228  0.2472  0.0155  0.0799
15447W        W30578   8.667   9.450  11.735  0.0130 -0.0147 -0.0396
15448W        W30579  10.881  10.545  13.743 -0.0917  0.0047 -0.0829
15449W        W30580   1.263   8.114  15.695 -0.0633  0.0929  0.2348
15450W        W30581   4.363   7.794   3.550 -0.4066  0.1088  0.0469
15451W        W30582  11.651   6.899   4.726  0.1653  0.0834  0.1294
15452W        W30583  13.247  15.578   3.252  0.1133 -0.1334  0.1721
15453W        W30584   3.908  10.680  14.410 -0.0293  0.0203  0.1796
15454W        W30585   2.689   3.906   4.458  0.1833 -0.1646  0.0526
15455W        W30586  17.720   9.390  11.541 -0.0223  0.0861  0.2214
15456W        W30587   7.891  10.065   4.859  0.2148 -0.2317 -0.1809
15457W        W30588  14.485  18.120  12.177  0.1708  0.0533 -0.0004
15458W        W30589   9.663   9.299  12.489 -0.0983 -0.0224  0.0732
15459W        W30590  15.616  10.535   0.547  0.2512  0.2058 -0.0547
15460W        W30591   0.273  16.322  12.202 -0.0388 -0.1409 -0.3809
15461W        W30592  15.048   6.868  15.124  0.1127  0.0204  0.2580
15462W        W30593   6.010   2.354  15.788 -0.2436  0.1864 -0.0102
15463W        W30594  11.183  16.533   2.577  0.0717 -0.2803  0.2721
15464W        W30595   2.806  14.189   4.688 -0.1828 -0.1922 -0.0535
15465W        W30596  17.613  11.472  16.189  0.0087 -0.0052  0.1871
15466W        W30597   2.533  11.945  13.295 -0.2712  0.1034  0.2276
15467W        W30598  15.896  16.797  15.511  0.0029  0.0870  0.3304
15468W        W30599  16.880  10.080  15.792 -0.3826 -0.0050  0.2408
15469W        W30600  13.404   4.796  11.455  0.1111  0.2777 -0.2904
15470W        W30601   8.489  14.038  16.168  0.0842 -0.0900  0.2241
15471W        W30602  17.212  13.823   2.724 -0.0943  0.0043  0.1734
15472W        W30603  11.173   9.883   2.946  0.1034 -0.0839  0.2155
15473W        W30604   7.891   6.266   4.487 -0.1560  0.0874  0.1847
15474W        W30605   7.355  12.805   2.684 -0.1409  0.2165  0.2364
15475W        W30606  14.360   5.953  13.562 -0.2041 -0.2205  0.1715
15476W        W30607  10.910   4.669   0.092 -0.0577  0.1272  0.0693
15477W        W30608  13.063   0.242  13.185  0.3824 -0.0421 -0.0878
15478W        W30609  11.477   4.287  12.103 -0.0462 -0.2797  0.0770
15479W        W30610   3.584  13.367  10.953 -0.2937  0.1539 -0.2087
15480W        W30611   1.230   0.734   0.020 -0.2446 -0.0960 -0.1506
15481W        W30612   7.694   0.328  15.997  0.1975  0.0229  0.0998
15482W        W30613   4.966   9.315   2.584  0.3235 -0.0935  0.2670
15483W        W30614   4.536  10.878   3.056  0.0898 -0.0640 -0.0381
15484W        W30615   6.921   8.935   9.830 -0.0750  0.3334  0.5067
15485W        W30616   6.239   4.327   4.901  0.2042  0.4564 -0.1501
15486W        W30617  11.921   4.965  14.031  0.1693  0.1937 -0.2424
15487W        W30618   9.117   2.041  15.708 -0.1820  0.0002 -0.0049
15488W        W30619   1.298   8.415  11.079 -0.0951 -0.2735  0.0541
15489W        W30620  15.170   4.865  10.603  0.2468 -0.0144 -0.1828
15490W        W30621   0.600  14.875   3.633  0.2782 -0.0084 -0.0142
15491W        W30622   2.918   3.717  12.373  0.0839  0.1730  0.0750
15492W        W30623  13.069   9.941  14.386  0.0428 -0.1079 -0.2584
15493W        W30624   0.246   9.876   1.592  0.2865 -0.1252 -0.0060
15494W        W30625   2.287   8.787   3.200  0.1450 -0.2053 -0.2191
15495W        W30626   1.402  12.163  14.103 -0.2381 -0.1315 -0.0264
15496W        W30627  16.699   1.354  15.914 -0.2778 -0.0540 -0.0780
15497W        W30628  14.784   8.624  14.210 -0.2001 -0.0289  0.1095
15498W        W30629  13.007   2.922  15.201 -0.0791  0.1074 -0.1675
15499W        W30630   6.929   0.826   2.281  0.1765 -0.3010  0.0896
15500W        W30631   9.273  11.803   0.082  0.1177 -0.2296  0.0865
15501W        W30632  12.069   7.823   2.003  0.1682 -0.1199 -0.1386
15502W        W30633  13.177  16.754   1.912 -0.2535 -0.2187  0.2276
15503W        W30634  11.156  12.332  12.146  0.0174  0.0067  0.0168
15504W        W30635   8.336   4.002   1.835 -0.2171 -0.0067  0.0284
15505W        W30636   8.695   5.997   4.271  0.1630 -0.0643 -0.0595
15506W        W30637   2.535  12.893   1.372 -0.2161  0.3297 -0.0052
15507W        W30638   2.556   1.519   0.477 -0.1632 -0.0698 -0.2863
15508W        W30639  13.247   2.532   5.895  0.1014 -0.1156 -0.3628
15509W        W30640  18.022   0.240  12.465  0.1035  0.0970 -0.1207
15510W        W30641   3.118  11.723   4.795  0.2519  0.1203 -0.0551
15511W        W30642  16.116  14.161   4.043 -0.0859 -0.2637  0.0094
15512W        W30643   0.028  12.173  14.702 -0.1107 -0.1055  0.1543
15513W        W30644  14.373  13.914   3.358 -0.0300 -0.1362 -0.2077
15514W        W30645   4.695  15.034   1.375 -0.3019 -0.2789 -0.0164
15515W        W30646   7.610   2.590   3.610  0.0324 -0.0952 -0.1027
15516W        W30647   9.331   7.870   2.017  0.0630 -0.3552  0.1052
15517W        W30648  12.410   9.119   0.316 -0.4106  0.0190 -0.2196
15518W        W30649   2.539   8.354   1.661 -0.0444 -0.0758 -0.0452
15519W        W30650  15.483   1.289   0.955  0.1837  0.0509 -0.1023
15520W        W30651   8.779  16.066   4.719  0.2969  0.2576  0.1054
15521W        W30652   3.428  15.784  13.729 -0.3712  0.1412  0.1092
15522W        W30653   5.311   9.846  11.749  0.0284  0.0188 -0.1047
15523W        W30654  12.392   8.525   6.163 -0.0113 -0.0272  0.0398
15524W        W30655   3.731  14.333  12.375 -0.1384 -0.1268 -0.0932
15525W        W30656   7.574   3.017  12.977  0.0122 -0.1278  0.0077
15526W        W30657  12.185  18.138   5.517  0.1109 -0.1607  0.2723
15527W        W30658  14.633  13.934   0.120  0.2108  0.0576  0.1020
15528W        W30659  17.981   6.965   2.342  0.2076 -0.2829  0.0605
15529W        W30660  15.927   2.850   3.002  0.2160  0.0135  0.1605
15530W        W30661  15.652   8.901  16.096 -0.0946  0.2545  0.3306
15531W        W30662   8.321   2.584  14.872  0.1786 -0.0799 -0.1384
15532W        W30663   9.905   9.008  15.533  0.4320  0.1016 -0.3752
15533W        W30664  16.489  16.283   6.188  0.1045  0.0140 -0.2860
15534W        W30665  14.312  10.128   1.897  0.0365  0.2972  0.0217
15535W        W30666  17.264   6.529  15.497 -0.0366 -0.0152  0.0640
15536W        W30667   3.900  14.971  16.081 -0.0857 -0.2212  0.1370
15537W        W30668  13.469   9.558   4.338  0.0120  0.1532 -0.1726
15538W        W30669   1.507   1.046  11.219  0.2070  0.2110  0.4127
15539W        W30670  12.811  17.964   5.873  0.1806  0.1508  0.2439
15540W        W30671  15.527  17.596   0.262  0.4021  0.0657  0.0406
15541W        W30672   2.672   9.698   2.787 -0.0951 -0.0752 -0.1196
15542W        W30673   0.219   2.752   2.313 -0.1669  0.0251  0.3930
15543W        W30674  15.350  15.211  15.196  0.0196  0.3190 -0.0637
15544W        W30675  16.105   8.971   1.933  0.2784  0.2375 -0.0940
15545W        W30676  10.878   8.215  12.716  0.3183  0.0494  0.2789
15546W        W30677  14.592   1.695  13.953  0.0108 -0.1659  0.1382
15547W        W30678   8.472   8.648   4.463 -0.1162 -0.0993  0.1932
15548W        W30679  16.475   8.832   4.633 -0.0877  0.0211  0.0042
15549W        W30680  12.667  13.083  13.030  0.2811  0.1609 -0.4040
15550W        W30681  11.843   9.235  12.782  0.1299 -0.2721  0.1565
15551W        W30682   5.925   4.577  11.927 -0.4015 -0.0267 -0.2312
15552W        W30683   3.110   8.508  11.864 -0.2818 -0.1425 -0.0749
15553W        W30684  11.589  11.564  12.332 -0.0316 -0.1247  0.1312
15554W        W30685  17.926   4.982  10.743 -0.2655  0.0310 -0.0585
15555W        W30686  17.810  10.559   3.132 -0.1743 -0.2181  0.0330
15556W        W30687   7.611   1.421  11.156  0.1653 -0.1138  0.3216
15557W        W30688  11.122  12.438  14.677  0.2849  0.0478  0.0533
15558W        W30689   2.637   6.478   9.661  0.0058 -0.2389 -0.2310
15559W        W30690  15.449  11.903  14.391 -0.1816  0.1595 -0.1344
15560W        W30691  14.614  12.869   0.940  0.0150  0.1042 -0.2043
15561W        W30692   7.911   9.835  15.866 -0.2455  0.0942 -0.2885
15562W        W30693  17.746   4.561  13.802 -0.4411  0.0267  0.1505
15563W        W30694  12.215  16.731  15.074  0.1143 -0.1752 -0.2048
15564W        W30695   0.285   4.018   0.360  0.0542  0.0460  0.1484
15565W        W30696  10.746   5.781  14.306 -0.0622  0.1200 -0.1974
15566W        W30697   1.990   4.743   2.088 -0.0705 -0.1536  0.0188
15567W        W30698   3.365   7.327   1.206 -0.3014 -0.0901 -0.0003
15568W        W30699   8.216  16.028  12.249  0.1022  0.0134 -0.1664
15569W        W30700   5.274   4.552   2.495 -0.1029 -0.0548  0.0872
15570W        W30701   0.732   3.351   4.375  0.0936 -0.2912 -0.1016
15571W        W30702   2.633  14.453   3.378  0.2027 -0.1543 -0.2300
15572W        W30703   7.388   2.680  11.507  0.0648 -0.0415  0.1122
15573W        W30704   6.828  11.904  15.843 -0.0098  0.1378 -0.2968
15574W        W30705  14.847   9.855   5.726  0.0211 -0.2962 -0.0165
15575W        W30706   4.962  12.924   5.721 -0.0139 -0.1542 -0.0467
15576W        W30707   6.545   0.198  15.098  0.0328  0.4183  0.0736
15577W        W30708   6.615   5.385  13.154 -0.0629  0.0193  0.1446
15578W        W30709  11.660  15.485  14.334  0.0191 -0.4051  0.2253
15579W        W30710   8.565   8.413  12.529  0.2562  0.2430  0.2316
15580W        W30711  10.167   0.394  15.411 -0.1288 -0.0565  0.0396
15581W        W30712   8.056  15.093  13.146  0.2483  0.0251  0.2192
15582W        W30713   6.007   2.100   0.610  0.0380  0.0779 -0.0010
15583W        W30714   9.316   0.999  15.261  0.1235 -0.0247 -0.1906
15584W        W30715   5.682  11.095   1.853 -0.1355  0.0382  0.0190
15585W        W30716  12.236   4.508   2.457 -0.2034 -0.0426  0.1139
15586W        W30717  17.610  16.296   5.315 -0.0351 -0.0625  0.1734
15587W        W30718  15.474  17.633   4.302  0.0743  0.0142 -0.1734
15588W        W30719   2.598   0.829   5.132 -0.0865 -0.2478  0.0185
15589W        W30720   1.370   5.580   4.145  0.1972 -0.1182 -0.0001
15590W        W30721  13.203   5.569   4.455  0.3531  0.3442 -0.0907
15591W        W30722   9.359  14.443   1.996  0.0755 -0.0448  0.1606
15592W        W30723  16.263   0.193   6.062  0.0671 -0.2137  0.3212
15593W        W30724  16.009  15.547   1.843  0.0874  0.1663 -0.0354
15594W        W30725  12.169   3.518  12.467  0.0800  0.0086 -0.2073
15595W        W30726   6.877   6.720   5.446 -0.0055  0.0053  0.3733
15596W        W30727   2.366  11.009   4.342  0.0609 -0.1165 -0.2437
15597W        W30728   7.351  12.524  12.485  0.0250 -0.2285  0.0719
15598W        W30729  15.351  14.448   5.680 -0.0599  0.2094 -0.1715
15599W        W30730   2.123   4.474   1.690 -0.2609  0.2729 -0.2681
15600W        W30731  14.655   9.267   0.641  0.3656  0.0714  0.0131
15601W        W30732   2.724  13.301   1.116  0.1798 -0.2705 -0.0066
15602W        W30733  17.206   4.603  16.219  0.3121  0.3478 -0.0460
15603W        W30734  15.038  12.275   0.543  0.0127  0.0696  0.0595
15604W        W30735  16.497   8.749   1.241  0.1580 -0.0351 -0.0487
15605W        W30736   6.200  14.404  13.530  0.1779 -0.2445 -0.2275
15606W        W30737  13.788  18.157  14.224 -0.1572 -0.3029 -0.2378
15607W        W30738  17.777   0.285  13.486  0.0102  0.1840  0.0234
15608W        W30739   8.143  11.227   4.871  0.0691 -0.2221  0.1053
15609W        W30740  10.517  17.440  11.453  0.0605 -0.2475  0.3743
15610W        W30741   4.594   1.025  13.807 -0.1407 -0.3050  0.1649
15611W        W30742  11.248   0.893  14.166 -0.2055  0.1476 -0.0328
15612W        W30743  11.592   7.674  12.321  0.0479 -0.1395 -0.2423
15613W        W30744   1.779   4.267   2.137 -0.0637  0.2779 -0.2101
15614W        W30745  18.133  16.841   0.785 -0.1821 -0.0312 -0.2184
15615W        W30746   0.118   9.834  14.063 -0.1427 -0.1648 -0.0560
15616W        W30747   7.652   7.211  14.207  0.0306  0.3224  0.1944
15617W        W30748  18.132   3.661   3.825 -0.0632  0.1073 -0.1349
15618W        W30749   0.163   7.201  15.964 -0.1090 -0.0591 -0.2625
15619W        W30750  11.453   0.546   3.837  0.1355  0.0919 -0.0202
15620W        W30751  10.301   8.092   0.034 -0.4547  0.0721  0.2808
15621W        W30752  14.376  13.389  10.649  0.5320  0.3170  0.0584
15622W        W30753  14.263  15.188  13.282 -0.1028 -0.3000  0.0141
15623W        W30754   5.183   3.929   0.505 -0.1303 -0.2725  0.2195
15624W        W30755   0.190   2.229   3.724 -0.0206 -0.1598 -0.2011
15625W        W30756   5.957  14.920   3.019 -0.1132  0.2782  0.2651
15626W        W30757   7.637  14.829  10.537 -0.2604  0.2406  0.1143
15627W        W30758  16.790  17.096   3.255 -0.0737  0.1080  0.0767
15628W        W30759   0.308  13.625   3.471  0.2922 -0.0677 -0.1555
15629W        W30760   8.718  11.980   1.471 -0.1283  0.0749  0.1942
15630W        W30761   7.161  17.842  14.774 -0.0123 -0.0509  0.0009
15631W        W30762   2.122  18.171   3.867 -0.3062  0.0352  0.0045
15632W        W30763   9.589   6.818   5.511 -0.1365  0.0109 -0.1061
15633W        W30764  16.034  14.252  14.878  0.0155 -0.0637 -0.1788
15634W        W30765   7.357  13.810   2.718  0.0275 -0.1051  0.1472
15635W        W30766   9.528   5.571   4.169  0.2070 -0.1297  0.2961
15636W        W30767   6.033  17.000  10.951  0.1831 -0.1750 -0.0143
15637W        W30768  12.753   2.112  12.008  0.1374  0.0311  0.0387
15638W        W30769   9.261  10.668  13.248  0.1755 -0.0097  0.1212
15639W        W30770  10.571  12.489  11.909  0.3091 -0.1742  0.3176
15640W        W30771  12.783   0.563  15.933 -0.1291 -0.1127 -0.0189
15641W        W30772  11.691  12.792   1.791  0.0958  0.3968  0.0885
15642W        W30773   9.505   0.987   5.373 -0.3198 -0.4828  0.0147
15643W        W30774   4.003   4.573  16.092 -0.0476 -0.0546 -0.2378
15644W        W30775  11.427   1.066   0.446  0.0430 -0.0022 -0.1462
15645W        W30776   3.613  15.155   0.196  0.1336 -0.1033  0.2693
15646W        W30777   3.912   1.981   3.803  0.3083 -0.3303 -0.0715
15647W        W30778   4.098   8.961   0.709  0.1371  0.2344  0.3889
15648W        W30779  17.629   3.302  14.793  0.0512  0.0214  0.0177
15649W        W30780  17.506  12.855   2.735  0.0604  0.1429 -0.0680
15650W        W30781   8.859  14.015  10.438  0.4286 -0.0355  0.1955
15651W        W30782   0.741  11.539  14.619  0.1406 -0.0297  0.3304
15652W        W30783  10.271   3.924  11.787  0.0914  0.2169  0.0460
15653W        W30784   5.098   3.971  12.419 -0.1412  0.0880  0.0493
15654W        W30785  11.236   5.028   0.103  0.2822 -0.0450 -0.4047
15655W        W30786  17.970   7.608  15.971 -0.1083 -0.0270  0.1311
15656W        W30787  15.960  12.103   2.639 -0.1413 -0.3508 -0.2186
15657W        W30788   5.343  11.735   1.791  0.2859  0.1779  0.4472
15658W        W30789   3.478  17.661  15.003  0.1127 -0.2995  0.3288
15659W        W30790   3.084  17.659   1.928 -0.1541  0.1476 -0.0333
15660W        W30791  13.763  17.497   3.279  0.1362  0.0596  0.2292
15661W        W30792   9.329   9.721  15.386  0.0487  0.1286 -0.1446
15662W        W30793   0.494   2.189  12.308  0.1466  0.2826  0.1854
15663W        W30794   5.238   1.959  13.177 -0.2041 -0.1785  0.0575
15664W        W30795   8.245   7.765   0.917  0.1916  0.2829  0.3112
15665W        W30796  17.970   2.920   2.859  0.0972 -0.0231 -0.1634
15666W        W30797  14.187  11.777   3.015  0.1121  0.1240  0.0733
15667W        W30798  11.574  11.975  13.486 -0.1230 -0.3056  0.1559
15668W        W30799   1.214  15.592  12.384 -0.3027 -0.0333  0.0548
15669W        W30800   7.405  17.116  12.344 -0.2140  0.1961 -0.3868
15670W        W30801   5.480   3.267   1.851 -0.1270 -0.0894 -0.0537
15671W        W30802  11.310  12.054  11.226 -0.0246  0.2916 -0.3105
15672W        W30803   6.939  12.927  15.060 -0.1254 -0.0867 -0.1473
15673W        W30804  12.966   8.923   1.690 -0.2307 -0.2838  0.1663
15674W        W30805   2.824  13.067  14.737 -0.1897 -0.2950  0.1691
15675W        W30806   5.793   9.036   1.744 -0.2643  0.0926  0.0321
15676W        W30807  17.371  16.754   2.941 -0.0158 -0.2312 -0.0519
15677W        W30808   2.823  11.360  15.364 -0.0402 -0.0384  0.2246
15678W        W30809  11.168   2.458  14.127  0.2255 -0.3419 -0.5069
15679W        W30810   0.945   3.218  10.327 -0.0811  0.1161  0.1068
15680W        W30811   0.262   9.300   3.826  0.0173 -0.2066 -0.2181
15681W        W30812   8.136  12.701  14.314  0.1771 -0.1745  0.0383
15682W        W30813  15.626  16.691   6.535  0.2632  0.1438 -0.2200
15683W        W30814  15.421  14.093  14.261  0.0351 -0.2875 -0.0341
15684W        W30815  17.031   7.247   1.868 -0.0400  0.0500  0.0742
15685W        W30816  10.887   4.436   4.410 -0.0750  0.0387  0.0448
15686W        W30817  15.841   8.350   5.393 -0.1405  0.3407  0.0822
15687W        W30818  15.757  16.946   3.580 -0.3955  0.1643  0.1251
15688W        W30819  17.870   2.765  13.392  0.0168  0.0715 -0.1844
15689W        W30820   7.445   9.163  11.453  0.2383  0.1275  0.2080
15690W        W30821   5.658  14.450  12.411  0.1082  0.5182 -0.0718
15691W        W30822  13.210   3.539   5.803  0.0953  0.0100  0.2259
15692W        W30823   6.055   5.353  11.451 -0.3462  0.1650  0.1594
15693W        W30824  15.327   8.163  12.153  0.1547  0.0094  0.2197
15694W        W30825  17.448  11.940  11.763  0.2214  0.5334 -0.0167
15695W        W30826  10.461   2.624   2.979 -0.0299  0.0631 -0.1703
15696W        W30827   2.398  12.163   0.834  0.0307  0.1942 -0.0247
15697W        W30828  16.650   3.847  13.205  0.1127  0.1848 -0.0965
15698W        W30829  13.183   8.943  12.952  0.3535 -0.4211  0.0389
15699W        W30830   8.110   2.214  14.214  0.2188  0.0460 -0.0317
15700W        W30831  10.868  14.256   4.213  0.2651 -0.1774  0.1137
15701W        W30832  17.757  14.724   3.695 -0.0628  0.4648  0.0135
15702W        W30833   8.854   1.806   1.732 -0.2226  0.1150 -0.0739
15703W        W30834   4.868   3.226  15.819  0.2533 -0.3453 -0.1160
15704W        W30835  17.722   3.962   1.548  0.0292  0.0391  0.0286
15705W        W30836  15.268   6.552   2.998  0.1777 -0.2490 -0.1099
15706W        W30837  11.484  15.226   5.295  0.1376  0.0393 -0.0092
15707W        W30838   3.410   5.357  14.257 -0.1121 -0.1787 -0.1502
15708W        W30839   5.944   4.348   0.831 -0.1413  0.1861 -0.1158
15709W        W30840  16.373  14.169   2.384  0.1031 -0.1907 -0.0574
15710W        W30841   8.888   8.899  14.353 -0.0135  0.0383  0.1727
15711W        W30842  17.833   6.846  11.948 -0.0909  0.0186 -0.0890
15712W        W30843  17.604  14.437  15.832 -0.2741 -0.0078 -0.1388
15713W        W30844  15.873   1.454   4.650  0.2226  0.0306  0.2628
15714W        W30845  12.954  10.726  13.939 -0.0210  0.0505 -0.0907
15715W        W30846  10.711  12.957   5.957  0.3042  0.0917 -0.1541
15716W        W30847   0.385  13.989  12.911  0.0358  0.0676 -0.1366
15717W        W30848   5.243  16.093   4.870 -0.1828 -0.0235  0.2358
15718W        W30849  12.508  17.921  14.724  0.0462 -0.1561  0.0314
15719W        W30850  16.925   7.312  12.324  0.2439  0.2014 -0.1580
15720W        W30851   0.519  17.715   2.967  0.0477 -0.0732  0.1486
15721W        W30852   2.547   6.756   5.616  0.0691 -0.2235  0.1051
15722W        W30853   2.423  13.638   1.271  0.2854 -0.0082 -0.0257
15723W        W30854  17.905   9.058   4.102 -0.1167 -0.1292  0.3245
15724W        W30855   5.151  12.224  10.322 -0.2364  0.2446  0.1351
15725W        W30856  12.446   5.076   3.782  0.0310 -0.2088 -0.1597
15726W        W30857   1.818  16.377   3.214 -0.0534  0.1103 -0.1932
15727W        W30858  14.733   9.502  13.047  0.1195 -0.3425 -0.2713
15728W        W30859  13.960  16.541   3.432 -0.1677 -0.2535 -0.1759
15729W        W30860   2.902  17.277  15.685 -0.1957 -0.0417  0.0291
15730W        W30861  15.407  11.460   1.629 -0.0869 -0.0580 -0.1862
15731W        W30862   8.944  10.141  11.092  0.0385  0.1205  0.3498
15732W        W30863  13.597  11.663  13.106  0.0772 -0.0396 -0.1520
15733W        W30864  13.012  11.864  13.874  0.1499 -0.0093  0.1732
15734W        W30865  14.609  15.512   3.037 -0.2285 -0.0447  0.1513
15735W        W30866   3.206   9.846  11.597 -0.0039 -0.0901 -0.1802
15736W        W30867   0.884  15.966  15.772  0.0137 -0.0364  0.5934
15737W        W30868   8.332  14.437   1.023  0.2501  0.1761 -0.1254
15738W        W30869  16.437  13.187  11.972 -0.1801  0.0689 -0.0985
15739W        W30870   0.938   1.158  14.058 -0.0810  0.3667 -0.1760
15740W        W30871   7.166  16.940   4.410 -0.2559 -0.3233  0.0621
15741W        W30872   1.248  15.908   2.432  0.3023 -0.1284 -0.1621
15742W        W30873   9.355   8.474   4.067  0.1622 -0.0916 -0.1458
15743W        W30874   9.951  16.604  15.545  0.2160  0.1877  0.0868
15744W        W30875   7.898   0.006   2.740 -0.3025  0.0368  0.1619
15745W        W30876   7.903   0.210   1.284 -0.2215  0.3416  0.0375
15746W        W30877   9.414   3.172   5.066  0.0295 -0.1522 -0.0901
15747W        W30878  14.821   2.283   4.629  0.1758 -0.2695 -0.0646
15748W        W30879   3.957   8.676   1.575  0.4320  0.1961 -0.1168
15749W        W30880   9.936  13.558  11.244  0.0989  0.2942 -0.3012
15750W        W30881  10.560  13.211   1.414  0.0274  0.1362 -0.1206
15751W        W30882   8.650   0.606   0.609  0.4216  0.1920 -0.1019
15752W        W30883   2.066   0.543  14.922  0.2504 -0.1424 -0.1215
15753W        W30884   1.999   6.072   4.436 -0.1746  0.2259 -0.0200
15754W        W30885  15.989  14.688   1.751  0.2081 -0.1152 -0.2301
15755W        W30886  15.626   4.569   1.229 -0.2438 -0.3373 -0.2941
15756W        W30887   4.404   0.172  12.466  0.0212 -0.1197  0.3452
15757W        W30888  15.770  10.763  11.936  0.5238  0.0967 -0.3011
15758W        W30889  12.671  15.709  15.437 -0.0030  0.0547  0.1223
15759W        W30890   9.187   2.476  15.365  0.0113  0.2059 -0.1584
15760W        W30891  11.104  11.285   1.708  0.1597  0.1278 -0.0466
15761W        W30892   1.009  15.282   4.456  0.0447  0.1422  0.1422
15762W        W30893  15.219   7.040   3.329 -0.1925  0.1805 -0.0785
15763W        W30894  14.283   2.437  11.046  0.3040 -0.2328  0.1475
15764W        W30895   5.276   1.725   2.558  0.1126  0.0980 -0.0696
15765W        W30896   9.434  10.213   0.665  0.4659 -0.0934 -0.0444
15766W        W30897  12.601   0.484  14.162  0.3080  0.1810  0.3477
15767W        W30898   8.387   7.567   1.336  0.0769  0.1107  0.3806
15768W        W30899   2.095  14.066   1.964  0.4890  0.0941  0.1340
15769W        W30900   6.676   6.576  13.969 -0.0028  0.0477 -0.2624
15770W        W30901  13.593   7.226  12.279  0.3459  0.0420  0.3552
15771W        W30902  11.484   9.002  12.188  0.0299 -0.4440  0.0734
15772W        W30903  14.106   5.322   0.523 -0.1732 -0.2124  0.2817
15773W        W30904  17.445   7.832  11.528 -0.0915 -0.0165  0.2435
15774W        W30905  14.159   1.610   0.889  0.0029 -0.0742 -0.0565
15775W        W30906  14.803  13.829  15.539 -0.0950  0.0546 -0.0104
15776W        W30907  17.140  17.137  14.160  0.2642 -0.0924 -0.0752
15777W        W30908  15.103  12.544  12.438 -0.1985 -0.2935  0.0975
15778W        W30909   7.649  10.327  15.957 -0.0265 -0.0380 -0.0079
15779W        W30910   8.184  14.268  11.164  0.3964 -0.4834 -0.2173
15780W        W30911  13.905  11.010   3.354  0.0035  0.1908  0.0292
15781W        W30912  11.245   0.934   0.875  0.0387 -0.0961  0.0181
15782W        W30913   2.268  13.840   2.363  0.1005  0.0062  0.0643
15783W        W30914   7.912   6.723   1.365  0.2601  0.1130 -0.3993
15784W        W30915  15.327   3.022  15.701  0.1938 -0.0903 -0.0590
15785W        W30916  13.638  12.260   3.746  0.1329 -0.0952  0.1498
15786W        W30917  10.476  12.314  10.230  0.1888  0.1650  0.2443
15787W        W30918  15.206   6.971   5.289  0.1041 -0.1264  0.0212
15788W        W30919  16.395  12.049  11.473 -0.0185 -0.1307  0.1637
15789W        W30920   5.766   7.687   2.281  0.1993  0.3081  0.0498
15790W        W30921  11.029   7.072   2.616 -0.2795 -0.0040  0.0932
15791W        W30922  11.662   0.847  10.369 -0.1881 -0.1208 -0.0417
15792W        W30923   7.878   7.505   3.059 -0.2530  0.0720 -0.1992
15793W        W30924  12.557  10.625   2.394 -0.1397 -0.2154 -0.0360
15794W        W30925   2.235  13.315   6.059  0.1460  0.4100  0.2371
15795W        W30926   1.182   4.900   2.517  0.0645  0.0397 -0.2994
15796W        W30927   7.141  13.452  14.878  0.2594  0.1027  0.0392
15797W        W30928  13.340  15.002   5.119  0.0322 -0.0642  0.1184
15798W        W30929   5.215  15.076  10.981 -0.2389  0.1969 -0.1210
15799W        W30930  12.197   2.352   3.086 -0.1136  0.0726 -0.1040
15800W        W30931  17.140  17.618  12.346  0.0076  0.1288 -0.2354
15801W        W30932   2.739   2.715  14.966  0.0433 -0.0678  0.3466
15802W        W30933  16.861   8.429   1.912  0.1472 -0.2056  0.2647
15803W        W30934   7.811  16.265   4.631 -0.0953  0.1045 -0.2701
15804W        W30935   7.858   7.102   6.091 -0.0643  0.1672 -0.1144
15805W        W30936   2.253   8.013  14.307 -0.1556  0.2812 -0.0194
15806W        W30937  10.136  16.929   5.446  0.0266 -0.1185  0.1367
15807W        W30938   6.614   8.747  11.579  0.0958  0.3047  0.1327
15808W        W30939  14.950  16.354  13.422 -0.2034 -0.2178 -0.0692
15809W        W30940   7.114  12.352  11.641  0.0606  0.2163 -0.0957
15810W        W30941   8.520   3.036  15.724  0.2195  0.0882 -0.0937
15811W        W30942   5.635  12.840  12.941  0.2427 -0.1727 -0.0154
15812W        W30943  15.057   2.432  14.500  0.1248 -0.1293 -0.3877
15813W        W30944  11.860  11.843   5.076 -0.0663 -0.0902  0.0070
15814W        W30945   1.714  12.017  12.144 -0.1228  0.2592 -0.1348
15815W        W30946   2.462  10.577   1.346 -0.3775  0.0301 -0.4233
15816W        W30947  11.035   7.272   3.922  0.0985 -0.1084 -0.1137
15817W        W30948   6.086  16.068  12.826  0.0727 -0.2303  0.0247
15818W        W30949  12.928   3.673  14.112 -0.1313 -0.0475  0.3801
15819W        W30950   8.728   8.816  12.322 -0.1933 -0.1801  0.2660
15820W        W30951   8.296   2.807  13.869 -0.0876 -0.1029  0.1910
15821W        W30952   1.465  15.429   4.559  0.1267  0.0679  0.0327
15822W        W30953  13.968  13.838   3.035 -0.0634 -0.0225  0.0149
15823W        W30954  18.147   8.042   4.078 -0.0949 -0.1082  0.0024
15824W        W30955   5.845   1.340   5.183  0.0136 -0.1548 -0.1410
15825W        W30956   1.648   5.888  15.749 -0.2747  0.1721 -0.0582
15826W        W30957   1.976   2.294  11.368  0.2336 -0.0858 -0.1922
15827W        W30958  15.260   5.509  15.508  0.1580 -0.2642  0.1681
15828W        W30959   8.918   7.800  11.832  0.1113 -0.3897 -0.0886
15829W        W30960   6.214  15.657  12.488  0.1536  0.0235  0.1380
15830W        W30961   0.205  11.887  13.687 -0.0717  0.2399 -0.2174
15831W        W30962  17.143   4.217  15.824 -0.2888 -0.0631 -0.1695
15832W        W30963  15.622   0.808  11.047  0.0136  0.2722 -0.3368
15833W        W30964  17.460   6.009   3.176  0.0552 -0.2147 -0.1218
15834W        W30965  17.871  10.454  11.342 -0.2599  0.2022 -0.0682
15835W        W30966   2.683   5.986  14.219  0.0863  0.1294  0.0217
15836W        W30967   1.513  10.405   2.310  0.0521 -0.1616  0.0149
15837W        W30968   0.121   5.251  12.704 -0.2243 -0.2395 -0.2165
15838W        W30969  10.376   5.301   2.693  0.2855 -0.0812  0.1695
15839W        W30970   9.717  17.884  11.395  0.2537  0.0181 -0.1233
15840W        W30971   6.399  11.050  13.066  0.0172  0.1393 -0.3893
15841W        W30972  10.209   5.197   4.647 -0.2774 -0.1463 -0.2190
15842W        W30973   0.775   7.136   2.798  0.1065  0.5344  0.1147
15843W        W30974  11.391  16.958  15.985  0.1528  0.2072  0.0430
15844W        W30975   3.852  17.042  14.210  0.1741 -0.2789  0.1914
15845W        W30976   9.702   3.799   4.080  0.1504  0.2351  0.0294
15846W        W30977   3.403  10.234  11.288 -0.2009 -0.1052  0.1100
15847W        W30978  13.602   8.631   4.687 -0.0057  0.0349  0.1791
15848W        W30979   1.797   8.870  13.694 -0.0451 -0.1497 -0.2750
15849W        W30980   6.742  12.376   3.686  0.2038 -0.2262 -0.0586
15850W        W30981  14.549  17.010  15.855  0.1822  0.1460  0.2067
15851W        W30982   0.612   1.340  12.061  0.2880  0.2315  0.0526
15852W        W30983   9.849  11.112   3.562  0.0042  0.2103 -0.1615
15853W        W30984   2.006   9.633   1.607  0.1300  0.0757  0.5468
15854W        W30985  10.464  16.820  15.727  0.1892  0.1376 -0.0086
15855W        W30986   2.728   5.579  15.738 -0.0259  0.0257  0.1061
15856W        W30987   9.471   7.739   4.850  0.0224  0.2329 -0.2300
15857W        W30988  15.088  17.271   2.125 -0.1395  0.1076  0.1237
15858W        W30989  10.334  15.593   2.327 -0.1089  0.3679  0.2214
15859W        W30990  11.650  10.821  14.290 -0.0689 -0.0037  0.1825
15860W        W30991   7.842  17.314   4.086 -0.0944  0.4768  0.1217
15861W        W30992  16.378  17.932   0.335  0.3570 -0.0822  0.1535
15862W        W30993   4.319   3.716  13.619  0.1037  0.1329 -0.2366
15863W        W30994   0.372   6.135  12.036 -0.2433  0.0890 -0.1584
15864W        W30995   2.579  13.140  10.879 -0.1743  0.1498 -0.1796
15865W        W30996  16.557   9.325   4.546  0.2130 -0.1261 -0.1850
15866W        W30997  13.238   1.402  11.403  0.1575 -0.2620 -0.1202
15867W        W30998  14.121   2.180  15.252  0.1028  0.1271  0.2687
15868W        W30999  16.969  17.175   1.857 -0.2820  0.2838 -0.0986
15869W        W31000  16.846  17.857  11.606 -0.0221  0.0077 -0.4094
15870W        W31001  13.904   5.481   1.082  0.1277  0.0527  0.1941
15871W        W31002  17.493   2.654   5.854 -0.0216 -0.1247 -0.0188
15872W        W31003  10.078   3.834   3.384 -0.2337  0.0692 -0.0447
15873W        W31004   0.411   6.070   0.242 -0.3012  0.0950 -0.0772
15874W        W31005  14.010  12.569  12.201  0.0074 -0.1880 -0.1584
15875W        W31006  14.881  11.763  12.754  0.1076 -0.0144  0.1637
15876W        W31007  10.466   0.664  13.424 -0.1580  0.2501 -0.0864
15877W        W31008   2.434  10.219  10.924  0.2007  0.3170 -0.0619
15878W        W31009  10.692   9.152  15.239  0.0463 -0.1732 -0.1545
15879W        W31010   1.416  17.530   0.139  0.0868  0.0116 -0.0325
15880W        W31011  11.176   5.731  13.491  0.0037  0.0560 -0.0257
15881W        W31012  15.502  17.455  12.256 -0.0825 -0.1229  0.1631
15882W        W31013   2.175  17.124   4.242  0.0009  0.1720 -0.4038
15883W        W31014   5.476  15.396  14.012  0.1244  0.2100  0.3176
15884W        W31015  10.161  17.926  11.207  0.1422  0.2178  0.0418
15885W        W31016  12.785  10.262   4.364 -0.2521  0.1300 -0.2399
15886W        W31017   9.294   6.940   3.464  0.1438  0.2537  0.1868
15887W        W31018  17.779   9.587  14.379  0.0174  0.3488  0.0954
15888W        W31019  14.085   0.858  11.803 -0.0249  0.1646  0.1818
15889W        W31020  18.108   2.645  14.388  0.0331  0.0013 -0.1434
15890W        W31021   6.940   4.535  13.842  0.1384 -0.1788 -0.1092
15891W        W31022   6.930  11.050   2.263  0.1371 -0.0310 -0.1724
15892W        W31023   7.532   7.635   6.137 -0.2120  0.0801  0.2918
15893W        W31024   4.195  17.326  12.343 -0.3626  0.3590  0.5251
15894W        W31025   7.732   9.276  12.334  0.0241  0.2157 -0.1421
15895W        W31026  13.995   4.612   0.403 -0.4573 -0.1830 -0.0333
15896W        W31027   6.454   7.025  12.319  0.2202  0.0674 -0.0651
15897W        W31028   7.868   5.220   5.060 -0.0757 -0.0430 -0.0034
15898W        W31029  17.857   1.522  11.776 -0.0887 -0.0718 -0.0270
15899W        W31030  15.997  15.291  13.329 -0.2001 -0.1855  0.0467
15900W        W31031   9.720  13.057   4.251 -0.2070 -0.2708  0.0000
15901W        W31032  13.325  10.538  12.678 -0.1921 -0.4657  0.0095
15902W        W31033   8.515   9.512  14.914  0.1635  0.3336  0.1380
15903W        W31034  11.012   8.045   0.734 -0.1348 -0.1322 -0.0321
15904W        W31035   2.397   7.544  10.085  0.1248 -0.2197  0.1579
15905W        W31036  16.956   1.260  13.024 -0.0100  0.0039 -0.0163
15906W        W31037  16.750   6.686   5.165  0.3981  0.0278  0.0675
15907W        W31038   3.255  13.408  11.461  0.4852  0.1019 -0.0247
15908W        W31039   1.686   8.168   0.470 -0.1051  0.0242 -0.1183
15909W        W31040   5.809  14.503   4.590  0.0593  0.2565 -0.3116
15910W        W31041   6.825   6.813  15.255 -0.1636 -0.0127  0.1486
15911W        W31042   1.436   3.666  11.854 -0.1017 -0.1616 -0.0598
15912W        W31043   5.480  15.332  11.348  0.1069 -0.1782  0.0699
15913W        W31044  16.855  13.168   1.517 -0.1279  0.0907 -0.1090
15914W        W31045  11.481   3.567  11.295  0.0410 -0.0216 -0.2858
15915W        W31046   5.832   4.674   0.438 -0.0074  0.0914  0.1896
15916W        W31047   6.991  15.008   0.113  0.2544 -0.2699 -0.3759
15917W        W31048   3.860  11.677  12.515 -0.2699  0.0586  0.1083
15918W        W31049   3.560   2.335  15.227  0.0078  0.1315 -0.3106
15919W        W31050   2.937   5.369   1.965 -0.0668 -0.3520  0.0774
15920W        W31051   2.081  11.704   3.865 -0.2199  0.1288 -0.1812
15921W        W31052   9.500  10.300  12.276  0.1969  0.1574  0.0611
15922W        W31053   4.950   5.952  11.052  0.1305  0.1633 -0.3535
15923W        W31054   5.422  12.521  12.616 -0.3279 -0.1079  0.2246
15924W        W31055  11.392  10.981   2.126 -0.2348 -0.0418 -0.1358
15925W        W31056   4.780  11.305   3.100  0.3918  0.1532 -0.0882
15926W        W31057   5.147   5.326  15.191 -0.0406 -0.3339 -0.0926
15927W        W31058   7.117  10.036   5.485 -0.0274  0.1906 -0.1877
15928W        W31059   4.401   5.230  10.969  0.0861 -0.2351  0.3216
15929W        W31060   2.912  17.786  12.589 -0.1035 -0.0354 -0.0135
15930W        W31061   9.711  17.003   3.616 -0.1869  0.2655  0.0294
15931W        W31062  15.123   4.457   1.083 -0.2106  0.2654  0.0974
15932W        W31063   4.807   1.123   3.243 -0.3364 -0.1335  0.0905
15933W        W31064   3.630   4.994   0.589  0.0657 -0.0480  0.0940
15934W        W31065   0.438  11.107   4.159 -0.0181 -0.0450 -0.1823
15935W        W31066  14.534  10.965  15.926  0.2195  0.2198 -0.1903
15936W        W31067  16.295   3.690   4.944  0.0743 -0.0506  0.0217
15937W        W31068   0.157   1.309   2.094 -0.0173 -0.1830 -0.1689
15938W        W31069   9.613  13.040  15.521  0.1216  0.1170 -0.0769
15939W        W31070   7.045   3.658  13.930 -0.0668  0.0099 -0.0503
15940W        W31071  17.834   5.348   4.259  0.3549  0.0795  0.0869
15941W        W31072  14.253   9.310   4.731 -0.2958  0.0167 -0.0555
15942W        W31073  11.666   9.807   6.291 -0.2505  0.0739  0.0370
15943W        W31074  15.581   2.951  10.227  0.2479  0.1134 -0.0948
15944W        W31075  18.102   0.737   4.906  0.0373 -0.0926  0.2125
15945W        W31076   6.980  13.020   2.950  0.1022 -0.0581  0.1961
15946W        W31077   9.634   6.001  11.715  0.0134  0.0456 -0.0376
15947W        W31078   7.227   9.482   2.808  0.0500 -0.1013  0.3479
15948W        W31079  16.260   1.166  13.673 -0.2816 -0.1955  0.1883
15949W        W31080   1.622  17.542   1.194  0.1746  0.3995  0.2090
15950W        W31081   2.939  15.201  11.605 -0.0232  0.2832  0.0359
15951W        W31082  10.950  12.794  12.020  0.1207  0.1545  0.0239
15952W        W31083  16.152  13.403  10.846  0.0638  0.2439  0.3280
15953W        W31084  14.751  12.347   0.958 -0.1515 -0.0383 -0.1532
15954W        W31085  13.317  11.855   0.110  0.0275  0.0090  0.0915
15955W        W31086  10.743   8.747   1.398  0.0887 -0.0729 -0.1854
15956W        W31087   7.056   9.008  11.680  0.0039 -0.0945  0.0818
15957W        W31088   2.913  10.719  13.043 -0.1865 -0.2809 -0.0296
15958W        W31089  15.135   9.284   6.355  0.2630  0.0428  0.1580
15959W        W31090  17.157  11.445  13.006  0.0712 -0.2901 -0.4165
15960W        W31091   4.508   1.930  15.305 -0.2714  0.4506 -0.0217
15961W        W31092   5.120   2.548   2.206 -0.1919  0.2329  0.0247
15962W        W31093  17.261   2.915   3.969  0.2851 -0.0684 -0.1801
15963W        W31094   8.955   6.516   5.383 -0.1336  0.2843  0.1994
15964W        W31095  15.151  11.897   1.789  0.0842 -0.1236 -0.2225
15965W        W31096  12.615   9.107   2.612 -0.1974 -0.1048  0.0984
15966W        W31097  16.098   1.138   1.993  0.3147  0.0789  0.0095
15967W        W31098   9.995  16.257   1.179  0.1822  0.1438 -0.1082
15968W        W31099   2.682   5.420  11.525 -0.2911 -0.3019  0.0481
15969W        W31100   7.291  12.937   3.682 -0.4626 -0.3615 -0.0583
15970W        W31101  15.402   3.989   4.702  0.1631 -0.0036 -0.0298
15971W        W31102  11.682   0.331   2.136 -0.0786  0.0176 -0.1891
15972W        W31103   4.822   6.754  11.368  0.1013 -0.0644 -0.3328
15973W        W31104  17.626   8.850  11.868 -0.3779  0.1596  0.0553
15974W        W31105  17.413   3.674   4.427 -0.1905  0.0427 -0.0371
15975W        W31106  15.879   3.731   2.130 -0.1632 -0.3012  0.0599
15976W        W31107  14.038   8.112   4.380 -0.2433  0.2045  0.2582
15977W        W31108   9.150  13.186   5.138 -0.2500  0.0254  0.0029
15978W        W31109   7.222   2.004   2.960  0.1078 -0.2916 -0.1601
15979W        W31110   5.026  11.326  11.068  0.2630  0.0449  0.0644
15980W        W31111   1.379   8.009   2.316  0.0822 -0.0219 -0.0541
15981W        W31112   6.465  17.250   1.457  0.2772 -0.0218 -0.0927
15982W        W31113   5.140  13.773  13.922  0.0712  0.0893  0.1388
15983W        W31114   1.815  11.451  14.818 -0.2455  0.2933  0.2231
15984W        W31115   2.039   1.262   1.688  0.2202 -0.1222  0.0687
15985W        W31116   6.229  14.081  13.122  0.1035 -0.2947  0.1221
15986W        W31117   0.951  18.096   3.946  0.3458 -0.1847 -0.1614
15987W        W31118   9.328   5.599   4.696  0.1888  0.3605  0.0969
15988W        W31119   2.759  13.338  14.289  0.0907 -0.1332 -0.1004
15989W        W31120  11.054   3.913  12.809  0.2307 -0.0567  0.0692
15990W        W31121  17.395   5.827   2.036 -0.0893 -0.0770  0.1782
15991W        W31122   0.223   6.578  10.602  0.2155 -0.0846 -0.2983
15992W        W31123  12.819   7.724   5.797  0.3950  0.0648 -0.0917
15993W        W31124   2.117  15.154  13.204 -0.0325 -0.1179 -0.1841
15994W        W31125   8.380  12.170   4.889  0.0341 -0.1861 -0.0989
15995W        W31126   7.452  15.596   3.269  0.2940 -0.2326 -0.1521
15996W        W31127   1.236   6.111   3.163 -0.1041 -0.1142  0.1826
15997W        W31128  10.975  14.922  14.211 -0.0933  0.1721 -0.1030
15998W        W31129   7.326   3.195  10.395 -0.2412 -0.1892 -0.0323
15999W        W31130   7.285   5.741  14.867 -0.1076 -0.2414  0.1830
16000W        W31131  15.239  10.014   1.714  0.2063 -0.0366 -0.0588
16001W        W31132   3.868   5.008   4.528  0.0588 -0.0364  0.1552
16002W        W31133   2.713  15.304   3.293 -0.1065 -0.1211  0.2309
16003W        W31134  14.547   9.094  11.938  0.1739 -0.0495  0.1102
16004W        W31135  18.039   3.224  15.188  0.0074 -0.1569 -0.1380
16005W        W31136  17.382   8.716   4.317  0.2357  0.0685 -0.2286
16006W        W31137   7.509  15.066   2.059 -0.0734  0.1922 -0.1504
16007W        W31138  14.975  15.037   4.964  0.0069 -0.2554  0.0881
16008W        W31139   8.401   3.488  15.626  0.0463 -0.0932  0.2908
16009W        W31140   1.107  14.847   3.640  0.1766 -0.0282  0.0864
16010W        W31141  16.556   4.775   3.904 -0.0666  0.0633 -0.2983
16011W        W31142   4.998  10.509  15.669  0.1630 -0.1122 -0.3030
16012W        W31143   0.783   8.852   2.703 -0.0226  0.0075  0.0470
16013W        W31144   7.379  14.808   1.599  0.2880 -0.2975  0.0086
16014W        W31145   2.655   7.686   6.104  0.1086 -0.3616  0.0440
16015W        W31146   7.832   2.597  11.948  0.1831 -0.0955  0.0096
16016W        W31147   3.010  11.429  12.272  0.0082  0.2229 -0.3260
16017W        W31148  11.811   7.789  13.752 -0.2046 -0.1789 -0.1959
16018W        W31149   7.282   6.581  11.855  0.1908 -0.1719  0.2369
16019W        W31150  14.613   0.865   4.559 -0.2238  0.0517  0.2415
16020W        W31151  16.728  14.997  11.809  0.3596 -0.3214  0.2400
16021W        W31152  10.818  15.145  14.810 -0.1231  0.1306 -0.0674
16022W        W31153   9.281   4.780   5.322 -0.0568  0.0651 -0.0063
16023W        W31154  17.160   4.493  12.067  0.1406  0.4143 -0.1571
16024W        W31155   8.572   9.281   5.588  0.1836  0.0488 -0.0184
16025W        W31156   3.142   6.296  11.244  0.2990  0.1870  0.0986
16026W        W31157   8.675   7.998   3.545 -0.1232  0.0083  0.0663
16027W        W31158   8.664  15.342  10.322  0.2597 -0.1696 -0.2370
16028W        W31159  15.429   3.448  13.485  0.1013 -0.0783 -0.0092
16029W        W31160  14.915   0.808  12.446  0.0737  0.1270 -0.0483
16030W        W31161   5.333  18.152  12.412  0.0948 -0.1671 -0.0959
16031W        W31162  13.103   4.430  13.962  0.0534 -0.0780  0.0167
16032W        W31163   1.796   3.463   5.208  0.0103 -0.0083  0.0221
16033W        W31164   8.135   9.558   2.798  0.3745  0.1278 -0.0988
16034W        W31165  13.894  12.308  13.662  0.0751  0.0301 -0.1393
16035W        W31166   4.307   3.904   3.049  0.0262  0.0453  0.1372
16036W        W31167  12.825   3.023  12.121  0.0229 -0.1671  0.1111
16037W        W31168  15.424  13.096   0.083 -0.0174  0.0605  0.0826
16038W        W31169  13.561   5.666   2.432  0.1707 -0.1214 -0.1432
16039W        W31170  14.108   4.825   4.350 -0.0320  0.2095 -0.0081
16040W        W31171   2.667   4.351  15.147 -0.1814 -0.0595 -0.2050
16041W        W31172  11.155   2.675   0.812 -0.1912  0.1874 -0.1148
16042W        W31173  14.688  12.119  13.667 -0.1705 -0.0759  0.2218
16043W        W31174  11.785  11.469  11.804  0.1382  0.2819 -0.2241
16044W        W31175   7.463   9.000   5.756  0.2150  0.0214  0.0579
16045W        W31176   6.812  14.084  16.141 -0.2533 -0.0622  0.0485
16046W        W31177  11.571   4.783  13.709  0.0786 -0.2211  0.1453
16047W        W31178  17.496   3.269  10.821 -0.2470 -0.0523  0.2164
16048W        W31179   3.439   8.444  14.734 -0.1917  0.1160 -0.0852
16049W        W31180  10.097  13.131  15.840 -0.1909 -0.1425  0.0062
16050W        W31181   8.399  16.216   0.450 -0.0495  0.5062 -0.0468
16051W        W31182   3.661   0.124  12.007  0.2914 -0.1292 -0.3505
16052W        W31183   7.194  13.222  10.904  0.2963 -0.0708 -0.3374
16053W        W31184   6.840  10.710   2.668 -0.1176 -0.0809 -0.3104
16054W        W31185  17.508   5.819   5.368 -0.2361 -0.0981  0.0054
16055W        W31186   1.904   9.373  15.122 -0.2760  0.1931  0.3888
16056W        W31187   5.020  12.349  12.420  0.0639 -0.1241  0.1108
16057W        W31188   1.635  15.996   2.887  0.2012 -0.0608 -0.2713
16058W        W31189   6.616  10.149  14.074 -0.0503 -0.3376 -0.2883
16059W        W31190  10.794   5.163   0.457 -0.1620  0.0075 -0.0307
16060W        W31191   9.504  14.068  15.113 -0.1945 -0.1433  0.2213
16061W        W31192  12.216   9.787   5.423  0.0683  0.2159  0.4112
16062W        W31193  12.843   1.208  11.627  0.0137 -0.0655 -0.4237
16063W        W31194  11.446   9.867  10.032  0.1969  0.0789  0.1048
16064W        W31195   6.334  10.469  11.034 -0.0684  0.2496 -0.0855
16065W        W31196  14.411  10.826   3.394  0.1176  0.2480 -0.1288
16066W        W31197   0.324  17.841  13.351  0.0585  0.3546 -0.0812
16067W        W31198  10.105  15.581  12.229 -0.0996 -0.3343  0.3227
16068W        W31199  17.088   1.491  14.417  0.0302 -0.0148  0.2056
16069W        W31200  16.131  12.750   4.011 -0.0414  0.1209 -0.0004
16070W        W31201  15.239  12.130  12.799 -0.2736 -0.1611 -0.3577
16071W        W31202   0.189   9.706  15.778  0.1520  0.2813 -0.1421
16072W        W31203  16.811   7.680   5.733  0.1342 -0.0497  0.0054
16073W        W31204  17.230  16.539  11.824  0.3172 -0.0231 -0.0817
16074W        W31205   5.793   5.686   1.901  0.2053  0.3165 -0.2204
16075W        W31206  14.795   3.208   0.214 -0.0564  0.0423  0.1140
16076W        W31207   4.284   3.195  10.710  0.3497  0.2335 -0.1098
16077W        W31208  17.184   2.560  12.102  0.0504 -0.2765  0.2906
16078W        W31209   5.139  11.424   4.836 -0.0823  0.2420 -0.3285
16079W        W31210  13.298  17.060   2.357 -0.0803 -0.0074 -0.3135
16080W        W31211  13.880  11.356   2.258 -0.0619 -0.1652 -0.2620
16081W        W31212  13.025   8.941  15.490 -0.1488  0.0042 -0.3113
16082W        W31213   3.660   9.573  13.435 -0.0306  0.1780 -0.0068
16083W        W31214  10.083   3.458  16.086  0.2543 -0.0548 -0.0319
16084W        W31215  16.354  10.402  13.525 -0.1232 -0.0981 -0.0554
16085W        W31216   0.386   0.938   1.833  0.2538  0.2435 -0.4282
16086W        W31217  12.865  15.885   3.516  0.0884  0.1903  0.2231
16087W        W31218  10.485  14.691  12.557 -0.2300 -0.0605 -0.0282
16088W        W31219   9.061  11.927  11.146 -0.5219 -0.0105 -0.1392
16089W        W31220   8.621  16.284  15.663 -0.0615 -0.3715 -0.2000
16090W        W31221  15.517   9.467   2.219  0.0109  0.0150 -0.1634
16091W        W31222   0.668  11.013  14.507 -0.3264 -0.0828 -0.0176
16092W        W31223  17.543   6.212  13.042  0.1692  0.1280 -0.3565
16093W        W31224  14.060  16.318  12.853 -0.1426  0.2456 -0.0243
16094W        W31225   9.231   1.393  14.045 -0.1040  0.1671  0.2238
16095W        W31226  10.800   7.687  14.972 -0.1012  0.0807  0.0522
16096W        W31227  14.721   6.530   5.822  0.2292 -0.1869  0.0311
16097W        W31228  17.368  17.732   1.912  0.0734 -0.3483  0.4353
16098W        W31229  17.631   5.164  14.340  0.1143 -0.0177 -0.1608
16099W        W31230   5.980   1.003   2.625 -0.0652  0.1110  0.2073
16100W        W31231   5.998  10.749   3.174 -0.4569 -0.0452 -0.0625
16101W        W31232   7.995   9.902   3.236 -0.0734 -0.0830  0.1181
16102W        W31233  14.413   0.791  14.972 -0.1304 -0.2284 -0.0971
16103W        W31234   2.328   7.940   1.971  0.0457 -0.0874 -0.0374
16104W        W31235   4.398   2.224  13.436  0.3505  0.1190  0.1094
16105W        W31236   9.565  11.949   0.448 -0.1767  0.3267 -0.0558
16106W        W31237  12.837   2.057   1.632  0.1083 -0.2647 -0.3958
16107W        W31238  13.856   4.525   0.945 -0.1450  0.0242  0.2726
16108W        W31239  14.258   2.741  14.683 -0.2160  0.5463  0.1705
16109W        W31240   6.801  13.087   0.864  0.1582  0.1817 -0.0384
16110W        W31241  17.740  10.488  15.564 -0.2460 -0.2499 -0.0319
16111W        W31242  14.463  17.311  15.448  0.2914 -0.0013  0.2712
16112W        W31243   1.370  15.183  11.506  0.0960 -0.0570 -0.0054
16113W        W31244   6.264  12.585  13.983 -0.1405  0.1510 -0.0944
16114W        W31245   5.184   6.118  14.920 -0.1857  0.0808  0.1396
16115W        W31246  16.247   5.624  13.322  0.1004  0.1690  0.0186
16116W        W31247   7.753  15.522  16.015  0.1046 -0.1764  0.1286
16117W        W31248   9.094   0.012   5.642  0.0589 -0.0355  0.0923
16118W        W31249  16.516  13.882   5.075 -0.0266  0.0720 -0.2470
16119W        W31250   8.787   2.782   5.354 -0.1488  0.1620  0.0944
16120W        W31251   9.480  11.005   0.611  0.1770  0.0379 -0.1673
16121W        W31252  17.859  13.570   0.612  0.1675  0.1995 -0.0687
16122W        W31253   2.901   1.692   1.770  0.0490  0.1459 -0.0062
16123W        W31254   2.267   3.204   2.933  0.3027 -0.1152  0.1180
16124W        W31255  16.320  14.248  16.075  0.1618 -0.1900 -0.2097
16125W        W31256   7.293   7.344   1.292 -0.0466  0.0005  0.0993
16126W        W31257   2.904   1.928   2.248  0.2034 -0.0540 -0.1309
16127W        W31258   3.899   6.677  10.731 -0.0146  0.0170  0.1551
16128W        W31259   2.287  14.211   0.367  0.0844 -0.1113 -0.0559
16129W        W31260   8.032  17.364   0.372 -0.0508 -0.0161 -0.0218
16130W        W31261   1.582   2.584   2.489  0.0666  0.1293  0.3725
16131W        W31262  12.568   4.146   5.915 -0.0732  0.3911 -0.1875
16132W        W31263   4.307   6.826   2.772 -0.2495 -0.2894 -0.0964
16133W        W31264  17.815   3.557  13.076 -0.4500  0.1606 -0.4170
16134W        W31265   6.279   8.621  15.371 -0.0173  0.1924 -0.0609
16135W        W31266  14.421   5.433  14.397  0.0567 -0.1820  0.0456
16136W        W31267  10.148   6.794  11.368 -0.0278 -0.0374 -0.0558
16137W        W31268  13.385   8.223  14.642 -0.1640 -0.0194 -0.2419
16138W        W31269  15.206  10.848   3.691  0.0851 -0.0950 -0.2975
16139W        W31270  12.419  15.050  16.208 -0.1690  0.1687 -0.3396
16140W        W31271   2.513   2.782  13.221  0.0308 -0.0085 -0.1822
16141W        W31272   6.351  17.533  15.332 -0.0779 -0.0151  0.0731
16142W        W31273   7.593  12.301  15.004 -0.1452  0.0152  0.0305
16143W        W31274   3.551   7.258   2.110 -0.1988 -0.1128 -0.2781
16144W        W31275  16.006  11.429  14.802 -0.1029 -0.2738  0.0972
16145W        W31276  17.519   9.916  11.957  0.0527 -0.3107 -0.2921
16146W        W31277  12.114   3.278   4.732  0.1120  0.1371 -0.1292
16147W        W31278   9.007   6.009   3.593  0.0125 -0.1619  0.0501
16148W        W31279  11.400   2.241  14.934 -0.1121  0.1364 -0.0577
16149W        W31280   6.445   8.434   5.105  0.0580 -0.0531 -0.0053
16150W        W31281  14.513  13.747   1.904  0.1193 -0.3900  0.0064
16151W        W31282   7.838   0.334   4.738 -0.1281  0.1302 -0.2002
16152W        W31283  17.691  16.175   2.358  0.3066  0.0755 -0.1379
16153W        W31284   1.135  16.683   3.128  0.0454 -0.2204  0.0838
16154W        W31285  16.466  16.568  16.135  0.1145  0.2398 -0.2963
16155W        W31286   0.844   7.593   3.001  0.2121 -0.3042  0.0711
16156W        W31287  11.726  15.040  12.853 -0.0982  0.3040 -0.3375
16157W        W31288   7.660   2.865   0.137  0.1719 -0.0069 -0.1334
16158W        W31289  15.374   3.820   0.440  0.0704 -0.3442 -0.2027
16159W        W31290   2.531  15.724   1.872  0.2788 -0.1227  0.0169
16160W        W31291  17.550  13.154   5.135  0.1766 -0.3629  0.0301
16161W        W31292  15.498   6.193   0.252  0.1694  0.3307  0.3587
16162W        W31293  14.345   8.841  13.980  0.2362 -0.0402 -0.0915
16163W        W31294   1.758  15.054  15.899  0.0436  0.0152 -0.1982
16164W        W31295  16.274   8.566  12.105 -0.1389  0.0622  0.0365
16165W        W31296  15.704   2.286   4.280  0.1453 -0.0837  0.1398
16166W        W31297  11.627  12.917  11.626  0.3906  0.1560 -0.0244
16167W        W31298   8.524  10.000  14.743  0.1427  0.0964  0.0408
16168W        W31299  10.509   8.256  15.533 -0.1970  0.2508  0.1342
16169W        W31300   5.487  17.491  13.842  0.4230 -0.0382  0.1782
16170W        W31301  10.587   8.985   5.997  0.0252 -0.1370  0.1155
16171W        W31302  11.344   9.086  12.702 -0.5114 -0.1394 -0.2471
16172W        W31303   3.026   5.289   4.652 -0.0746  0.0292  0.0201
16173W        W31304   7.647   7.887  10.808 -0.0344 -0.1164  0.0033
16174W        W31305   3.174   7.002  15.467 -0.1197  0.0450 -0.0774
16175W        W31306   5.361  17.903  11.045  0.1195 -0.4105 -0.0513
16176W        W31307   3.069  16.997   3.697 -0.1344  0.0536 -0.0620
16177W        W31308   9.288   8.175  11.977  0.0960  0.0243  0.3307
16178W        W31309  12.567   8.849  14.080 -0.3150  0.1174  0.1144
16179W        W31310   0.885   2.790  12.916  0.1308 -0.0353 -0.0442
16180W        W31311  11.879  17.529  13.704 -0.0216 -0.2824  0.0732
16181W        W31312   0.883  14.622   2.659 -0.2148 -0.1079  0.0327
16182W        W31313   2.272  10.822  12.255  0.0078 -0.0459 -0.0093
16183W        W31314   1.807   2.472   1.757  0.0379 -0.2099 -0.0176
16184W        W31315   8.696   0.563  14.221 -0.1331 -0.1341  0.2487
16185W        W31316  17.335   4.015  11.828 -0.2176  0.0284 -0.1026
16186W        W31317  12.088   5.397  14.343  0.1026  0.0095 -0.0078
16187W        W31318  11.915  14.432   5.887 -0.1772  0.0181  0.1923
16188W        W31319   6.710  11.554   9.873 -0.1183  0.1262 -0.0580
16189W        W31320  14.737   2.284   1.425 -0.2696 -0.0535 -0.3529
16190W        W31321   8.035   8.909   1.018 -0.0396  0.2006 -0.4976
16191W        W31322  12.311   2.526   3.958 -0.1563  0.0749 -0.0756
16192W        W31323   8.329  12.678  12.433 -0.1118 -0.1674 -0.3279
16193W        W31324   9.840  15.811  14.522  0.0937 -0.3607  0.1116
16194W        W31325   6.211  16.043   3.164  0.1825 -0.0649 -0.2499
16195W        W31326  14.980  13.415   3.248 -0.0685 -0.1093  0.1870
16196W        W31327  14.379  15.757   1.712 -0.0581 -0.1480 -0.0903
16197W        W31328   5.467   8.191   5.327 -0.1111  0.0624 -0.1385
16198W        W31329   7.335   6.363   3.287  0.0677  0.1779 -0.0182
16199W        W31330  12.175  11.867   2.498 -0.0021  0.2279  0.0149
16200W        W31331  11.025  16.674  13.201 -0.0140 -0.0353  0.2780
16201W        W31332  16.990  12.060   0.606  0.1148 -0.0275  0.4031
16202W        W31333  14.119  12.477   5.759 -0.1208 -0.1337 -0.1704
16203W        W31334  13.318   4.056   1.694  0.0929 -0.1585  0.0607
16204W        W31335  10.716   1.351  12.970  0.2688  0.3346 -0.0336
16205W        W31336  12.800  11.773   1.484  0.2945 -0.3523 -0.1545
16206W        W31337  17.102   7.126   1.394  0.1398  0.1379 -0.0144
16207W        W31338  16.328   3.573  15.277 -0.2293  0.1454 -0.0706
16208W        W31339   0.647  13.857   0.846 -0.2284  0.1319 -0.0730
16209W        W31340   4.918  14.792  15.412  0.2315 -0.2311 -0.1991
16210W        W31341  17.104   1.408   3.450  0.1215 -0.0588 -0.1345
16211W        W31342  12.824  17.166  10.374 -0.1992 -0.0350  0.1935
16212W        W31343   7.248  15.111  14.237 -0.0822 -0.0126  0.0078
16213W        W31344   1.256  15.012  13.855 -0.0424  0.1678  0.1176
16214W        W31345  16.525   7.234   5.693 -0.3352 -0.2355  0.3000
16215W        W31346   4.618   4.147   4.345  0.1515  0.1624  0.0093
16216W        W31347   2.750  13.998   0.478 -0.0833  0.1786  0.5652
16217W        W31348   8.704  10.826   5.179  0.2024 -0.1709 -0.2070
16218W        W31349   3.843  16.493   1.074  0.1579 -0.0103  0.2700
16219W        W31350  11.350   3.537  12.977 -0.1174  0.2690  0.2922
16220W        W31351   3.040   3.219  15.058  0.1052  0.1688 -0.1695
16221W        W31352   2.095   9.265   3.232  0.0860 -0.0935 -0.3171
16222W        W31353   8.521  13.373   0.169 -0.0925 -0.0173  0.5250
16223W        W31354  10.729   5.213  15.656 -0.1547 -0.1717  0.0579
16224W        W31355   2.876  14.916   2.147 -0.0244 -0.1793 -0.0324
16225W        W31356  11.555  17.590   2.149  0.2564  0.1617 -0.0789
16226W        W31357   1.713   5.099   1.181 -0.4146 -0.1211 -0.1586
16227W        W31358  12.828  13.634   1.146 -0.1497  0.2286  0.1131
16228W        W31359  15.438   5.722  13.929  0.1585 -0.3397  0.0749
16229W        W31360   6.315  16.811   1.290 -0.0182  0.0114  0.0132
16230W        W31361  12.159  14.568   5.000  0.1114 -0.1679 -0.0377
16231W        W31362  11.169  12.191   5.166 -0.2445 -0.1468 -0.2726
16232W        W31363   7.693  12.913  14.311  0.0170  0.0129  0.0368
16233W        W31364  16.537   1.875  15.009 -0.0954  0.0553 -0.0041
16234W        W31365   6.056  11.656   1.119  0.1382  0.0047  0.1251
16235W        W31366   1.830  16.506  12.107  0.1754 -0.0847 -0.0902
16236W        W31367   6.034   9.741  10.999 -0.0903 -0.1252  0.1170
16237W        W31368  14.154   0.846   3.229  0.1741  0.1570 -0.1748
16238W        W31369  12.596   2.990   2.333 -0.1431 -0.0892 -0.0438
16239W        W31370   5.207   2.879   0.402  0.1107 -0.0215  0.0674
16240W        W31371  10.450   5.696   0.770  0.0097  0.0242  0.2297
16241W        W31372   1.680  11.301   1.923  0.2123 -0.5319  0.3097
16242W        W31373   5.590   8.198  13.626 -0.3329  0.2608  0.0858
16243W        W31374  11.590  11.404   1.368 -0.0460  0.0145 -0.0121
16244W        W31375   8.213   7.036   4.255 -0.3043 -0.0839  0.0386
16245W        W31376  14.928   9.631   4.094  0.0246 -0.3072  0.0463
16246W        W31377   0.111   1.298   4.995 -0.0071 -0.0832  0.0239
16247W        W31378  11.683   1.783   1.030 -0.0460 -0.1053  0.0059
16248W        W31379   7.599   7.656  11.806  0.0645 -0.3105  0.0064
16249W        W31380  15.853   4.987   1.841 -0.1766  0.1371 -0.2801
16250W        W31381  14.289   2.709  12.407  0.1663 -0.1957  0.1715
16251W        W31382  11.045   4.409  15.632  0.0667 -0.3794  0.0838
16252W        W31383  16.751  16.196   5.754  0.0865  0.0872 -0.0417
16253W        W31384   6.222   2.732  12.854  0.1508 -0.1282 -0.0480
16254W        W31385  13.419  11.144   4.605 -0.0496  0.1689  0.1582
16255W        W31386   1.996  14.380   2.390  0.0242  0.2425 -0.2727
16256W        W31387  14.552  17.947   0.259  0.0549  0.1693 -0.3210
16257W        W31388  11.889   0.774   1.314  0.1517  0.2854  0.1622
16258W        W31389   2.600  10.919  15.750 -0.3802 -0.0665 -0.0807
16259W        W31390   1.846   3.713   2.186  0.0454 -0.1617  0.0243
16260W        W31391  12.041  13.292   3.697 -0.3396 -0.2235  0.2065
16261W        W31392  10.493   4.051  13.551 -0.2024 -0.1330  0.0454
16262W        W31393   0.102   5.769  14.714 -0.0482  0.3983 -0.1145
16263W        W31394   4.909   9.263   1.928  0.2536 -0.1462 -0.0112
16264W        W31395   1.519   5.990  14.600 -0.0610  0.2944  0.1829
16265W        W31396  10.390  13.468   3.153 -0.2116 -0.0629 -0.1907
16266W        W31397  11.274   0.256   5.723  0.0433 -0.2632 -0.0669
16267W        W31398   8.204   5.353  14.122 -0.2560 -0.0757  0.0460
16268W        W31399   0.436   7.899   4.355  0.0002  0.1910  0.0008
16269W        W31400   7.530  16.012   4.299  0.0849 -0.4094  0.1931
16270W        W31401  12.539   0.633   3.255 -0.1634  0.0419 -0.2086
16271W        W31402  16.531  13.802  15.893  0.2435 -0.0910  0.1736
16272W        W31403  14.623   9.967  14.540 -0.2933 -0.1115 -0.3428
16273W        W31404   8.513  13.533   3.923 -0.3256  0.2091 -0.2969
16274W        W31405   3.836   7.404   5.134 -0.2817  0.2021 -0.0851
16275W        W31406   3.387   4.177   0.318 -0.0844 -0.4133 -0.0246
16276W        W31407   2.492  14.306   2.381  0.1594  0.0049 -0.1302
16277W        W31408   6.094   7.856  14.308 -0.4835  0.0252  0.1658
16278W        W31409   7.123  14.861  12.572  0.0374 -0.1447 -0.1628
16279W        W31410  14.584  11.222  13.697 -0.1718 -0.0568 -0.0766
16280W        W31411  15.242   7.538  13.777  0.0327  0.2829 -0.1260
16281W        W31412  18.030  12.658  12.799  0.0490 -0.0756 -0.1362
16282W        W31413  11.806  10.839  10.756  0.1855 -0.0561  0.2280
16283W        W31414   1.999  15.620  15.068 -0.0076  0.0997  0.0477
16284W        W31415  13.313   1.216   1.497  0.0112 -0.1377  0.1483
16285W        W31416   4.718   9.907  16.076 -0.2405 -0.0086 -0.1116
16286W        W31417   8.728  13.506  15.544 -0.0036 -0.0981  0.1091
16287W        W31418  16.622   1.275  12.640  0.1477 -0.0538 -0.1074
16288W        W31419   3.947   6.344  14.767 -0.3399  0.2001 -0.3250
16289W        W31420  15.152  13.569  15.214  0.0543  0.3659  0.1167
16290W        W31421   0.159   6.558  13.395  0.0924 -0.3663 -0.0370
16291W        W31422   6.191   0.482  14.857 -0.0223 -0.0771  0.2247
16292W        W31423   3.068   8.456   1.896  0.3249 -0.0715  0.3029
16293W        W31424  16.149  10.543  12.573 -0.2088 -0.1911  0.1529
16294W        W31425  14.622  14.007  13.766 -0.0173  0.3290  0.1065
16295W        W31426  11.464   3.409   2.314 -0.0835 -0.2440  0.2071
16296W        W31427   6.958   4.397   5.457  0.0291  0.1707  0.3611
16297W        W31428   1.469   1.630   4.838  0.0156  0.0385  0.2400
16298W        W31429   4.740  13.474   1.346  0.3054 -0.0710  0.1831
16299W        W31430   5.739   7.292  14.601  0.1038 -0.1007 -0.3666
16300W        W31431   5.932  13.538   4.858  0.1352  0.0340  0.1920
16301W        W31432   7.234   0.489  12.752  0.1988 -0.2063  0.1167
16302W        W31433   2.325  12.205  15.013 -0.2351 -0.1756  0.0645
16303W        W31434   4.877   0.248  12.511  0.0799 -0.0987  0.0286
16304W        W31435  16.095  12.207   5.402 -0.2138 -0.2432  0.1344
16305W        W31436  17.377   1.350  11.960 -0.0815 -0.0558 -0.2696
16306W        W31437  14.831  12.315  16.103 -0.4984 -0.2223 -0.4641
16307W        W31438  13.447  16.573  14.242  0.4051  0.1129  0.1116
16308W        W31439  14.770   0.243   5.681 -0.1396  0.0486 -0.0367
16309W        W31440  17.824   5.596   2.020 -0.1373  0.0188  0.3484
16310W        W31441  10.017  14.052  14.774 -0.0080  0.0636  0.1197
16311W        W31442  14.189  10.866   6.480 -0.0335  0.0506  0.3675
16312W        W31443   9.466  13.776   3.966  0.0374 -0.0245  0.1209
16313W        W31444  17.229   9.181   3.301 -0.1399  0.1244  0.0257
16314W        W31445   1.772  15.336   5.584 -0.2105 -0.2051  0.0547
16315W        W31446  13.827  11.451  11.449  0.4851 -0.0835 -0.0433
16316W        W31447   0.066   6.700   4.948  0.0263 -0.0490  0.3026
16317W        W31448   2.948  13.074  12.138  0.2205  0.1758 -0.1761
16318W        W31449   5.313   8.651   3.296 -0.2490 -0.1713  0.2240
16319W        W31450   4.154   4.769  10.925 -0.0970 -0.4246 -0.1500
16320W        W31451   6.349  14.923  15.628 -0.2380 -0.2093 -0.0631
16321W        W31452  10.439   1.849  14.125  0.1419  0.0992  0.1239
16322W        W31453   4.691  14.865  15.877 -0.3824 -0.0220  0.3875
16323W        W31454   9.567  15.106   0.599 -0.0782  0.3153 -0.0250
16324W        W31455   4.284   3.491   4.360 -0.3783  0.2617  0.0869
16325W        W31456  12.024  10.584  13.033  0.0614  0.1650 -0.0153
16326W        W31457   1.293  12.294  10.219  0.2894 -0.1387  0.3016
16327W        W31458  12.389   8.221   2.185  0.0283 -0.0207  0.2152
16328W        W31459   8.461   9.698   3.195 -0.0455 -0.1694  0.3097
16329W        W31460   1.001  14.168   0.674  0.4759 -0.2202 -0.1862
16330W        W31461  14.254  11.279   2.539  0.2221  0.5111  0.2406
16331W        W31462  15.125  15.132  14.780  0.0416  0.0169  0.2751
16332W        W31463  10.147  13.875   3.882  0.0903  0.0286 -0.1446
16333W        W31464   7.755   5.217  15.471 -0.0335 -0.0793 -0.3614
16334W        W31465  15.698   9.763  15.199 -0.1625 -0.2962 -0.0740
16335W        W31466   4.125   7.822  15.040  0.1161 -0.3424  0.3695
16336W        W31467   5.928  15.254   2.578  0.1739 -0.0640  0.2476
16337W        W31468  13.869   4.481   1.608  0.1196  0.0012 -0.0441
16338W        W31469   0.435  15.968   4.335 -0.0338 -0.2357 -0.1127
16339W        W31470   7.091  10.240  14.337  0.3803 -0.1867 -0.2896
16340W        W31471   9.673   2.351   0.608 -0.2029  0.1642  0.0968
16341W        W31472  11.576   5.879  15.025  0.1222 -0.1495  0.3493
16342W        W31473   6.255  12.797  11.673  0.1007  0.1456  0.0258
16343W        W31474   6.639   0.377   2.313  0.0170  0.0541  0.2789
16344W        W31475  13.602   3.743  12.544  0.1766  0.0116 -0.1869
16345W        W31476  10.820  11.318  10.673 -0.2185 -0.0129 -0.0147
16346W        W31477  11.098  15.841   1.968  0.0163 -0.0661 -0.2269
16347W        W31478   4.152   7.612  11.477  0.1311 -0.0773 -0.1646
16348W        W31479   7.573   6.656  14.308 -0.0952  0.0953  0.0907
16349W        W31480  11.991   6.690   3.526  0.1189  0.0561  0.1355
16350W        W31481   7.987   8.374  14.662  0.0423  0.1692  0.1100
16351W        W31482  11.166  10.193   1.247  0.0139 -0.0692  0.1362
16352W        W31483   8.519   4.730   0.167  0.1459 -0.1081  0.1961
16353W        W31484   7.305  11.542  15.978 -0.1152 -0.4170 -0.1733
16354W        W31485   2.496   9.159   0.146  0.0704  0.0379  0.1108
16355W        W31486  13.998   0.257   2.443  0.0392 -0.0471 -0.0999
16356W        W31487   7.300   4.501  15.510 -0.0827 -0.2381 -0.0494
16357W        W31488   0.243  14.192   2.018 -0.0028  0.2059  0.2135
16358W        W31489   9.492   9.435  15.801  0.1802 -0.0803 -0.0477
16359W        W31490   1.040   1.536   2.481 -0.0437  0.0464 -0.0287
16360W        W31491   4.393   7.812   2.080  0.2659 -0.0396  0.0684
16361W        W31492   4.373   3.395   1.376 -0.1038 -0.1927  0.1294
16362W        W31493  13.117   0.906   0.780  0.2813  0.2397  0.4033
16363W        W31494   5.619   5.634  11.680 -0.1105 -0.0567  0.1435
16364W        W31495   0.002   2.191   1.772  0.2204  0.0232 -0.0002
16365W        W31496   8.782   7.920   0.717 -0.1051 -0.0856 -0.2149
16366W        W31497  15.930   8.797  11.859  0.2633  0.0141 -0.0241
16367W        W31498   5.841  10.649  12.201  0.1271  0.3118  0.1201
16368W        W31499  14.999   7.289   0.120 -0.1403 -0.1348  0.0081
16369W        W31500   2.225   2.489   0.706 -0.0163  0.2584  0.2494
16370W        W31501   3.186  17.339  13.307 -0.0698  0.0252  0.1978
16371W        W31502  16.876   9.956   4.251 -0.1253 -0.0145  0.3705
16372W        W31503  10.881   8.007   2.022 -0.1257 -0.2267  0.0016
16373W        W31504   2.585   9.572  15.582 -0.0837  0.1632  0.1043
16374W        W31505   0.967  17.936   0.319 -0.1759  0.1357 -0.0345
16375W        W31506  15.430  16.443  16.164 -0.0078  0.1103  0.1253
16376W        W31507   7.960  15.202   1.137 -0.0216  0.1983  0.1640
16377W        W31508  17.659  17.678  11.437  0.2251  0.1882 -0.1331
16378W        W31509  12.492  13.052   1.855  0.1246 -0.1735  0.0765
16379W        W31510  11.005   7.033  10.220  0.2047 -0.1742 -0.5535
16380W        W31511   6.999   0.223  11.097  0.1702 -0.0741  0.2147
16381W        W31512  16.122   4.588   5.031  0.3971 -0.1815 -0.2295
16382W        W31513  12.922  12.365  12.136 -0.0080  0.0869  0.1736
16383W        W31514   6.715  10.236   2.681  0.2219 -0.1027 -0.0661
16384W        W31515   7.709   4.578  11.392 -0.1018  0.1284 -0.0266
16385W        W31516  12.343  12.846   2.851  0.0012 -0.2871 -0.1349
16386W        W31517   6.872  12.091  12.812  0.0992  0.2937  0.0786
16387W        W31518   7.329  16.529   2.216 -0.0274  0.0471 -0.1423
16388W        W31519   3.114   3.660   3.447 -0.3397  0.1284  0.1188
16389W        W31520  13.778  15.928  13.072 -0.0028  0.0726  0.0057
16390W        W31521   5.429   6.861  14.606  0.0117 -0.1834  0.0618
16391W        W31522  10.629   4.389   4.862  0.0388  0.1050  0.1859
16392W        W31523   3.777   5.508  15.649  0.1565  0.0372  0.0264
16393W        W31524   9.672  11.819   3.895 -0.2075 -0.2389 -0.3821
16394W        W31525   3.874   5.066  15.928  0.4452  0.2348 -0.2213
16395W        W31526  16.260   5.938   1.462  0.1683 -0.0376 -0.2398
16396W        W31527   8.648   2.249  11.759 -0.3115  0.2261 -0.0884
16397W        W31528   7.971   8.409  11.517  0.0568  0.3219  0.0991
16398W        W31529   6.997  17.241  15.756 -0.0092  0.2664 -0.0948
16399W        W31530   3.966   7.232  15.920  0.0277  0.1983  0.1415
16400W        W31531  13.379   8.730  11.504 -0.0886 -0.0518 -0.1819
16401W        W31532   7.871   7.876   5.826  0.0260  0.1175  0.1920
16402W        W31533   0.053   2.738  10.894  0.3785  0.3033  0.2541
16403W        W31534  15.930   6.357   5.126  0.1203 -0.2915 -0.3429
16404W        W31535  16.560   4.985   6.323 -0.2669  0.0463  0.1992
16405W        W31536  13.519  13.673   4.482  0.0840 -0.0608 -0.1687
16406W        W31537   2.178  16.633   0.496  0.0787  0.1242 -0.0804
16407W        W31538  13.742  11.717   1.417  0.0540 -0.1203 -0.0292
16408W        W31539  17.238  11.887   1.089  0.7738  0.0395 -0.0415
16409W        W31540   1.099  15.883  14.262 -0.2934 -0.3456  0.3158
16410W        W31541   1.505   4.377   5.130 -0.0522  0.1043 -0.2152
16411W        W31542   5.785  11.586  15.468  0.1660 -0.0075 -0.1750
16412W        W31543  12.922   0.691   0.269 -0.0589 -0.0633  0.2533
16413W        W31544   8.746   8.322   2.500  0.4523  0.1239 -0.3653
16414W        W31545   9.699   3.685  12.115  0.2524  0.0958  0.0439
16415W        W31546   3.460   3.517  11.719 -0.2527 -0.2258 -0.0530
16416W        W31547   4.049   5.855  15.904  0.2608  0.3431  0.0734
16417W        W31548  14.333  10.175  13.467  0.0854 -0.2027 -0.1927
16418W        W31549   4.747   0.847  12.283 -0.0431 -0.1119 -0.1557
16419W        W31550  10.171   0.238  11.021  0.1018  0.0210 -0.3317
16420W        W31551  11.143   2.843   3.932  0.1538  0.1699  0.0563
16421W        W31552   2.574  12.732   2.725 -0.2486  0.0010 -0.3193
16422W        W31553   2.081   0.826  13.394  0.2426  0.0147  0.3347
16423W        W31554   2.220   9.108  14.264  0.2280 -0.2475  0.0135
16424W        W31555  14.985   1.131   4.289 -0.0441  0.1587 -0.1379
16425W        W31556  13.170   6.299  14.905  0.1204  0.0288 -0.0122
16426W        W31557  17.152   6.370  11.161 -0.2755  0.2267  0.0185
16427W        W31558   4.667  16.332  16.214  0.1690  0.1776 -0.1171
16428W        W31559  15.170   6.907   4.732  0.0261 -0.1332  0.6053
16429W        W31560  10.449  13.582   4.274  0.2719  0.0367 -0.5125
16430W        W31561   2.688   3.476   2.111  0.0917 -0.1467  0.2962
16431W        W31562   8.903  13.041  10.579 -0.0018 -0.2605 -0.0814
16432W        W31563   8.896   6.490   4.154  0.3888  0.1883 -0.2189
16433W        W31564  13.911   3.914  13.026  0.1113 -0.0734 -0.2732
16434W        W31565  12.249  13.050  12.304 -0.0835 -0.2353  0.1542
16435W        W31566  16.491   7.123   4.932 -0.2705  0.2274 -0.1961
16436W        W31567   4.569  10.830   0.275 -0.0443 -0.1234  0.1547
16437W        W31568   8.686   9.614   2.046 -0.0721 -0.0956 -0.0458
16438W        W31569   6.799   2.559   0.183  0.0936  0.1496 -0.1865
16439W        W31570   4.569   5.667   2.833  0.6674 -0.0891  0.0292
16440W        W31571   4.779  11.589  11.879  0.0486  0.2358  0.1528
16441W        W31572   3.296   4.202  15.573 -0.0681  0.1870 -0.0784
16442W        W31573  10.296  14.463  14.540 -0.0816  0.1420 -0.1124
16443W        W31574   6.632   0.971  13.978 -0.1823  0.0406  0.1378
16444W        W31575  13.851  15.690   4.448 -0.0660  0.0667 -0.0625
16445W        W31576   6.410  13.031   4.717 -0.0109  0.2551 -0.2240
16446W        W31577   2.379   6.443   4.781  0.1211  0.0971 -0.0459
16447W        W31578   4.173   1.445   4.956 -0.1277  0.2672 -0.2821
16448W        W31579  11.435  13.750  11.349 -0.1320  0.2647  0.0417
16449W        W31580  12.458  12.074  13.982 -0.1725 -0.1081 -0.2750
16450W        W31581  13.383  11.154   3.052  0.0789 -0.3714 -0.0022
16451W        W31582   2.877   6.692   0.564  0.2580 -0.0516  0.3505
16452W        W31583  11.456   0.266  16.133  0.4128  0.0879  0.0188
16453W        W31584  13.348   9.632   2.247 -0.2004  0.1516  0.0694
16454W        W31585  10.549  14.253  11.716  0.0550 -0.1540  0.0684
16455W        W31586   9.775   9.792   0.417 -0.1648 -0.1054 -0.1357
16456W        W31587   2.534   8.540  14.053  0.0238 -0.1064  0.1324
16457W        W31588   5.933  17.774   1.846 -0.2610 -0.1522 -0.1559
16458W        W31589  14.733  15.349   4.035  0.0395  0.0045  0.0791
16459W        W31590   0.060  15.650  12.900 -0.1982  0.3329 -0.0989
16460W        W31591   2.698   0.448  12.249 -0.0905 -0.1271  0.1746
16461W        W31592   3.641  10.790  14.036  0.0312 -0.0452  0.2959
16462W        W31593  16.964  16.300  14.843  0.0391 -0.0956 -0.2645
16463W        W31594  16.735  13.999  12.669 -0.0775  0.0443 -0.1512
16464W        W31595  16.364  11.110   4.547 -0.0250 -0.2369  0.2060
16465W        W31596   6.606   8.254  15.562  0.1600  0.2235 -0.0240
16466W        W31597  11.679   8.163  12.048  0.1880 -0.2243 -0.0171
16467W        W31598  17.001  11.734  12.061  0.0040 -0.3722  0.0442
16468W        W31599   9.109  15.688   4.955 -0.1016  0.0334  0.2335
16469W        W31600  12.187  13.799   3.123  0.1627  0.1828 -0.0594
16470W        W31601  12.941  14.573   4.285  0.0264  0.1521  0.1016
16471W        W31602   3.154   9.054   4.103  0.1702  0.1433 -0.2998
16472W        W31603   8.177   8.141  15.216  0.0658 -0.1554 -0.0721
16473W        W31604   3.149  15.206  14.867  0.1542  0.1434 -0.1176
16474W        W31605  15.479  10.709  14.672  0.0257 -0.1710  0.2258
16475W        W31606   4.102  17.125  11.262 -0.1471  0.2745 -0.0952
16476W        W31607   8.282   8.781  16.169 -0.0652  0.1221  0.0270
16477W        W31608   8.291   3.931  14.813 -0.1252 -0.1007 -0.1076
16478W        W31609   4.052  17.867   1.937  0.1533  0.0444  0.0282
16479W        W31610   3.945  11.275   3.481  0.1822 -0.0530 -0.1736
16480W        W31611   4.942   0.409  10.368 -0.1414  0.0501  0.4002
16481W        W31612   2.131   4.244  13.505  0.3056 -0.0960 -0.0990
16482W        W31613  16.559   8.578   0.160 -0.0880 -0.0207  0.2077
16483W        W31614   2.175   0.581  11.293 -0.1345 -0.1610 -0.0500
16484W        W31615  13.508  12.336   5.225  0.0674 -0.3687 -0.1430
16485W        W31616  14.254  13.576  11.606  0.1248 -0.0921  0.1621
16486W        W31617  17.570   2.840  15.035  0.1420 -0.0555  0.0938
16487W        W31618  10.483   4.459   0.352 -0.2677 -0.0526  0.3197
16488W        W31619   5.566   2.397   2.910  0.2666  0.4654  0.2444
16489W        W31620  16.177   3.688  13.084  0.0658  0.1271  0.0734
16490W        W31621  17.981   8.413   4.878 -0.3567  0.3037  0.2539
16491W        W31622   8.612   0.395   0.113  0.1109  0.2087 -0.3468
16492W        W31623  18.156   1.690   1.791 -0.1031  0.1389  0.1222
16493W        W31624   1.865   0.211  11.635  0.2984  0.2765  0.0090
16494W        W31625   3.923  11.938  16.133  0.0911  0.3122  0.0597
16495W        W31626  12.454  12.464  12.421  0.2052 -0.1285 -0.0340
16496W        W31627   7.620  15.301   4.734  0.0005  0.1116 -0.1295
16497W        W31628  18.173   8.516  15.554  0.1382  0.1006 -0.2057
16498W        W31629  13.485   6.864  12.888  0.0709 -0.2471 -0.0193
16499W        W31630   6.685   2.347  12.732 -0.2179 -0.0808 -0.2042
16500W        W31631   5.913  10.593   1.229 -0.0035 -0.3721 -0.0528
16501W        W31632  12.094  12.527   5.286 -0.1119 -0.0001  0.1836
16502W        W31633   7.810   2.068   0.089  0.1468 -0.0306  0.0027
16503W        W31634   5.087   2.381  11.694  0.1468 -0.2182 -0.1580
16504W        W31635  13.978  14.775  14.214  0.2013  0.0347 -0.1230
16505W        W31636   9.348  11.247  10.492 -0.0391  0.1555 -0.1113
16506W        W31637  13.411  10.927  14.136  0.2804 -0.0519 -0.2798
16507W        W31638   7.216   4.885   2.661 -0.0991 -0.3408  0.0613
16508W        W31639  16.433   8.899  12.464 -0.1576  0.0241 -0.0307
16509W        W31640   0.198  11.341  14.578  0.0944  0.0726  0.1731
16510W        W31641  13.087  14.083   3.489 -0.2309  0.1351  0.0440
16511W        W31642   1.327   8.399  12.355  0.1987  0.0152 -0.0605
16512W        W31643  16.177  11.783  15.716 -0.0450  0.1698  0.0889
16513W        W31644  12.779  11.861   0.030  0.1148  0.0357 -0.1888
16514W        W31645  16.669   5.504   3.462 -0.2140 -0.2964  0.0063
16515W        W31646  16.943   6.819   2.221 -0.1313 -0.0286 -0.0658
16516W        W31647   8.491   5.147  15.663 -0.1281 -0.2094  0.0272
16517W        W31648  16.629  16.150   4.825 -0.1183 -0.1558 -0.0952
16518W        W31649  15.408   1.712   5.287 -0.1016  0.2349 -0.3222
16519W        W31650   4.941   7.155   3.395 -0.1258 -0.3927  0.0264
16520W        W31651  12.005   1.106   4.291 -0.2994  0.0382 -0.3347
16521W        W31652   5.301   7.789   1.831 -0.0004  0.1626  0.0916
16522W        W31653   8.770   3.119  15.303  0.2401 -0.2804 -0.4033
16523W        W31654   7.519  17.133  14.358  0.1076 -0.2154 -0.2544
16524W        W31655  13.894   3.165  14.853 -0.0565  0.2657 -0.2346
16525W        W31656  17.672  17.608   3.056 -0.0340  0.1526  0.2282
16526W        W31657   3.452   9.274  14.123 -0.1694 -0.0192  0.2267
16527W        W31658  10.653   5.636  12.378 -0.0181  0.0661  0.0184
16528W        W31659  12.033   7.135   5.473 -0.0610 -0.1345 -0.0936
16529W        W31660  10.620   0.084  15.713  0.0326  0.1741 -0.0323
16530W        W31661  14.575   2.016  14.984 -0.3398  0.2657 -0.0371
16531W        W31662   3.537  11.749   0.088  0.2242 -0.1365 -0.0684
16532W        W31663   4.100   8.573  14.329 -0.1040 -0.0695 -0.1597
16533W        W31664  16.591   7.034   2.012 -0.3031  0.0070  0.1207
16534W        W31665  10.489   8.594   5.017  0.1339 -0.0333  0.0103
16535W        W31666   3.195   8.654  14.366 -0.0186  0.1654  0.2562
16536W        W31667   9.984   6.694  16.017  0.1355  0.0244  0.0793
16537W        W31668  14.891   9.244  10.183  0.1750  0.1704 -0.3053
16538W        W31669   7.454  14.680   0.588  0.0215 -0.1089  0.1341
16539W        W31670   7.915  13.994  12.818  0.2204 -0.0757  0.1708
16540W        W31671  17.745   2.312  13.585 -0.1903  0.1696 -0.1743
16541W        W31672   0.550  16.312  15.454  0.1034  0.2380 -0.1210
16542W        W31673   3.908  12.322  11.834  0.0709  0.4570 -0.0008
16543W        W31674   6.757  11.770   4.789  0.3349  0.0930  0.0891
16544W        W31675  16.827   4.015   0.741  0.0255  0.0213  0.1522
16545W        W31676   4.566  13.147   4.525 -0.1160 -0.0629  0.0632
16546W        W31677  14.716  16.463   4.918  0.0473 -0.1229 -0.0566
16547W        W31678  13.523  13.426   6.114  0.4270  0.2608 -0.0229
16548W        W31679   6.489   6.435  11.195 -0.0990  0.3499 -0.0042
16549W        W31680   4.216   2.728   0.044 -0.1900 -0.0691 -0.1225
16550W        W31681  13.859  17.367  12.143  0.0258 -0.0229  0.2177
16551W        W31682   5.186   2.566   3.338 -0.2342 -0.2250  0.1530
16552W        W31683   3.910  12.669  14.151  0.0909  0.1311  0.1529
16553W        W31684   1.611  16.069   5.597  0.1904  0.2827  0.0571
16554W        W31685  12.832  15.875   4.968  0.0674 -0.1296 -0.2584
16555W        W31686  14.157   6.316  11.776 -0.2264 -0.1095  0.0657
16556W        W31687   8.391   5.860   3.724  0.0323  0.0382  0.0994
16557W        W31688  12.413   1.094   2.723 -0.0991  0.1178  0.0957
16558W        W31689   4.386  13.245  12.110 -0.1527 -0.0349 -0.0969
16559W        W31690   3.087  15.405   2.002 -0.0145 -0.0901  0.2857
16560W        W31691   2.568  10.011  12.675  0.1742  0.2253  0.1090
16561W        W31692   6.645  15.618   4.005  0.1714 -0.4195 -0.2767
16562W        W31693  12.920   1.809   3.742  0.2074  0.0891  0.0907
16563W        W31694   1.523  12.599   5.768  0.2047 -0.0210 -0.0146
16564W        W31695  12.629   8.938   4.173 -0.2457  0.0325  0.0586
16565W        W31696   0.176  17.098  12.655 -0.2325  0.0354  0.0004
16566W        W31697  11.892  10.611   4.097  0.1825 -0.1910  0.1172
16567W        W31698  15.876  14.818  14.254  0.0738  0.1740 -0.1533
16568W        W31699   0.722   6.210  16.093  0.1928  0.1166  0.3676
16569W        W31700  14.881  11.964  13.208 -0.0491 -0.1640  0.1059
16570W        W31701   4.624   6.089   0.670  0.0294  0.0913 -0.0524
16571W        W31702  16.265   8.640   9.936 -0.2672  0.3237  0.0294
16572W        W31703   7.203   3.893   3.334  0.1786  0.1951  0.0232
16573W        W31704   7.120  17.738   0.253 -0.3745 -0.4083 -0.1646
16574W        W31705  10.184  12.272   0.007 -0.0121  0.0136 -0.2234
16575W        W31706  16.992  13.978  13.273 -0.2105 -0.0992  0.1395
16576W        W31707   5.339  16.735  13.451  0.2397 -0.2690 -0.1408
16577W        W31708  16.702  16.195   2.998 -0.3344 -0.0469 -0.1166
16578W        W31709   2.828   5.314  12.262 -0.2940 -0.3237 -0.0404
16579W        W31710  12.245   2.943  13.106 -0.2076  0.3750 -0.2595
16580W        W31711   5.031  10.016  15.636  0.0278 -0.0437  0.0026
16581W        W31712  17.644  11.105   2.625  0.0678 -0.0065 -0.2037
16582W        W31713   2.101  15.499   2.762  0.1728  0.1492 -0.0610
16583W        W31714  12.037   0.666   2.462 -0.3092  0.3339 -0.4112
16584W        W31715   6.184  16.043   4.786 -0.1174 -0.0213  0.0606
16585W        W31716  15.529   9.349  15.655 -0.0933 -0.1204  0.0783
16586W        W31717   1.578  11.203  11.574 -0.0674 -0.0560  0.1018
16587W        W31718  13.972   6.632   4.210  0.1306 -0.2146  0.3812
16588W        W31719   9.081  13.270  13.645  0.0259  0.1006 -0.4414
16589W        W31720   7.197   3.799  11.408  0.4261  0.1602  0.0603
16590W        W31721   7.423  10.834   3.192  0.1087 -0.1043  0.0186
16591W        W31722  12.499   0.440  11.137 -0.6454 -0.2495  0.0379
16592W        W31723   0.500  12.383   4.303  0.0023  0.2376 -0.1164
16593W        W31724   8.915  15.398  13.052  0.1709  0.2484 -0.3510
16594W        W31725  10.596   3.272  11.644 -0.0606  0.1083 -0.2041
16595W        W31726  10.451   4.892  15.360  0.1436 -0.0333 -0.1275
16596W        W31727  17.424   6.597   4.503 -0.3923  0.3868 -0.1022
16597W        W31728  12.562  10.483  15.554 -0.1110  0.1318  0.0857
16598W        W31729   9.018   3.773  13.316  0.2508 -0.1477  0.3475
16599W        W31730   3.848   4.454  11.194  0.0599  0.3062 -0.2005
16600W        W31731  15.569   1.390   3.269  0.2943 -0.2012 -0.0582
16601W        W31732   3.898  12.211  12.356  0.0974 -0.0868  0.0390
16602W        W31733  12.341  18.139  11.321 -0.1775 -0.2086 -0.0299
16603W        W31734  12.993  17.174   3.421 -0.1258 -0.0713 -0.3012
16604W        W31735  12.751  13.782   2.490 -0.1103  0.0493  0.0313
16605W        W31736   1.529   4.490   4.108  0.1864 -0.0573  0.2297
16606W        W31737   2.463  13.519  12.851  0.0981 -0.0881 -0.1199
16607W        W31738   9.944  10.588  15.666 -0.0566 -0.0204 -0.0388
16608W        W31739  12.257   9.330  15.711 -0.0744  0.2942 -0.0642
16609W        W31740  14.232  13.398  14.413  0.3434  0.0870 -0.0304
16610W        W31741  17.616   9.344  16.052 -0.1179  0.0584  0.1932
16611W        W31742  11.369   0.849  12.699  0.2808  0.0695 -0.4286
16612W        W31743  11.641   7.651   1.813 -0.0714  0.0085 -0.0038
16613W        W31744   2.216  10.111   1.381  0.0266  0.0441 -0.2243
16614W        W31745  13.047  12.146   2.357  0.1721  0.0549  0.0883
16615W        W31746   3.465  13.980  14.357 -0.1510  0.0338 -0.2757
16616W        W31747  16.944  14.581  14.510  0.1574  0.0684 -0.2303
16617W        W31748   2.676   3.574   3.186  0.0214  0.0287  0.1873
16618W        W31749   1.672   2.035  11.728 -0.0067 -0.1842  0.0984
16619W        W31750  11.599   8.028  14.409  0.1796 -0.1755 -0.0070
16620W        W31751  11.739   7.063  12.372  0.1316 -0.0911 -0.2273
16621W        W31752  15.195   4.640  12.583 -0.0381 -0.0041  0.1049
16622W        W31753   6.499   5.292  12.665  0.2855  0.0368 -0.0116
16623W        W31754   4.335   2.144  12.375 -0.1095  0.0341  0.1171
16624W        W31755   9.075   0.070  10.721 -0.3164  0.2291 -0.0048
16625W        W31756  11.299   9.308  11.668 -0.2045 -0.0229  0.3036
16626W        W31757   7.973   6.377  11.096  0.0970 -0.0764  0.0493
16627W        W31758   1.094  16.379  15.636  0.1800  0.1171 -0.1610
16628W        W31759  13.148   2.931  11.000 -0.0625  0.0252  0.0372
16629W        W31760  16.938  12.536  15.565 -0.1115 -0.5339  0.0186
16630W        W31761   8.141   0.547   0.384  0.1050  0.1235  0.3366
16631W        W31762  10.084   9.072  12.679 -0.0223  0.1213 -0.3100
16632W        W31763   6.528  18.077   5.057  0.3421  0.0053  0.1807
16633W        W31764  12.657  17.310   2.440 -0.0553  0.2191 -0.0742
16634W        W31765  17.908  12.947   2.398 -0.2338 -0.2097  0.0432
16635W        W31766  13.607  13.396  15.484 -0.1732 -0.2542 -0.0052
16636W        W31767   8.744   5.586  15.360  0.0358 -0.1237  0.0820
16637W        W31768   5.709  15.959   4.362 -0.0499  0.2190 -0.1190
16638W        W31769   6.320   7.109  14.771  0.0594  0.2914  0.1316
16639W        W31770  15.297  15.388   2.430 -0.2896 -0.0621 -0.2594
16640W        W31771   4.969  12.651  10.368  0.0436  0.0042 -0.0876
16641W        W31772   8.830  10.060  11.619 -0.1574 -0.0356 -0.0288
16642W        W31773   0.724  15.382   1.390  0.0389  0.2547 -0.3014
16643W        W31774  16.306  13.430  14.707 -0.0024 -0.0898  0.2185
16644W        W31775  15.861  12.610   2.262  0.1954 -0.0908 -0.2440
16645W        W31776   4.830   5.560   0.199 -0.1809 -0.0456  0.1821
16646W        W31777   9.795  12.260  12.315  0.2448  0.1648 -0.3183
16647W        W31778   2.211   4.072  15.951 -0.0379  0.0814 -0.1766
16648W        W31779   6.705  10.200  12.081 -0.1025 -0.1325 -0.0902
16649W        W31780   0.265  18.115  15.105 -0.2011  0.0073 -0.2796
16650W        W31781   6.701  12.606  15.913  0.0025 -0.0058 -0.0025
16651W        W31782  16.049  10.038   5.016 -0.0906 -0.1428 -0.0911
16652W        W31783  16.693   7.253  15.261  0.0926 -0.0930  0.1593
16653W        W31784   0.187   6.961  12.570 -0.1687 -0.0578  0.2867
16654W        W31785  12.541   1.692   1.010  0.0508  0.2638 -0.0560
16655W        W31786   0.077   4.809   2.716 -0.3671  0.0947  0.1231
16656W        W31787   4.655  14.244   1.573  0.0138 -0.1849  0.2292
16657W        W31788  17.686  12.400   4.987 -0.0071  0.2258  0.0322
16658W        W31789   2.642  12.336  10.942  0.0647 -0.3406  0.2275
16659W        W31790  16.871   4.725   2.664 -0.1107  0.2058 -0.0590
16660W        W31791  13.022  16.229  14.085  0.1741  0.0813  0.0267
16661W        W31792   6.706   6.589   4.576  0.0215  0.0299  0.1462
16662W        W31793   8.497  12.914  10.131  0.4761  0.0697  0.0951
16663W        W31794  17.959  16.566  13.455  0.1603 -0.1417 -0.1883
16664W        W31795   1.800   2.388   3.332 -0.1063 -0.0231 -0.4502
16665W        W31796  11.755  17.132  12.855 -0.2546  0.0758 -0.0782
16666W        W31797   1.378   4.556   2.195  0.2129 -0.0475  0.3739
16667W        W31798   6.023   0.564  15.433  0.0199  0.3652  0.0967
16668W        W31799  17.035  12.703  16.037  0.1410  0.0469  0.0626
16669W        W31800   6.355   7.336   1.572  0.2569  0.1515  0.2426
16670W        W31801   9.903   9.445  11.221  0.0403  0.0352  0.1044
16671W        W31802   0.980   9.630  14.138 -0.1298  0.0092 -0.1803
16672W        W31803   6.299   9.885   1.261 -0.0469 -0.3744 -0.0011
16673W        W31804  15.956   7.175  13.564  0.0492 -0.3037 -0.1800
16674W        W31805   8.623  17.903   3.203 -0.0550 -0.0895 -0.1480
16675W        W31806  15.603   3.396   9.813 -0.1463 -0.0020 -0.3491
16676W        W31807  12.202   1.098  12.723  0.2269 -0.2499 -0.3177
16677W        W31808   1.668   2.892  15.325 -0.2314  0.2413  0.0906
16678W        W31809  13.212  16.954  13.808 -0.0005  0.0367  0.1134
16679W        W31810   2.231  17.636  14.834 -0.1339 -0.2916  0.3736
16680W        W31811   1.618  14.087  14.799 -0.2562  0.1336  0.0412
16681W        W31812   0.826  14.399  12.088 -0.4173  0.1893 -0.1513
16682W        W31813  11.621   6.702   5.577  0.0792  0.2843  0.1589
16683W        W31814   3.312  14.805  13.245 -0.1974  0.1859 -0.3387
16684W        W31815   8.278   6.821  10.897  0.1436 -0.0113 -0.1946
16685W        W31816   9.601  17.557   2.049 -0.1396 -0.0823 -0.0879
16686W        W31817   5.704  12.137   0.017  0.2112  0.1019 -0.1465
16687W        W31818   2.755  17.366   0.281  0.2162 -0.0069  0.0915
16688W        W31819  14.307   0.823  14.441 -0.1293  0.1339 -0.1420
16689W        W31820   3.795  15.633  11.002  0.3103 -0.1002  0.0620
16690W        W31821  15.173   0.340   1.585  0.1261 -0.3543  0.0283
16691W        W31822   2.938   2.151  14.068  0.0638  0.2697 -0.0531
16692W        W31823  14.209  11.940   5.694  0.0479 -0.1757 -0.1523
16693W        W31824  17.592  15.140   0.419 -0.1424  0.0219 -0.0952
16694W        W31825   9.049  12.758  14.460  0.0557  0.0066  0.0745
16695W        W31826   8.608  17.012   2.673 -0.1951 -0.0498 -0.2651
16696W        W31827  12.569   8.496  11.790 -0.2266  0.0518  0.1350
16697W        W31828  10.827   3.992   5.226 -0.0315 -0.0260  0.0823
16698W        W31829   9.898  12.672  12.669  0.1637  0.1617  0.0081
16699W        W31830  11.339   5.401   3.369  0.1661 -0.2174 -0.0243
16700W        W31831   1.029  17.481   0.594  0.2209 -0.1616  0.0699
16701W        W31832  13.760   5.201  14.369  0.0573 -0.1638 -0.1016
16702W        W31833  15.227   9.281  13.229  0.0802  0.0666  0.1016
16703W        W31834   8.798  13.709   2.560 -0.1781  0.1652  0.1279
16704W        W31835   8.565  15.571   4.963  0.1928  0.1278 -0.0795
16705W        W31836   5.250  15.095  12.529  0.1892 -0.1484  0.3009
16706W        W31837  11.332  13.040  16.101  0.1034 -0.1499  0.2737
16707W        W31838   0.679   8.199   1.770  0.4444 -0.1362  0.0461
16708W        W31839  10.515   9.491  12.273 -0.0455  0.0596 -0.1996
16709W        W31840  13.640  10.023  15.820 -0.1147  0.0865  0.2481
16710W        W31841  12.736   0.642  11.664  0.0653 -0.3385  0.1124
16711W        W31842  17.774  17.579  13.393 -0.0034 -0.3919  0.0593
16712W        W31843  15.186   6.014  15.960 -0.1931 -0.0389 -0.0401
16713W        W31844  15.646   7.524   4.532  0.0060 -0.2829 -0.0604
16714W        W31845  10.146   0.164   1.138 -0.2756  0.1212  0.0339
16715W        W31846  14.943   5.793  12.801  0.0497  0.3137  0.1745
16716W        W31847   0.830  15.592   5.554 -0.2635  0.0908  0.1909
16717W        W31848  10.823  16.113   4.273  0.4349 -0.2356 -0.0362
16718W        W31849   8.599  12.189  13.238  0.0772 -0.1247  0.0412
16719W        W31850  15.369   8.268   5.492  0.2557  0.0760 -0.3368
16720W        W31851   8.540   7.134  13.872 -0.0918  0.0274  0.1484
16721W        W31852   1.819   3.282  15.825  0.1636 -0.1148 -0.0238
16722W        W31853   9.787  12.255  15.913 -0.4082 -0.0471 -0.0089
16723W        W31854   3.091   8.108   3.202  0.0181  0.1594  0.1496
16724W        W31855   6.126   4.622  14.068 -0.3094  0.2580  0.0494
16725W        W31856   0.129   4.804  12.429 -0.3046  0.0744 -0.0095
16726W        W31857   4.333  17.571  11.528  0.0366 -0.1161 -0.0130
16727W        W31858  12.179   5.402  12.078  0.0483  0.0170 -0.0387
16728W        W31859   7.108   6.990  16.174 -0.0801 -0.0959  0.0897
16729W        W31860   0.693   6.282  15.055  0.2317  0.0327  0.0155
16730W        W31861  13.611  10.959   2.661  0.1289  0.0784 -0.0989
16731W        W31862  13.463   7.488   1.201 -0.0642 -0.1565 -0.2708
16732W        W31863  15.675   2.856  12.002  0.1549  0.2450 -0.3422
16733W        W31864  11.940   4.287  11.991 -0.0892  0.3437 -0.2369
16734W        W31865  14.000  15.766  13.469  0.1653  0.0229 -0.1340
16735W        W31866  15.486   3.202  14.804 -0.1100  0.3783  0.0833
16736W        W31867   1.222  14.693  14.283 -0.2165  0.2555 -0.1134
16737W        W31868  11.747   7.568   2.941 -0.1311 -0.0683  0.1161
16738W        W31869  17.468   4.779  14.113  0.1832 -0.1938 -0.4376
16739W        W31870   5.994   2.831  16.016 -0.2905 -0.1528 -0.0131
16740W        W31871  15.563   9.740   0.245  0.2425 -0.0490  0.0448
16741W        W31872   7.067   6.876   0.519  0.1067 -0.2103 -0.0305
16742W        W31873   2.694  12.792  13.641  0.0978 -0.0969  0.1020
16743W        W31874  18.064  17.425   2.049  0.3661 -0.0129 -0.0072
16744W        W31875   3.934  13.938  12.623 -0.3481  0.1674 -0.0183
16745W        W31876   7.853   3.043   0.543 -0.1433 -0.2521 -0.1616
16746W        W31877   1.952  13.470  10.959  0.0195 -0.0184  0.2942
16747W        W31878   2.301   4.316   2.181 -0.1616  0.1455 -0.1787
16748W        W31879   8.364  16.726   0.398 -0.2351  0.1886  0.2346
16749W        W31880   5.888   6.624  15.917  0.1353  0.3363  0.2173
16750W        W31881  15.937   1.083   3.639  0.3618  0.2185 -0.1732
16751W        W31882  16.421   8.893  12.982 -0.2604  0.1399  0.1700
16752W        W31883  15.233   4.776  13.055  0.1808  0.3678  0.1052
16753W        W31884   9.563  11.723   4.835  0.1609  0.0792 -0.1210
16754W        W31885  10.265   8.824  15.124  0.0748 -0.2432 -0.0974
16755W        W31886  10.466   6.723  13.322 -0.2062 -0.0155  0.2953
16756W        W31887  14.329  16.302  14.467  0.4349  0.4430 -0.4590
16757W        W31888   9.304  15.982   5.387  0.0141  0.1122 -0.2025
16758W        W31889   3.073  16.262   1.968 -0.2810 -0.0941 -0.1580
16759W        W31890  16.348   9.620  10.073 -0.2919 -0.2516 -0.2265
16760W        W31891  13.715   0.920  13.828 -0.2423  0.0010  0.1917
16761W        W31892  15.062   5.285   1.701  0.2234 -0.1824  0.2470
16762W        W31893  12.281  16.655   4.393 -0.0026 -0.2919  0.2615
16763W        W31894   7.666   9.746   2.838 -0.1198 -0.0639  0.2370
16764W        W31895   3.509  16.198   0.449 -0.1233 -0.0654 -0.4601
16765W        W31896  14.768   9.001   3.427  0.2039 -0.0620 -0.3786
16766W        W31897   8.080   8.326  13.310 -0.0217  0.0016  0.0201
16767W        W31898   1.696  15.400   0.623 -0.2172 -0.1507  0.0851
16768W        W31899   4.431  14.797   3.125  0.0060 -0.1916 -0.1403
16769W        W31900  11.281   6.214  13.376 -0.1929 -0.0724 -0.1623
16770W        W31901  14.526   3.133  12.429 -0.0321 -0.1106 -0.2467
16771W        W31902   1.683  10.101  11.901 -0.0617  0.0526  0.2648
16772W        W31903   3.205   5.502   1.321  0.5204 -0.1452 -0.0499
16773W        W31904   7.282  16.397   0.092  0.0587  0.1674  0.0661
16774W        W31905   3.846  12.569  12.714 -0.2752 -0.2297 -0.2277
16775W        W31906  12.525  16.925  14.660 -0.1960 -0.2104  0.0817
16776W        W31907   2.098   4.010   5.970  0.1429 -0.0803  0.1207
16777W        W31908   9.976   5.760   5.266  0.0260  0.2786  0.0994
16778W        W31909   5.206   8.242   1.668  0.0708 -0.0877  0.1167
16779W        W31910   0.879   1.985  11.413 -0.0285 -0.2135 -0.0082
16780W        W31911   7.631  14.647   0.089  0.0200  0.0204 -0.0502
16781W        W31912   0.325  10.669   3.859  0.0729  0.0112 -0.1043
16782W        W31913   0.619  15.071  15.821  0.1033 -0.1521  0.2687
16783W        W31914  11.975   8.189  16.235  0.1179  0.3884  0.0834
16784W        W31915  14.196   5.655  15.895 -0.1556  0.0246  0.1217
16785W        W31916   0.251   2.406   4.593  0.0829  0.0209 -0.1959
16786W        W31917   4.338  10.848  14.728 -0.3793  0.0111  0.0161
16787W        W31918   6.995   3.171   2.310  0.1497 -0.0318 -0.1930
16788W        W31919   5.726  13.933  13.048  0.1256 -0.0691 -0.2792
16789W        W31920  17.372   1.077   3.892  0.1997  0.0613 -0.0805
16790W        W31921  13.622   7.971   3.749  0.2121  0.0282 -0.0186
16791W        W31922  14.984  13.801  16.034  0.1508 -0.2978 -0.0445
16792W        W31923   9.618  17.964  11.875 -0.1200  0.1960  0.1528
16793W        W31924  16.518  13.224  14.237 -0.1314 -0.0231 -0.1153
16794W        W31925  11.901   1.412   3.423  0.0452 -0.5659 -0.0404
16795W        W31926   4.103  10.472  10.769 -0.0492  0.4191  0.3911
16796W        W31927   7.476   0.283  14.234  0.0899  0.2564  0.0605
16797W        W31928  12.127  17.780  11.039 -0.1039 -0.0676  0.2529
16798W        W31929  12.492  10.534  13.930 -0.0401 -0.1169 -0.0393
16799W        W31930  16.896   6.815  15.082 -0.2303  0.0418  0.0218
16800W        W31931   4.526   0.638  12.698  0.1808 -0.1037 -0.0127
16801W        W31932  13.894  11.187   5.255 -0.2370 -0.1084 -0.0926
16802W        W31933   3.331   4.335   4.992 -0.0730 -0.4302 -0.3347
16803W        W31934  15.198   2.365   3.301 -0.2345 -0.1811 -0.1933
16804W        W31935  16.421  14.841   5.793 -0.2888  0.1754 -0.1778
16805W        W31936  12.908   9.187  14.042 -0.1021 -0.2196  0.5122
16806W        W31937  17.339   4.100   0.799 -0.0893 -0.0071 -0.1022
16807W        W31938   1.235   4.400  11.840  0.0641 -0.1077 -0.1747
16808W        W31939  15.675   7.494   3.285  0.1316 -0.5810  0.0027
16809W        W31940  14.890  16.520   3.674  0.0889  0.0203  0.2577
16810W        W31941   6.327   8.121   4.055 -0.0164 -0.0272  0.2147
16811W        W31942  17.439   6.128   4.965  0.1044  0.2494 -0.4340
16812W        W31943  14.853   5.168  15.743  0.3204 -0.0440  0.2208
16813W        W31944   8.459  15.352  12.968  0.0138  0.2343 -0.1741
16814W        W31945  10.853   1.944   4.200  0.3555 -0.2015 -0.1667
16815W        W31946   2.714  16.077   4.628  0.0777  0.1654  0.0965
16816W        W31947  14.077  10.311   4.445  0.0804  0.0356 -0.1268
16817W        W31948  17.231  10.705   3.882  0.3211  0.2706  0.0952
16818W        W31949   9.100   8.708  15.780 -0.1310  0.3059  0.2444
16819W        W31950  15.499  11.642   0.011 -0.1681  0.0418 -0.2093
16820W        W31951   8.731  11.306   5.154  0.3206 -0.0787  0.1497
16821W        W31952   7.490   2.084  14.525 -0.0980  0.1625  0.0329
16822W        W31953   0.636   3.683   3.020 -0.3362  0.2318 -0.0136
16823W        W31954   9.752  15.434  11.048  0.1967 -0.1499 -0.0459
16824W        W31955   5.428   1.915   3.182 -0.0038  0.1273 -0.0852
16825W        W31956  10.126   0.088   3.680  0.0741 -0.3800  0.0088
16826W        W31957  16.019  15.986  15.016 -0.2624 -0.0158 -0.3272
16827W        W31958  16.780   1.902  13.191  0.4037  0.0954 -0.0174
16828W        W31959  10.545   5.901  15.139  0.0968 -0.0145 -0.0589
16829W        W31960   8.727  16.602   3.071 -0.1522 -0.3105  0.0070
16830W        W31961  17.759  12.149  11.215 -0.1864 -0.0409  0.1530
16831W        W31962   4.422   3.220  14.005 -0.1346 -0.0164 -0.4093
16832W        W31963  13.327   5.955  15.365 -0.1964  0.0657  0.0328
16833W        W31964   2.222   4.258   1.254  0.3904  0.0842 -0.1716
16834W        W31965  17.373  16.255  15.543 -0.2782  0.3301 -0.2717
16835W        W31966   3.037  12.337  11.726 -0.0375  0.1113  0.0568
16836W        W31967  11.911  17.499   5.688 -0.1332 -0.3614  0.1244
16837W        W31968   2.026   7.394   5.458 -0.0436  0.3762 -0.0572
16838W        W31969  15.244  12.535  15.865  0.1576 -0.0748  0.0265
16839W        W31970   4.818  13.266   6.082 -0.2846  0.1384 -0.0250
16840W        W31971  14.491   4.937   1.325 -0.2222  0.1566 -0.0960
16841W        W31972   2.487  15.782  16.176 -0.0692 -0.2187 -0.1188
16842W        W31973   6.229   4.116   1.379  0.2327 -0.2199  0.2139
16843W        W31974  17.409  17.722   4.951 -0.0981  0.0387 -0.1779
16844W        W31975  11.127  17.580   2.410 -0.1498  0.1212 -0.4676
16845W        W31976   9.124  10.013  12.337  0.1141 -0.1945 -0.0796
16846W        W31977   2.676   1.967   4.132 -0.0216 -0.0844  0.0834
16847W        W31978   0.201   8.540  13.530  0.0816 -0.0023  0.2163
16848W        W31979  14.693   9.382  12.396  0.2451  0.1367 -0.1039
16849W        W31980   6.157  16.218   1.108 -0.0556 -0.1820  0.0021
16850W        W31981   8.721  15.572   3.979 -0.0169 -0.0084  0.3281
16851W        W31982   7.475  10.536  14.593 -0.0605 -0.2344  0.3506
16852W        W31983  10.335   3.855   0.993 -0.0997  0.0416  0.0539
16853W        W31984   3.236  14.708  14.707 -0.1966 -0.0840 -0.1503
16854W        W31985  13.988  18.080   0.266 -0.0955  0.0668  0.0220
16855W        W31986  10.417  11.301   2.917 -0.0388  0.2628 -0.1063
16856W        W31987   9.503  15.139   3.948 -0.0155  0.0778 -0.1667
16857W        W31988  13.759  13.595  11.866 -0.0168 -0.0381 -0.2511
16858W        W31989   7.960   8.911  14.092 -0.0419 -0.2572  0.1068
16859W        W31990  10.087   5.900  15.980 -0.1541 -0.0719  0.1225
16860W        W31991  10.756  13.663  14.716  0.2301 -0.2439 -0.1235
16861W        W31992  11.208  14.437  15.942  0.2540  0.0753 -0.2434
16862W        W31993  18.097   9.147  14.932  0.2165 -0.3068 -0.1611
16863W        W31994  17.150   5.774  14.798  0.4253 -0.1359 -0.3277
16864W        W31995  17.629   0.487  15.682 -0.2238 -0.1551  0.2153
16865W        W31996   2.295   8.918  13.817  0.0251  0.0003  0.0043
16866W        W31997   4.733   1.188  14.661  0.0617 -0.2733  0.2209
16867W        W31998   9.082   7.270   0.939 -0.2468  0.1647  0.0562
16868W        W31999   6.370   7.592   0.293  0.1409 -0.2790 -0.2674
16869W        W32000   1.624   4.624   1.765 -0.0803  0.2043  0.0606
16870W        W32001   6.315   3.592   3.109 -0.0406  0.0048 -0.0379
16871W        W32002   1.698   7.287   3.715 -0.0367 -0.1144 -0.3849
16872W        W32003   3.253   3.390   4.987 -0.1465 -0.3416 -0.2508
16873W        W32004   6.352  12.817   5.171 -0.1351 -0.0914 -0.0862
16874W        W32005   5.468   3.669   3.646 -0.0752  0.0166 -0.0794
16875W        W32006   5.469   9.635  14.515 -0.1743 -0.0853  0.0758
16876W        W32007   6.806   6.289  16.034 -0.2071 -0.2300 -0.1507
16877W        W32008   1.533  16.817   1.693  0.1010 -0.0816 -0.1667
16878W        W32009  11.215   9.360  14.678  0.1768  0.0091  0.0709
16879W        W32010  15.246   9.031   1.422  0.0427  0.0400 -0.0823
16880W        W32011   8.107   7.393   5.160 -0.1196  0.0486 -0.0059
16881W        W32012   6.945  12.838   2.357  0.2471  0.1706 -0.0312
16882W        W32013   6.649  12.127  14.364 -0.1722  0.0660 -0.0190
16883W        W32014  12.665  16.908   4.171 -0.2672  0.0617 -0.2808
16884W        W32015  10.468  16.400  12.417  0.1093  0.1407 -0.2581
16885W        W32016  12.334   0.091  14.406  0.0956 -0.0874  0.0443
16886W        W32017  15.464  17.519  11.383 -0.1175  0.2384 -0.3259
16887W        W32018  11.719   4.568  15.006 -0.2509  0.0203  0.0070
16888W        W32019  15.236   2.764   5.250 -0.0614  0.0324  0.1137
16889W        W32020  16.405  11.354  15.511 -0.1986 -0.0021  0.0967
16890W        W32021   7.714  12.088  12.425  0.0680 -0.2539  0.0802
16891W        W32022   3.780  17.127  12.100 -0.0480 -0.0030 -0.0741
16892W        W32023   3.095  10.454   2.834  0.2404 -0.2018 -0.2961
16893W        W32024  17.743  18.071   5.379  0.1655  0.0096  0.0594
16894W        W32025   2.187   1.482   5.155  0.1293  0.1040 -0.1641
16895W        W32026   6.896  15.185   3.027 -0.0072 -0.0382 -0.5714
16896W        W32027   6.034  11.271   2.362 -0.0436  0.3574 -0.1479
16897W        W32028  15.660  17.739  14.384  0.0209  0.1339  0.0627
16898W        W32029   3.701  10.727   0.009 -0.2289 -0.0910  0.1573
16899W        W32030   4.977   8.136   4.496  0.1976  0.1313 -0.0819
16900W        W32031  18.149   8.197   2.544  0.0161 -0.2239  0.1972
16901W        W32032  14.868   6.129  12.349  0.1118 -0.0088 -0.1217
16902W        W32033  11.401  14.924   4.846  0.2888  0.0838  0.0116
16903W        W32034   4.538  18.125  10.896  0.0332  0.2555 -0.0527
16904W        W32035  15.038   8.379   3.992  0.0228  0.3547  0.1798
16905W        W32036  16.416   9.585   2.660 -0.0050  0.1534  0.0771
16906W        W32037  17.731   5.255   3.162  0.0524  0.0450  0.1084
16907W        W32038  13.174   4.978   0.791  0.1651  0.0636  0.0539
16908W        W32039  14.089   2.184   0.071 -0.0176 -0.1832 -0.0183
16909W        W32040   3.382  10.244   3.216  0.0522  0.2686  0.1985
16910W        W32041  10.126   4.544  14.347 -0.2168  0.1042  0.1553
16911W        W32042   5.498   6.250  12.362 -0.0117  0.1607  0.0757
16912W        W32043  17.716   4.377   5.946 -0.1214  0.1710 -0.2928
16913W        W32044  11.412   1.487   5.103 -0.0657 -0.1150 -0.0102
16914W        W32045  13.810  13.026  15.804  0.0591 -0.0525 -0.1461
16915W        W32046  10.083  13.809   0.235 -0.2041 -0.0483 -0.2092
16916W        W32047  17.909   0.129  14.494  0.0071  0.1295 -0.1948
16917W        W32048   8.580   6.195   0.139 -0.1967  0.1684  0.0611
16918W        W32049   1.104   4.366   0.276 -0.4123 -0.0307 -0.0531
16919W        W32050   2.770   7.612   2.769 -0.1113 -0.1850  0.0562
16920W        W32051   6.122   7.340  14.273 -0.2234  0.0668  0.0598
16921W        W32052  15.827   0.665  14.971  0.0966 -0.2189  0.2494
16922W        W32053  14.472   2.809  11.772 -0.3049  0.2606 -0.0032
16923W        W32054   4.023  11.373  12.132 -0.2983  0.1301 -0.2533
16924W        W32055   9.434   9.621  14.859  0.1431  0.0519  0.0036
16925W        W32056   6.186   3.342  12.114  0.0102  0.1397 -0.0515
16926W        W32057   3.595   9.786  10.535 -0.0430 -0.1432  0.0500
16927W        W32058   7.917  14.195   3.556  0.1835 -0.3506  0.2227
16928W        W32059  15.433   3.893  13.685  0.1795 -0.1553  0.0470
16929W        W32060  15.742   6.329   2.639  0.1716 -0.0112 -0.0275
16930W        W32061  14.573   3.149   2.971 -0.0859 -0.0462  0.1522
16931W        W32062  15.763   9.692   3.154  0.0002  0.2590  0.0467
16932W        W32063   8.193   3.216  15.117 -0.0754 -0.3072  0.1867
16933W        W32064  10.994   4.403   1.564  0.1233  0.1802  0.2013
16934W        W32065  10.446   1.757   5.035  0.1915 -0.0623 -0.3406
16935W        W32066   1.554  14.274  15.268 -0.0599 -0.1200 -0.2628
16936W        W32067   8.610   0.913   4.755 -0.1006  0.1286  0.0973
16937W        W32068  12.093   6.140   1.793 -0.2762  0.4417  0.2200
16938W        W32069  17.975  11.123  13.906  0.0998 -0.4091 -0.2207
16939W        W32070   9.979   0.841  15.422 -0.2342  0.0052 -0.1474
16940W        W32071  16.019  16.432   1.839 -0.1719 -0.0258  0.2202
16941W        W32072   8.736   1.060   1.969 -0.1074 -0.1327 -0.2413
16942W        W32073   1.504  14.183   0.970 -0.1408 -0.2261  0.1159
16943W        W32074  10.756   8.179   4.133  0.1464 -0.0631 -0.0914
16944W        W32075  14.755   5.849   2.972  0.0931 -0.0098 -0.1067
16945W        W32076   7.430   5.857   1.456  0.0946  0.4178  0.0307
16946W        W32077   9.328  15.891  14.492  0.1754 -0.1079  0.1402
16947W        W32078  14.463   9.728  11.477 -0.2998  0.1533 -0.1143
16948W        W32079   2.222   4.936   1.521  0.5363  0.0238 -0.2305
16949W        W32080  13.658  11.884  13.901  0.1926  0.1487  0.3382
16950W        W32081  18.129  13.043  14.636 -0.0313 -0.0536  0.1138
16951W        W32082  16.593  15.061   3.665  0.3226 -0.1447 -0.0801
16952W        W32083  13.216   1.788  13.380  0.0644 -0.2064  0.1037
16953W        W32084   3.445   2.928  14.221 -0.1482 -0.0391 -0.1312
16954W        W32085   9.276  15.594   9.713  0.0382 -0.1593 -0.0132
16955W        W32086  17.456  16.757  15.464 -0.0782 -0.1123  0.1179
16956W        W32087  17.313   1.041  14.710  0.0805  0.2130  0.0873
16957W        W32088  18.017  14.682  12.598 -0.0573  0.1028  0.2433
16958W        W32089  13.309   7.839   5.786  0.0284 -0.0191  0.1338
16959W        W32090  17.817  15.615   3.209 -0.1171  0.0308 -0.1991
16960W        W32091   3.643  11.178  13.167  0.0062 -0.1321 -0.0798
16961W        W32092  11.282   4.130   5.312 -0.0446 -0.0278 -0.1747
16962W        W32093   0.795   7.924  15.837 -0.1640  0.3806 -0.1426
16963W        W32094  15.911  18.085  13.641  0.0567  0.0827  0.0968
16964W        W32095   7.620   4.912   5.328  0.0799  0.1694  0.0578
16965W        W32096   9.919  16.491  10.612  0.3648 -0.1758 -0.2338
16966W        W32097   8.301  15.684  10.577  0.3680  0.0139  0.2354
16967W        W32098   2.819   4.165  15.851  0.1629  0.1256 -0.1654
16968W        W32099   2.448   7.991  16.049  0.1370 -0.1678  0.0069
16969W        W32100   7.300   6.200  11.531 -0.0822 -0.0712 -0.3748
16970W        W32101  10.959   5.666  11.894 -0.1805 -0.0987 -0.1594
16971W        W32102  14.199  10.864   0.624 -0.0142  0.0616  0.0292
16972W        W32103  16.757   4.116  11.243  0.1861 -0.0804  0.0690
16973W        W32104   4.983   1.958   0.253 -0.0374  0.1626  0.1218
16974W        W32105   2.042  13.949  10.790  0.0587  0.2709 -0.1598
16975W        W32106   1.460  15.672   5.307  0.0027  0.0990  0.0522
16976W        W32107   6.067   9.476   3.026 -0.0425 -0.0844  0.0373
16977W        W32108  15.254   7.977   3.684 -0.0683 -0.4589 -0.3436
16978W        W32109   9.636   2.073  12.441  0.0765  0.0620  0.0685
16979W        W32110  10.918   3.860   1.074 -0.1091  0.4087  0.1973
16980W        W32111  10.289  15.035   2.224 -0.1115  0.2686  0.1449
16981W        W32112   6.078  14.178  16.095 -0.0899  0.1274 -0.0658
16982W        W32113  15.870   3.805  11.865 -0.0958  0.0996  0.0681
16983W        W32114   0.824   4.131  14.105  0.1453 -0.2502 -0.0129
16984W        W32115  15.094  11.422  11.677  0.0616 -0.1858 -0.0256
16985W        W32116  17.463   4.762   2.483 -0.0334 -0.0612 -0.0169
16986W        W32117  16.762   9.285   1.853  0.3892 -0.0429  0.0219
16987W        W32118  10.883   9.317   1.030  0.1618 -0.2242 -0.3568
16988W        W32119  13.333  16.950   1.467  0.2682 -0.0863 -0.1199
16989W        W32120  13.624  13.737  13.698  0.0265 -0.1286 -0.1851
16990W        W32121  13.784  11.076  13.860 -0.0138  0.2804  0.0753
16991W        W32122  14.698   5.452   3.792  0.0903  0.1517 -0.1177
16992W        W32123  17.552  17.839  13.777 -0.3241  0.2956  0.0836
16993W        W32124  17.767  16.587   1.084  0.0464  0.0623  0.0186
16994W        W32125  13.655   4.423   5.097 -0.2326  0.1846 -0.1281
16995W        W32126  14.578   2.907  11.225  0.0017  0.1630  0.0807
16996W        W32127  18.032  10.946   0.536 -0.1546  0.2510 -0.0529
16997W        W32128  10.546  10.473  11.254 -0.0663 -0.2050  0.1847
16998W        W32129   2.524  16.840   4.486 -0.2964 -0.2592 -0.0683
16999W        W32130  11.900   2.505  11.716 -0.0813 -0.0508  0.1409
17000W        W32131  12.788  15.616  12.937  0.0349 -0.2035  0.0439
17001W        W32132  12.790  11.031  15.204 -0.2561  0.0092 -0.0997
17002W        W32133   2.903  16.008  10.658  0.1238  0.2961 -0.1418
17003W        W32134  12.898  16.291   1.961 -0.1066 -0.0286 -0.3391
17004W        W32135  12.926  17.477   2.910 -0.3047 -0.2243  0.3960
17005W        W32136   7.210   4.926  13.662 -0.0860 -0.1001  0.1809
17006W        W32137  13.456  12.456   1.258  0.0216 -0.1363 -0.2705
17007W        W32138  14.704   3.968  16.215  0.0732 -0.2152 -0.1751
17008W        W32139   7.146  10.919  10.502  0.2367 -0.0167  0.0650
17009W        W32140  13.752   3.071  10.898 -0.0869 -0.0876 -0.1383
17010W        W32141  16.226   9.290   4.942  0.0120  0.1222 -0.1194
17011W        W32142   1.344   6.501   9.739 -0.0149 -0.2835  0.1018
17012W        W32143   3.147   8.066   2.649 -0.2403 -0.0132 -0.0345
17013W        W32144   4.619   4.332  12.216  0.0323 -0.0698  0.2065
17014W        W32145  11.477  16.222   4.974  0.1566  0.0276  0.0761
17015W        W32146  15.628  10.429  13.856  0.2295  0.1284 -0.0664
17016W        W32147  11.147   6.545   2.838 -0.1745 -0.0339 -0.2058
17017W        W32148  17.006   1.991  14.715  0.1383  0.0671  0.0366
17018W        W32149   8.420  11.816   5.285 -0.1481 -0.3577 -0.2057
17019W        W32150  17.058  12.418   2.788 -0.0554 -0.0840  0.0178
17020W        W32151  14.812   9.202   0.127 -0.2197  0.0812 -0.0291
17021W        W32152   1.952   4.323   4.722  0.0422  0.2757  0.3401
17022W        W32153  11.853   4.309  14.546  0.1860  0.1669 -0.0928
17023W        W32154  17.848   1.599   0.589  0.0485  0.0385  0.0374
17024W        W32155   7.433  16.631  14.418  0.2055 -0.3480  0.1212
17025W        W32156   6.543   4.514   5.755 -0.3503 -0.0832  0.1326
17026W        W32157   2.984  16.362  15.455 -0.3991  0.1843  0.0602
17027W        W32158   0.490   9.611  14.873 -0.1380 -0.0105  0.1562
17028W        W32159   4.104   9.091   1.217  0.3694 -0.6185  0.3753
17029W        W32160   4.012  13.732  15.423  0.0765  0.1688 -0.0046
17030W        W32161  14.749   5.605  13.755  0.1575  0.1958 -0.0231
17031W        W32162   6.086   6.484  13.265 -0.0629 -0.1386  0.0600
17032W        W32163   7.314   1.673  14.815 -0.0189  0.2916 -0.2320
17033W        W32164  17.026   6.297   4.518 -0.0708  0.0798  0.0223
17034W        W32165   8.188  14.616  11.631  0.2863 -0.2854 -0.2874
17035W        W32166  15.880   6.100  15.215 -0.0261 -0.0685 -0.0896
17036W        W32167  16.414   5.658  14.846  0.1491 -0.0836  0.0792
17037W        W32168   0.367   6.027   5.629 -0.2146  0.3507  0.1307
17038W        W32169  15.788  11.647   0.465  0.0470 -0.1822  0.1215
17039W        W32170  15.826   7.740  11.325  0.3302 -0.0084  0.0446
17040W        W32171  12.473  17.458   3.269 -0.4010  0.0001  0.1399
17041W        W32172   7.823  15.215   5.223 -0.3320  0.1108 -0.1052
17042W        W32173  15.133   5.709   3.963 -0.1423  0.1757 -0.3834
17043W        W32174   4.822  17.571   5.709  0.3830 -0.0490 -0.0190
17044W        W32175   4.887   0.616   3.099 -0.1304 -0.0795  0.1944
17045W        W32176  17.261  17.657   0.201  0.2850  0.0266 -0.2398
17046W        W32177  11.685   8.625   5.591 -0.0058 -0.2115  0.2236
17047W        W32178  12.979   1.519  14.292 -0.2086  0.0474 -0.0959
17048W        W32179   0.987   8.215  16.193  0.0360 -0.1849  0.1954
17049W        W32180   2.844  11.810   5.228  0.0003  0.0646  0.0253
17050W        W32181  16.124  10.746   2.933 -0.2883  0.0700  0.1663
17051W        W32182  13.634  16.987   3.200  0.0733 -0.0927 -0.2037
17052W        W32183   6.644   3.736   0.941 -0.1744 -0.1895 -0.0235
17053W        W32184   8.579   3.136  16.232 -0.1009  0.2956 -0.2184
17054W        W32185  14.794   0.989   2.823 -0.1528 -0.1137 -0.2418
17055W        W32186  11.994  13.709  11.563  0.3031 -0.0119  0.0680
17056W        W32187  12.668   1.629   1.580  0.3150  0.1651  0.0230
17057W        W32188  11.349  12.977   0.365 -0.2300 -0.0544 -0.1419
17058W        W32189   7.585   1.949   2.110  0.0422 -0.0522 -0.3179
17059W        W32190   6.091   2.765   2.442  0.1295  0.3546 -0.1894
17060W        W32191  10.689  11.565   5.576 -0.0438 -0.0124 -0.0210
17061W        W32192  16.535  10.810  11.314  0.0079  0.1305  0.0912
17062W        W32193   2.893   5.859  15.259 -0.1795  0.1737 -0.1863
17063W        W32194  13.987   5.902  12.016  0.0228 -0.0624 -0.0231
17064W        W32195   0.063   1.048  15.234 -0.3492 -0.1010 -0.1259
17065W        W32196   0.161   7.291   5.192  0.2035 -0.2093  0.2888
17066W        W32197   9.461  16.929  11.278 -0.0069  0.1725  0.1054
17067W        W32198  11.052  15.788  12.619 -0.1184  0.2376 -0.0258
17068W        W32199   2.766   3.076   3.154  0.0174 -0.0335  0.2572
17069W        W32200   6.220  16.582  11.828  0.1859 -0.0090 -0.1306
17070W        W32201   1.728   4.071  11.010  0.1976  0.1400 -0.0516
17071W        W32202   4.562  15.983  10.104  0.0916 -0.3637 -0.0338
17072W        W32203  17.810   2.712   3.322  0.3349  0.2455 -0.2357
17073W        W32204  11.136   2.274  12.264 -0.1122  0.0530 -0.3834
17074W        W32205   2.963   0.124  14.405  0.0366 -0.2605 -0.2526
17075W        W32206  10.050  11.327   1.236  0.2267  0.1485  0.1618
17076W        W32207  12.564   8.043  14.688  0.0860  0.1670 -0.2648
17077W        W32208   9.961   9.300   5.795  0.2205  0.2198 -0.1040
17078W        W32209   2.824   8.713   4.348  0.2529 -0.1269  0.1919
17079W        W32210  16.748  13.120  14.685 -0.1916  0.1759  0.1832
17080W        W32211   5.028  16.025   0.870  0.1272 -0.4401  0.1683
17081W        W32212  14.105  15.919  15.908 -0.0167  0.0829 -0.1126
17082W        W32213   3.201   8.929  11.054  0.0885 -0.0264  0.0437
17083W        W32214   9.048  16.565   1.139  0.0467  0.1586 -0.0827
17084W        W32215   4.598  14.407  15.587  0.0704 -0.2704  0.0858
17085W        W32216   9.067   2.632  10.994  0.0494  0.2043  0.1689
17086W        W32217   3.966  16.645   2.460 -0.2012 -0.1104  0.1596
17087W        W32218   7.839  14.202   2.069  0.0451  0.0118 -0.0711
17088W        W32219   9.704  11.257   1.656 -0.2695 -0.2420  0.0036
17089W        W32220  12.329   3.870   0.711  0.5873  0.1427  0.3542
17090W        W32221   6.609   2.422  11.138  0.1641 -0.0328 -0.0308
17091W        W32222   6.466  15.828  14.804  0.0607 -0.2593  0.2198
17092W        W32223   3.382   4.606   3.532 -0.3573  0.0638  0.1562
17093W        W32224   7.271  16.640  11.586 -0.1502 -0.2380  0.0782
17094W        W32225   5.555   8.872  12.608  0.1822 -0.0695 -0.1327
17095W        W32226   7.218   6.023   0.937 -0.1874 -0.0339 -0.0739
17096W        W32227   2.201   6.885   1.082  0.2336 -0.0947  0.0972
17097W        W32228   5.753  15.781  11.265  0.3055  0.0661 -0.0476
17098W        W32229  16.515   9.761   4.907 -0.0057  0.1888  0.0188
17099W        W32230  11.887   6.202   0.936 -0.0133 -0.0212 -0.0355
17100W        W32231  13.719   9.977   4.302  0.0482 -0.2353  0.0630
17101W        W32232   5.945   3.569   4.290 -0.1164 -0.3572 -0.1367
17102W        W32233   0.488   9.321   2.810 -0.1468  0.0254  0.1140
17103W        W32234   1.044  16.937   5.810  0.0260 -0.0515 -0.1289
17104W        W32235  10.733  11.032  12.177 -0.1051  0.1824  0.2445
17105W        W32236  14.568   9.364   1.987  0.0147 -0.2173 -0.2100
17106W        W32237  15.964  10.953   5.898 -0.1463 -0.0515  0.0337
17107W        W32238  11.340   4.420  11.651  0.1396  0.1316  0.1839
17108W        W32239  12.612  16.541   2.913 -0.0547  0.1513  0.0571
17109W        W32240   3.236   0.588  15.683  0.2088 -0.0019  0.1147
17110W        W32241   7.106   6.986  14.238 -0.1739 -0.0384  0.2085
17111W        W32242  12.500   1.744   4.063  0.1051 -0.2030 -0.0891
17112W        W32243   7.198  17.233   0.376  0.0877  0.2586  0.0983
17113W        W32244   8.051   6.907  14.176 -0.2102 -0.0414  0.0320
17114W        W32245  15.491   6.420  13.254 -0.0274  0.0522 -0.3669
17115W        W32246   5.759   9.906   5.528 -0.2107  0.1722 -0.0651
17116W        W32247  13.875   5.396   6.044 -0.1153 -0.0229 -0.0815
17117W        W32248  17.466  16.954   1.281  0.1560 -0.0761 -0.2955
17118W        W32249   3.020  16.175  12.890  0.0477 -0.1039 -0.2714
17119W        W32250  16.023  15.312  16.129 -0.0492  0.3083  0.1360
17120W        W32251   9.459   3.623  13.555 -0.1809 -0.3800 -0.1092
17121W        W32252   2.179  11.864   0.170  0.1093 -0.3699  0.3292
17122W        W32253   0.712  11.292   3.611  0.0728 -0.1603 -0.2252
17123W        W32254   0.938   8.893  11.141  0.1987 -0.1341 -0.0280
17124W        W32255  16.041   6.570  15.925 -0.2179 -0.3745 -0.1072
17125W        W32256   6.728   4.892  12.436 -0.2350  0.2852  0.0289
17126W        W32257  12.684   8.470  11.027 -0.3710  0.1817  0.3152
17127W        W32258  15.111  10.263   0.799 -0.1873  0.3708  0.1969
17128W        W32259   2.529  17.688  12.210  0.1896  0.2028 -0.0986
17129W        W32260   7.483   5.143  12.815  0.3743  0.0653  0.0278
17130W        W32261  15.818  12.003  11.985 -0.0943  0.0495  0.1586
17131W        W32262  17.003   5.741   3.784 -0.0315 -0.0779  0.1185
17132W        W32263   4.212  17.437   4.165 -0.4243 -0.2754  0.0041
17133W        W32264  11.978  17.364   1.101  0.0791 -0.5060  0.0889
17134W        W32265   2.182  10.751   0.914  0.0135 -0.0967 -0.1110
17135W        W32266   3.926  14.097  14.052  0.0656 -0.3509  0.1362
17136W        W32267   3.763  12.158   4.118 -0.0591 -0.0364  0.4542
17137W        W32268   4.736   3.494  13.373  0.1883  0.0662  0.1027
17138W        W32269  17.783  14.834  15.566 -0.1410  0.1757 -0.1531
17139W        W32270   3.260  10.462   4.134 -0.2401  0.0630  0.1382
17140W        W32271   7.374  10.891  10.984  0.1203 -0.0655 -0.0155
17141W        W32272   6.823  10.981   1.368  0.1586 -0.0990  0.2288
17142W        W32273   2.617  15.601   3.651 -0.0955  0.1083 -0.1964
17143W        W32274   7.772  15.336  14.301  0.0815  0.0496  0.0259
17144W        W32275   6.378  16.523   0.271  0.1375 -0.0428 -0.1695
17145W        W32276  13.983   1.118  12.991 -0.0789  0.0520  0.2077
17146W        W32277   0.516   1.930   0.266  0.2432 -0.0052  0.2189
17147W        W32278  17.750   0.039  15.545 -0.3091 -0.1082 -0.2497
17148W        W32279  13.338   5.144  13.950 -0.2484  0.0714 -0.1743
17149W        W32280  12.741  14.907  13.303 -0.3554 -0.2963 -0.1345
17150W        W32281  15.932  16.651   1.141 -0.0442 -0.0448 -0.3421
17151W        W32282   1.230   9.515   3.005  0.1604  0.1254  0.3668
17152W        W32283  14.621  10.207   0.134  0.0366  0.2414 -0.0141
17153W        W32284   6.024  15.287  15.530  0.0813 -0.2883 -0.3598
17154W        W32285  17.799   7.384   5.430 -0.0483 -0.1901 -0.0618
17155W        W32286  16.039  14.605  15.266  0.2410 -0.1654  0.2608
17156W        W32287  13.288  17.428   4.320 -0.0319  0.2119 -0.0292
17157W        W32288   6.631   3.618  12.742 -0.0098 -0.2593 -0.2369
17158W        W32289   2.398   1.753   1.796  0.0283 -0.1576  0.2517
17159W        W32290  15.012  14.750   2.569 -0.2814  0.0056  0.0345
17160W        W32291  14.319  16.827   6.302  0.0259 -0.0365  0.1066
17161W        W32292   0.889  10.631   1.645 -0.2090  0.0086  0.2821
17162W        W32293  17.579  15.505   6.290 -0.1226  0.1624 -0.2169
17163W        W32294  13.946   9.779  11.830 -0.1887 -0.0494 -0.0085
17164W        W32295   0.834   4.347  11.384 -0.3276 -0.1122  0.2055
17165W        W32296   5.704  16.806  13.021  0.1772  0.1621  0.2012
17166W        W32297   9.793   5.030  13.770  0.1881 -0.0739  0.1993
17167W        W32298  12.280  17.435   1.546 -0.0933 -0.0601 -0.0651
17168W        W32299   1.140  14.599   5.501 -0.0490  0.0975  0.0667
17169W        W32300  16.365  13.346   1.678 -0.0753 -0.3532  0.0228
17170W        W32301  11.606   5.365   2.135 -0.0149 -0.0763 -0.2984
17171W        W32302   4.969  16.451  14.766  0.2018  0.0405  0.1908
17172W        W32303   4.882   2.478   0.796 -0.0005  0.1535 -0.1676
17173W        W32304   6.398  16.106   0.640 -0.2365 -0.2113  0.0760
17174W        W32305  16.496  12.742  15.473 -0.0950 -0.0755  0.1380
17175W        W32306  17.358   2.299   1.265  0.6229  0.1391  0.0752
17176W        W32307   5.267   0.088   0.683  0.0941  0.0798 -0.3721
17177W        W32308   9.316   2.252  10.153 -0.0315 -0.1108 -0.1622
17178W        W32309   1.087  12.249  15.682  0.1038 -0.2199  0.2787
17179W        W32310   2.398  15.896   5.367 -0.2672 -0.4680 -0.1270
17180W        W32311  14.620   0.591  16.062  0.2489  0.3654 -0.0629
17181W        W32312  10.230  15.829  14.866 -0.2928  0.0206 -0.4659
17182W        W32313  13.033   1.375   4.481  0.2089  0.0181 -0.1157
17183W        W32314   5.615  10.884  10.426  0.3589  0.0883 -0.0350
17184W        W32315  16.966  16.980   5.336  0.2815 -0.0641 -0.0028
17185W        W32316  16.323   7.437   3.881 -0.2097 -0.1422 -0.0291
17186W        W32317  15.399  16.282  12.051 -0.3324 -0.4310 -0.0301
17187W        W32318  14.755   4.395   5.399  0.3079 -0.0014 -0.0251
17188W        W32319   1.167   9.621  15.970  0.1718  0.2444  0.0757
17189W        W32320  16.293   7.438  14.451  0.2283  0.1204 -0.0390
17190W        W32321   2.995   1.090   2.111  0.0157 -0.4795  0.1832
17191W        W32322   1.299   6.862   3.740 -0.0109  0.0462  0.0457
17192W        W32323  13.996   6.567   5.391  0.0934  0.1388 -0.6128
17193W        W32324   2.507  10.006   0.038 -0.2069 -0.0539  0.1849
17194W        W32325  11.509  11.766  15.992  0.0018 -0.0968 -0.1141
17195W        W32326  17.142  16.791  13.298  0.2002  0.0856 -0.2046
17196W        W32327  12.098  12.437  13.498 -0.1728 -0.1614 -0.3097
17197W        W32328   6.401  11.948  10.147 -0.1953  0.0404 -0.2887
17198W        W32329  12.698  13.688  14.107 -0.0098  0.0016  0.1201
17199W        W32330   7.511  15.420  13.859 -0.2946 -0.3410  0.0042
17200W        W32331  17.844  17.652  15.672 -0.1976  0.0302 -0.1301
17201W        W32332   9.105  11.099  11.327  0.3892 -0.0815  0.1405
17202W        W32333   4.453   0.766  15.888  0.1835  0.1986 -0.1638
17203W        W32334   4.904   4.852  15.186 -0.0362 -0.1126  0.0926
17204W        W32335  12.951  15.212  12.283 -0.3462 -0.2978 -0.1572
17205W        W32336  13.754   9.330   2.040 -0.0913  0.3753  0.0310
17206W        W32337   3.884  10.261   4.317  0.2104  0.4091  0.2260
17207W        W32338  11.478   9.836  10.878  0.0415  0.0515  0.3256
17208W        W32339   5.433   9.627  13.931  0.1357 -0.2035 -0.1200
17209W        W32340  14.610   2.404  15.960 -0.1319 -0.1338 -0.0663
17210W        W32341   9.440  11.874  15.798 -0.0829  0.1137  0.3294
17211W        W32342  13.420   4.732   6.337  0.0675  0.1741 -0.0087
17212W        W32343   0.330   4.547   2.358 -0.0995  0.5027 -0.1755
17213W        W32344  15.178  14.032  13.396 -0.0368 -0.1765 -0.0311
17214W        W32345  13.424  16.510   4.973  0.0173 -0.3743  0.3696
17215W        W32346  11.962   3.691  16.141 -0.0343  0.1410  0.1756
17216W        W32347   7.616  14.237  13.216  0.0353 -0.3415  0.0165
17217W        W32348   6.550  11.567  16.170  0.2513  0.0322  0.2283
17218W        W32349   2.000  13.477   1.984  0.0922  0.0869  0.0754
17219W        W32350  15.031   0.534  11.625  0.4591  0.0147  0.1817
17220W        W32351   5.409   3.208   3.756 -0.3368 -0.1502 -0.0551
17221W        W32352   4.672  16.095   4.765 -0.1694  0.3536  0.0914
17222W        W32353  11.720   5.225  13.560 -0.2459  0.1720 -0.0961
17223W        W32354  16.286   5.065   1.583 -0.2697 -0.0272 -0.1979
17224W        W32355   0.629   5.296   0.470 -0.1451  0.0353  0.0377
17225W        W32356  17.531   8.816  14.759 -0.2469  0.3142  0.0656
17226W        W32357  10.702   5.655  13.545 -0.0272  0.1542 -0.2857
17227W        W32358  13.068   5.269   6.033 -0.0075  0.0600  0.0574
17228W        W32359   9.932   9.066  10.759  0.1896  0.1543  0.6939
17229W        W32360  10.085   1.030   2.244 -0.4324 -0.1141 -0.2465
17230W        W32361  17.952  17.419  16.137 -0.3467 -0.0609  0.0771
17231W        W32362   7.565  16.064   3.426 -0.1784 -0.2362  0.0488
17232W        W32363  10.757  13.519   3.587  0.1321  0.2164  0.2032
17233W        W32364   3.643   6.934   5.036  0.1644  0.1786 -0.0536
17234W        W32365  15.479   0.758   1.585 -0.1944 -0.0238 -0.1357
17235W        W32366   9.989  15.956   1.947  0.2414 -0.1624 -0.2225
17236W        W32367  10.496  16.046   1.179  0.2236 -0.0987  0.1159
17237W        W32368   6.032  13.285  13.462 -0.1571 -0.0399 -0.2507
17238W        W32369  15.366   5.061   2.109 -0.2915 -0.2420  0.0101
17239W        W32370   9.220  10.180  13.404 -0.0799  0.2406 -0.0947
17240W        W32371   6.781   4.956   1.677  0.2672 -0.0639  0.1773
17241W        W32372  11.269  14.868  15.455  0.0114 -0.0818  0.4057
17242W        W32373   9.185   2.592   1.540  0.0368  0.2968  0.1772
17243W        W32374   3.776  10.224  14.054 -0.5219 -0.4195  0.2426
17244W        W32375   3.399   3.306  10.376 -0.0529 -0.4874  0.1917
17245W        W32376   3.044   9.311   2.973 -0.0724 -0.0863  0.1974
17246W        W32377   1.052   6.278   1.141 -0.0613  0.0151 -0.2042
17247W        W32378   1.758  15.402  14.674 -0.1374 -0.1924  0.0773
17248W        W32379   6.086  13.328   1.532 -0.0420  0.0791  0.0964
17249W        W32380   4.179  14.253   1.712  0.1770 -0.2005 -0.0261
17250W        W32381   2.031   2.584  14.168  0.2292  0.0627 -0.0480
17251W        W32382  16.202   9.714  15.089 -0.2082  0.0259  0.1794
17252W        W32383   3.592   1.900  12.802 -0.1246  0.0981 -0.1819
17253W        W32384   8.345  13.750  15.716 -0.1219  0.2135  0.2498
17254W        W32385   0.510  11.405   1.000  0.1602  0.0783 -0.1589
17255W        W32386   6.107   7.493   5.306  0.1976  0.0566 -0.2833
17256W        W32387  11.320  10.333   2.888  0.1029  0.0018  0.2381
17257W        W32388  13.904  11.796  15.292  0.0601  0.2246 -0.0267
17258W        W32389  11.819   9.685   1.779 -0.0865  0.3162 -0.3143
17259W        W32390   3.439   0.752  13.260 -0.1451 -0.1772  0.0954
17260W        W32391  13.768  11.561   3.403  0.1159 -0.3781  0.0293
17261W        W32392   8.182  14.557  15.776  0.0557  0.1118  0.0520
17262W        W32393  12.431  14.672   4.107 -0.1372 -0.4245  0.2649
17263W        W32394  14.746  16.589   5.476  0.0046  0.0413 -0.2745
17264W        W32395  12.806  14.403   2.257  0.3164 -0.1328 -0.0869
17265W        W32396   4.842  12.847  10.836  0.2025 -0.1342 -0.0292
17266W        W32397   3.371  12.657  15.311  0.0896 -0.0592  0.0474
17267W        W32398   9.261  16.378   1.566 -0.0954  0.0808  0.2570
17268W        W32399  16.559   2.439  11.822  0.1222  0.1043  0.1545
17269W        W32400  12.881   0.311  11.978  0.4634 -0.0331 -0.0293
17270W        W32401  11.513  12.749  14.611 -0.1164  0.0647  0.1964
17271W        W32402   7.588  17.109   5.581 -0.0997  0.0347 -0.0507
17272W        W32403   5.756   0.013   0.919  0.1043  0.1081  0.2663
17273W        W32404  10.344  12.507  10.698  0.1091  0.0540  0.0840
17274W        W32405   3.963  10.972   5.040 -0.1258  0.0527  0.3113
17275W        W32406  12.226   5.833  14.508  0.3537  0.0805  0.2896
17276W        W32407   6.078  16.710   4.011 -0.2154 -0.1149  0.2011
17277W        W32408  16.757   5.928   1.299  0.0103 -0.3112 -0.2693
17278W        W32409   9.525   4.421   2.312  0.0775  0.1800  0.2023
17279W        W32410  15.965   7.771  12.068 -0.2303 -0.0253 -0.0362
17280W        W32411   7.406   6.041  13.661 -0.0086 -0.2098  0.1211
17281W        W32412  10.422  13.693   2.060 -0.0589  0.1704 -0.2371
17282W        W32413  10.571  17.205   5.410  0.1153 -0.0653 -0.2202
17283W        W32414   2.916  10.844  14.707 -0.2488 -0.4758 -0.2636
17284W        W32415  14.269   0.348  15.219 -0.2338  0.0066 -0.0358
17285W        W32416  10.623  17.568   2.716  0.2953  0.5450  0.2386
17286W        W32417   5.938   8.301  10.966 -0.1460 -0.2884  0.1823
17287W        W32418  10.240  12.955  12.005  0.1440 -0.2495 -0.0167
17288W        W32419  14.692  12.128   1.854  0.0104 -0.0139  0.1208
17289W        W32420  10.195  17.302  10.083 -0.4426 -0.0249  0.2473
17290W        W32421  14.307   5.564   4.638  0.0625 -0.1635 -0.3157
17291W        W32422   5.873   6.900  14.253 -0.1144 -0.0006  0.0264
17292W        W32423   4.771  16.282  12.880  0.0006  0.0293 -0.1781
17293W        W32424  17.448   5.459  11.839  0.2871 -0.2513  0.1916
17294W        W32425  16.462   7.830  13.730 -0.1043 -0.0685 -0.0579
17295W        W32426   4.600  10.832  15.966  0.0729  0.1039  0.1757
17296W        W32427   7.863   4.157  13.717  0.1196 -0.0488 -0.1145
17297W        W32428  14.084  12.534   3.813  0.1144 -0.1989 -0.2691
17298W        W32429   3.733  11.095   0.683 -0.1727  0.2064 -0.0720
17299W        W32430  15.050   6.936  15.946  0.3278 -0.3317  0.1682
17300W        W32431  16.947  12.762  12.903  0.1805  0.2984  0.3112
17301W        W32432   7.034   9.621   3.810 -0.1428  0.1722  0.1100
17302W        W32433   7.644   1.709  13.277  0.0946 -0.1690  0.0216
17303W        W32434   0.288  14.598   2.725  0.0032 -0.1130 -0.4286
17304W        W32435  10.164   6.252  11.745 -0.0071  0.0774 -0.0809
17305W        W32436  16.924   7.288  12.869 -0.0724 -0.2089  0.0685
17306W        W32437  11.243   7.196  14.722 -0.2627  0.1582 -0.1351
17307W        W32438   4.186  11.007  11.724 -0.0164 -0.1756 -0.1692
17308W        W32439   8.932  14.917  13.105  0.1199  0.0612  0.0533
17309W        W32440   9.700   4.279   1.652 -0.1194  0.0906 -0.2290
17310W        W32441  13.562   1.584   3.488  0.1695 -0.2324 -0.2577
17311W        W32442   8.693  17.333   0.948 -0.2381  0.1789 -0.1293
17312W        W32443  14.965   4.326   5.887 -0.2421 -0.0447  0.1532
17313W        W32444  14.740  10.989   0.593  0.1448  0.0876  0.2099
17314W        W32445   2.489  15.557  11.777 -0.1877 -0.2046  0.1956
17315W        W32446  11.107  10.731   3.568 -0.0193  0.0766  0.1527
17316W        W32447  13.444  15.406  12.220  0.3553  0.0074 -0.0660
17317W        W32448  15.357   9.774   5.505 -0.4212 -0.0245 -0.2927
17318W        W32449  18.133  16.306  16.061  0.1658 -0.2261  0.2043
17319W        W32450  17.828   6.757  13.349  0.2002 -0.0392  0.0934
17320W        W32451  11.229   5.873   1.349  0.1586  0.1285 -0.2236
17321W        W32452  15.092  14.399   2.255  0.0237  0.0570  0.1595
17322W        W32453   7.640   8.133  12.391 -0.0131  0.1041  0.4830
17323W        W32454  12.589   8.177  12.591  0.1363 -0.0476 -0.1906
17324W        W32455   2.896  17.228  13.849 -0.1181  0.2622  0.1978
17325W        W32456   1.280   5.898   3.800 -0.0622 -0.1352  0.1773
17326W        W32457   0.022  14.774  15.033  0.2777 -0.1429  0.1336
17327W        W32458  14.722   4.243  14.137 -0.2894 -0.3735  0.0524
17328W        W32459   6.002   9.998   2.399  0.0900  0.2557  0.1777
17329W        W32460   6.041   4.920   2.319  0.1696 -0.5743 -0.1618
17330W        W32461   3.687   7.858   0.839 -0.4150 -0.0448 -0.1305
17331W        W32462  14.079   2.625  16.001  0.2459 -0.1630 -0.0575
17332W        W32463  15.222  17.429  10.939 -0.4056 -0.1526 -0.0407
17333W        W32464   1.149   0.132  15.129  0.0090  0.0417  0.4884
17334W        W32465  14.580   0.197   2.497 -0.0094 -0.1169  0.1796
17335W        W32466  14.073  12.724   3.282 -0.2672 -0.0414  0.2790
17336W        W32467   4.418   2.789   3.804  0.2776  0.1252 -0.0538
17337W        W32468  13.521  14.497  14.248 -0.1356 -0.0095 -0.1616
17338W        W32469   8.973  16.125  10.839 -0.0498 -0.1840  0.2179
17339W        W32470   4.745   1.285   2.723  0.2663  0.3039 -0.2034
17340W        W32471  16.182  10.568  13.060 -0.0773  0.0544  0.2651
17341W        W32472   4.768   2.913  13.381 -0.0824  0.1730  0.0771
17342W        W32473  14.708   1.062  15.730 -0.1699 -0.4463  0.0604
17343W        W32474   5.404   9.542   1.257  0.0780  0.4205  0.2077
17344W        W32475   8.702   2.233   5.338  0.0858  0.0998 -0.0496
17345W        W32476   4.537  16.363  13.939  0.1356 -0.0528 -0.4270
17346W        W32477  11.678  11.475   5.314  0.0908 -0.2468  0.1992
17347W        W32478  14.061  10.806  12.075  0.2350 -0.1543  0.1207
17348W        W32479  14.161   5.806   1.696  0.0889 -0.0170 -0.4887
17349W        W32480   7.151   7.447  14.537 -0.0309 -0.1287  0.0476
17350W        W32481  13.749  10.771   4.609  0.0577  0.0578  0.0527
17351W        W32482  16.026  12.047  15.349  0.0504 -0.1500 -0.0530
17352W        W32483   1.674  10.206   4.279 -0.1056 -0.0862  0.0066
17353W        W32484  16.509  11.860  13.137 -0.0921 -0.0091 -0.6077
17354W        W32485  10.755   8.946   5.233 -0.0519 -0.0921 -0.4359
17355W        W32486   3.978   9.939   3.941  0.1753  0.1094 -0.1482
17356W        W32487  13.248  14.863   1.026  0.0635 -0.1425 -0.1572
17357W        W32488  14.876   6.426  11.388 -0.1707  0.0535 -0.1253
17358W        W32489   3.411  11.452   3.359 -0.2318 -0.2504  0.5503
17359W        W32490  12.177  15.449  11.051 -0.0203 -0.1370  0.2812
17360W        W32491  11.908  14.764  15.324 -0.0211 -0.2263 -0.1616
17361W        W32492   3.633   0.468   0.946 -0.0123  0.1396 -0.0682
17362W        W32493   3.645   8.619  15.599 -0.1771  0.4623 -0.3168
17363W        W32494  16.686  10.482  12.147  0.0222 -0.1003  0.1310
17364W        W32495   8.676   8.816  11.052  0.1808  0.0116  0.1186
17365W        W32496  13.012   7.367  15.401  0.2476  0.0884  0.1692
17366W        W32497  15.143  11.558   3.044 -0.1256  0.2024 -0.0903
17367W        W32498   1.843  15.074  13.707 -0.1553 -0.0920  0.0114
17368W        W32499   1.106   0.946  14.503  0.2484 -0.0123 -0.2440
17369W        W32500   4.666   9.730   1.711  0.0563 -0.0402  0.0297
17370W        W32501   4.693  14.131  11.035  0.0106  0.2674  0.1511
17371W        W32502   6.634  10.225  10.711 -0.3814  0.1243 -0.0026
17372W        W32503  10.661  13.396   2.359 -0.1575  0.2125  0.0992
17373W        W32504  16.900  16.825  13.773  0.3625  0.1032  0.0222
17374W        W32505   4.493  15.477  14.074 -0.1961  0.0253 -0.2280
17375W        W32506   6.171  11.315   4.248  0.0515 -0.0266  0.0100
17376W        W32507  13.437   4.232  15.242 -0.0630 -0.3488 -0.0168
17377W        W32508   5.178   6.539   1.825 -0.5562  0.1916  0.0365
17378W        W32509   8.792   5.771   3.199  0.2712 -0.0515 -0.1790
17379W        W32510   0.033   4.274  12.174  0.2616 -0.1097  0.0605
17380W        W32511  14.749   1.544   0.919  0.1025 -0.1195  0.2055
17381W        W32512   0.893  15.961  13.806 -0.5449  0.2486  0.0476
17382W        W32513  12.065   5.338   3.569 -0.0085  0.0239  0.0840
17383W        W32514   3.638   0.217   4.745  0.1422 -0.0276  0.0393
17384W        W32515   5.087  15.244  15.302 -0.0779  0.0130  0.2077
17385W        W32516  16.595  11.425  12.838 -0.3354  0.0397  0.1369
17386W        W32517  12.591  12.049   2.683 -0.3699  0.0574 -0.0818
17387W        W32518   1.191   5.701   5.631 -0.0565  0.2255  0.1655
17388W        W32519   1.889  14.984   3.151  0.0018 -0.0451 -0.0812
17389W        W32520  12.946   8.301   3.449  0.0034  0.3138 -0.1391
17390W        W32521  10.087  15.219  13.590 -0.0845 -0.0870 -0.1056
17391W        W32522  16.445  15.571   0.682  0.0365 -0.2894 -0.0513
17392W        W32523   6.727  15.496  13.085 -0.1252  0.0187  0.0790
17393W        W32524   7.044  10.481  14.896  0.2298 -0.1310  0.0693
17394W        W32525  16.238  10.510   2.364 -0.0069  0.2007  0.0763
17395W        W32526  11.868  15.503  10.611 -0.3813 -0.2264  0.0411
17396W        W32527   4.642  10.242  11.942 -0.0027  0.0545 -0.0719
17397W        W32528   1.055   3.668  11.437 -0.0306 -0.3053 -0.0895
17398W        W32529   6.891   4.165  14.745  0.0306 -0.2350 -0.3509
17399W        W32530  14.971  12.961   2.405 -0.0447 -0.1939  0.0193
17400W        W32531  13.679   8.796  11.044 -0.0001 -0.2542 -0.0010
17401W        W32532  10.792   2.363  16.056 -0.0877  0.0901  0.1298
17402W        W32533   3.993   3.837   5.200  0.3203 -0.0820  0.1412
17403W        W32534   6.748   0.061  13.613 -0.1930  0.3213 -0.1493
17404W        W32535   6.030  12.634   1.434  0.3415 -0.3914  0.1441
17405W        W32536  11.901  10.802   1.271  0.1136 -0.2720 -0.0273
17406W        W32537  16.710   0.640  10.966  0.1176  0.2335  0.2494
17407W        W32538  17.582  17.783  12.442 -0.0881  0.0966  0.0470
17408W        W32539   5.966  16.401   0.600 -0.2415 -0.1199 -0.0688
17409W        W32540   0.928   6.705  16.115  0.0516  0.3519  0.3934
17410W        W32541   8.611  12.056  13.976  0.1407 -0.2222 -0.0596
17411W        W32542  16.509  13.834   3.341 -0.0039  0.1750 -0.2465
17412W        W32543   0.294   9.465   4.835  0.2606  0.2743  0.0484
17413W        W32544  13.829   0.817   3.646 -0.0120  0.2090  0.0203
17414W        W32545   4.517   4.353   0.357  0.1435 -0.1408  0.2701
17415W        W32546  18.057   1.969   0.885 -0.3495 -0.1004 -0.0765
17416W        W32547  17.576  15.154  14.336  0.0264 -0.2452  0.0209
17417W        W32548  13.079  17.229   0.096  0.2209  0.1045  0.4196
17418W        W32549   1.078  12.528   3.940 -0.1768  0.0748 -0.1077
17419W        W32550  14.318  14.632  13.831 -0.0001 -0.0766 -0.3598
17420W        W32551   6.730   0.843   1.512 -0.0157 -0.0703 -0.0351
17421W        W32552  11.150  15.461   6.040  0.1304 -0.0410 -0.4115
17422W        W32553  17.074  14.671  11.563  0.5396 -0.0603  0.0267
17423W        W32554   1.250   6.853   4.312 -0.0398 -0.1166  0.0753
17424W        W32555  10.024  14.894  14.556  0.1559  0.1206 -0.2447
17425W        W32556  16.174  12.073   0.288  0.3291 -0.3215  0.0699
17426W        W32557  17.885   5.119  15.698 -0.0541 -0.2799  0.0341
17427W        W32558   4.642   7.421   0.911 -0.1303  0.2239  0.0348
17428W        W32559  11.044  10.100  15.337  0.2080  0.0414 -0.1621
17429W        W32560  10.007   0.560   3.936 -0.1182  0.2715  0.3001
17430W        W32561   4.877   6.876   4.997 -0.1611 -0.1093  0.0593
17431W        W32562   6.900  11.949   2.059  0.1179 -0.1327 -0.1064
17432W        W32563   7.339   3.626   5.133 -0.0975 -0.0709  0.0525
17433W        W32564  14.484  14.629   1.520  0.1579 -0.0686  0.1735
17434W        W32565   9.098  16.275  14.187 -0.1143  0.1960 -0.1601
17435W        W32566   2.289   2.264  13.195  0.1010 -0.1477 -0.1355
17436W        W32567  16.420   3.109  12.288  0.2415  0.0654 -0.3172
17437W        W32568  16.018   0.733   5.587  0.0341 -0.0209  0.2043
17438W        W32569  15.753  11.372   0.872  0.4540  0.0415  0.0893
17439W        W32570   0.077   6.116   4.964 -0.0458  0.0035 -0.3323
17440W        W32571   2.447   4.296  15.565 -0.0953 -0.0043 -0.1005
17441W        W32572   6.705  17.374  12.138 -0.0194  0.2884 -0.0848
17442W        W32573   8.879   3.606  12.043 -0.1658  0.0719  0.1640
17443W        W32574   1.608   6.111  10.977 -0.1162 -0.1146  0.2358
17444W        W32575  13.556  16.248  15.260 -0.1359  0.2752  0.1522
17445W        W32576  14.048  17.127   4.919 -0.3438  0.2472  0.1170
17446W        W32577  14.642  16.964   2.292  0.2019 -0.2154  0.2488
17447W        W32578   3.613   3.402   3.072 -0.0440 -0.0437 -0.2194
17448W        W32579  17.826  12.310   4.014  0.2294 -0.0597 -0.3012
17449W        W32580   2.135   7.367   0.915  0.0220  0.2519 -0.1752
17450W        W32581  11.551  11.980   0.773  0.1071  0.0816 -0.2355
17451W        W32582   1.117  13.071   4.090  0.0451 -0.1372 -0.0569
17452W        W32583   9.878   0.276  13.679  0.1303  0.1953 -0.3956
17453W        W32584  11.553   4.736   3.981  0.0075  0.0351  0.1772
17454W        W32585   6.787  15.894  14.051  0.0343 -0.0447 -0.0631
17455W        W32586  17.899   0.683   0.034  0.2328 -0.2688 -0.1499
17456W        W32587   7.319   2.072  13.278  0.0556  0.0393  0.0841
17457W        W32588  14.768   8.964   1.113  0.3230 -0.1429 -0.2422
17458W        W32589   8.218   4.894   2.083  0.0781  0.0941 -0.0305
17459W        W32590  15.828   8.581   2.064  0.2871  0.0374  0.0455
17460W        W32591   8.235   8.999  12.381 -0.0454 -0.0522 -0.0995
17461W        W32592   8.495   4.811   3.681 -0.0771 -0.1635  0.1457
17462W        W32593  13.488  11.360  11.074 -0.0388 -0.1159 -0.0712
17463W        W32594  14.871   1.919   0.565 -0.0235  0.1816 -0.0611
17464W        W32595   6.312   8.765   4.700  0.1803  0.0483 -0.0212
17465W        W32596  17.187  13.875  14.875 -0.0649 -0.0145 -0.1602
17466W        W32597  17.346  13.641  13.977 -0.0962 -0.1107  0.2990
17467W        W32598   4.804   0.081   4.641 -0.0334  0.1663  0.0235
17468W        W32599  15.395  10.403  14.263  0.3991  0.0320 -0.0260
17469W        W32600   8.430   2.877   2.163  0.5064 -0.1250  0.2374
17470W        W32601  16.396   1.454  15.334 -0.0654  0.1582  0.0140
17471W        W32602   3.000   9.718  13.914  0.3078  0.1393 -0.2973
17472W        W32603  16.063   7.313   4.662  0.0229 -0.0628  0.1140
17473W        W32604   6.378   8.872   1.964 -0.0876 -0.1179  0.1395
17474W        W32605  12.130   0.960  16.023 -0.0485  0.2510 -0.1962
17475W        W32606  18.013  18.157   3.152 -0.1973 -0.2838  0.0494
17476W        W32607   2.443   6.786  13.207 -0.1045 -0.1956  0.2707
17477W        W32608   7.446   0.804   4.571 -0.0799 -0.0164 -0.1497
17478W        W32609  14.315   2.549   2.315 -0.0067  0.1447 -0.3806
17479W        W32610   9.109  15.653  12.232 -0.1887 -0.1502  0.2190
17480W        W32611   2.021  14.017   3.340 -0.1666  0.2373  0.0407
17481W        W32612   1.639  14.323  12.011  0.0555  0.0679  0.4092
17482W        W32613   9.520   7.463   1.817 -0.0029  0.0984  0.0445
17483W        W32614   1.096  13.122   5.152 -0.2713  0.2374  0.1848
17484W        W32615   3.890   1.532   1.603 -0.1345  0.2078 -0.1570
17485W        W32616   3.038   7.929  11.261 -0.1374  0.2379 -0.2069
17486W        W32617   0.749   9.682   3.036 -0.1750  0.0826 -0.5616
17487W        W32618   5.298   3.809   1.830  0.5581 -0.0083  0.0564
17488W        W32619  14.204   2.407   4.368  0.3030 -0.2311  0.3409
17489W        W32620  15.832  15.684   1.274 -0.1200 -0.3400  0.3353
17490W        W32621  11.201  15.196  14.516 -0.0750 -0.0004 -0.2707
17491W        W32622   1.195  11.790   1.384 -0.1946  0.0630 -0.0839
17492W        W32623  10.268   9.467  10.884  0.4329  0.0275 -0.2243
17493W        W32624   5.030   1.089  15.035  0.1057  0.0694 -0.1865
17494W        W32625   0.870  14.485   1.584  0.0847 -0.4002  0.0500
17495W        W32626   3.537  16.678  11.852  0.0336 -0.0041  0.3072
17496W        W32627  12.464  17.293  11.530  0.1278  0.2179  0.2087
17497W        W32628   8.868   1.176  10.866  0.2580  0.0975 -0.1915
17498W        W32629  16.098   9.655   4.654 -0.0430 -0.1972  0.3551
17499W        W32630   5.175  15.782   3.006 -0.0645  0.0558  0.1378
17500W        W32631  13.125  13.010   0.814 -0.2392  0.2957 -0.1227
17501W        W32632  14.961  16.266   2.769 -0.1444 -0.0685 -0.1140
17502W        W32633   3.802   5.686  14.199  0.1158 -0.1534 -0.3133
17503W        W32634  10.211   2.976  12.635  0.0484 -0.0567  0.1517
17504W        W32635  12.572   0.178  13.285  0.1201  0.4222 -0.1868
17505W        W32636   1.833  11.324  13.492  0.2289  0.0551  0.0841
17506W        W32637  12.073  16.371   6.378  0.0583 -0.1564 -0.0151
17507W        W32638  17.740  17.352   0.388  0.0544  0.2186 -0.1136
17508W        W32639  11.336  12.869   6.069 -0.1210 -0.2596  0.1326
17509W        W32640  17.902  13.918  12.036  0.1074 -0.1729 -0.0698
17510W        W32641   1.960  11.069  15.048 -0.0776 -0.1142 -0.0672
17511W        W32642   7.714   0.739  14.332  0.1325  0.1250 -0.1629
17512W        W32643   4.930   8.214   2.588  0.1205 -0.1944 -0.0926
17513W        W32644   9.002   4.976  11.125  0.1806  0.0185  0.0546
17514W        W32645  14.511   8.876   2.120 -0.2729 -0.0749  0.0588
17515W        W32646  17.480  17.751   6.580 -0.0779  0.2104 -0.0608
17516W        W32647  15.602   2.494  12.384  0.0192 -0.0885 -0.2049
17517W        W32648  12.913   5.773   3.924  0.0685 -0.1465  0.1545
17518W        W32649   6.527   0.228   3.543 -0.1495  0.2408  0.0245
17519W        W32650   9.053  17.737  16.020 -0.0164 -0.1377 -0.1764
17520W        W32651   4.961  17.392  14.722 -0.3148  0.1619  0.0145
17521W        W32652   1.418  10.784   3.932 -0.0570 -0.1342 -0.3273
17522W        W32653   1.633   0.637   3.877  0.2029  0.0777 -0.1467
17523W        W32654  10.676   3.077  13.635 -0.0667  0.0956  0.4639
17524W        W32655   1.410  17.599   2.822 -0.0810  0.1528 -0.0318
17525W        W32656  13.311   2.462   2.326 -0.0074  0.0433 -0.0834
17526W        W32657  16.979   4.896  14.012 -0.1177  0.0680 -0.2990
17527W        W32658  14.294   0.649   5.836  0.0601  0.0111  0.1076
17528W        W32659   8.098  17.686  15.868  0.0935  0.1272  0.0783
17529W        W32660  15.526   9.335  12.877  0.0342 -0.1948  0.1180
17530W        W32661  17.970  17.502  13.820 -0.0532  0.0795 -0.0070
17531W        W32662  16.921   8.095  14.407  0.2101  0.0608  0.1097
17532W        W32663   1.205   2.297  14.220 -0.2012 -0.0012  0.1194
17533W        W32664   7.112   7.968  14.560 -0.0467  0.0800 -0.0451
17534W        W32665   3.850   4.000   2.356  0.1431 -0.2241 -0.4605
17535W        W32666  14.307  13.036  12.428  0.0387  0.3036 -0.0104
17536W        W32667   7.544  10.542   1.968 -0.1077 -0.2429 -0.1005
17537W        W32668  16.712  10.572   0.850  0.3190  0.2079  0.0023
17538W        W32669   7.793   0.093  11.777 -0.2362 -0.1776  0.2144
17539W        W32670   8.085  17.887  11.973 -0.3768 -0.2404 -0.1734
17540W        W32671  12.986   7.136  11.677  0.1594  0.2199 -0.1667
17541W        W32672   6.523  12.877  12.849  0.0565 -0.1994  0.0844
17542W        W32673  14.192   4.885   1.798 -0.1729 -0.0349  0.1081
17543W        W32674   7.615   0.473   4.182 -0.0224 -0.0106 -0.1757
17544W        W32675   1.981   4.525   2.894 -0.2020  0.3035 -0.1246
17545W        W32676   8.036  14.855   9.483 -0.0509  0.0386 -0.1184
17546W        W32677  16.098   2.372   1.177 -0.1727  0.1114  0.3323
17547W        W32678  12.323  12.642   4.600 -0.0052  0.2750  0.2586
17548W        W32679  18.166   5.975   3.209 -0.1693  0.1475  0.1636
17549W        W32680   1.888   5.233   2.222 -0.1760  0.0132 -0.3062
17550W        W32681  17.990   3.597   0.358 -0.0011  0.1528  0.1110
17551W        W32682  11.378   0.791  13.688 -0.2056  0.3649  0.1769
17552W        W32683  11.124   5.236   4.654  0.1696 -0.2828 -0.1088
17553W        W32684   5.110   1.001   4.639 -0.2763  0.2393  0.3043
17554W        W32685  15.437   8.599   5.148  0.3384  0.0336  0.0047
17555W        W32686   5.294   1.592   0.829 -0.2437 -0.2077  0.0159
17556W        W32687  13.672   7.514  11.048  0.0605  0.0011  0.0698
17557W        W32688   2.392   8.440   2.276  0.2228  0.1078 -0.2518
17558W        W32689   9.385   5.632  14.617 -0.0187  0.2417 -0.1266
17559W        W32690   2.049   3.052  15.083 -0.0777  0.2306  0.0703
17560W        W32691  15.182   1.021  15.471 -0.0378  0.3690 -0.0908
17561W        W32692  15.234  10.781   3.182  0.0676  0.0214 -0.0282
17562W        W32693  12.855   2.188  11.543  0.1822 -0.3016  0.4224
17563W        W32694  13.803   3.113   1.635 -0.2157  0.0595 -0.0792
17564W        W32695   3.676   6.431  11.247 -0.1566 -0.1360 -0.0813
17565W        W32696   7.284   6.783   2.625 -0.2475  0.0058 -0.1303
17566W        W32697   0.095   4.896  14.317 -0.1085  0.2633  0.1094
17567W        W32698   0.755   4.173  13.516  0.0497 -0.1823 -0.1255
17568W        W32699   5.906   9.133   2.282  0.2503 -0.1996 -0.0567
17569W        W32700  16.156  17.275   1.465  0.1333  0.1145  0.0165
17570W        W32701  13.757   0.834   4.156  0.3601 -0.1219 -0.1238
17571W        W32702   1.869   9.669   1.102 -0.1968  0.2769  0.0294
17572W        W32703   0.493   3.185  15.445 -0.3955 -0.0957 -0.0309
17573W        W32704  13.645   1.426  12.227 -0.1844  0.0589 -0.2772
17574W        W32705  17.122  10.235  11.798  0.0971  0.3321 -0.2406
17575W        W32706   0.281   7.906  11.712 -0.0321  0.0138  0.1133
17576W        W32707  10.860   7.732   3.969 -0.1834 -0.0404  0.2821
17577W        W32708   6.116  10.430  14.049  0.0479  0.2554 -0.1873
17578W        W32709   3.150   1.136   4.684 -0.0200  0.0044 -0.1144
17579W        W32710  15.222  11.975   3.370  0.2187 -0.2093 -0.2089
17580W        W32711   2.374   9.475  12.690 -0.1122  0.2654 -0.1189
17581W        W32712   8.670   4.082  15.174 -0.0835 -0.0823  0.2088
17582W        W32713   5.881   6.855  14.865 -0.0671 -0.1094  0.1023
17583W        W32714   8.104  10.532   0.085  0.0698  0.3915 -0.0005
17584W        W32715  15.910   5.741  14.807 -0.1891  0.0893 -0.1243
17585W        W32716   4.512   8.268  14.160 -0.4137  0.1391  0.0244
17586W        W32717  17.210  14.902  12.574 -0.3087 -0.1741  0.2156
17587W        W32718   8.626   2.979  14.351  0.1111  0.1002 -0.0009
17588W        W32719  10.337   2.210   2.104  0.4022 -0.0321  0.2813
17589W        W32720  10.871  12.162   0.478 -0.1101 -0.1100  0.2702
17590W        W32721  17.151  13.957   0.535  0.1122 -0.1543 -0.0797
17591W        W32722   1.452   5.819   0.515  0.1154 -0.1553 -0.0650
17592W        W32723  13.634  11.203   1.416  0.0675 -0.0116 -0.0440
17593W        W32724   3.364   8.069  12.083  0.1143  0.1428  0.0221
17594W        W32725  12.494  14.882   0.611 -0.1407  0.2029  0.0620
17595W        W32726  15.635  12.831   6.276 -0.1393  0.0278 -0.0421
17596W        W32727   5.878   4.603  14.493  0.0272 -0.0341 -0.2861
17597W        W32728  10.725  14.950   2.015 -0.4061 -0.0934 -0.1753
17598W        W32729   1.903  15.928  13.904 -0.1011 -0.0629  0.0018
17599W        W32730   8.476  10.597  14.973 -0.0112  0.1962  0.1694
17600W        W32731  10.973   3.783  10.375  0.0328  0.0031 -0.2296
17601W        W32732   5.215   3.762   2.831 -0.2789  0.1885 -0.0630
17602W        W32733  17.290  17.311   3.089  0.1025  0.0331  0.4038
17603W        W32734   1.943   3.090   4.856 -0.2066  0.0284  0.1577
17604W        W32735   3.971  16.879  13.117  0.2459 -0.0738  0.0511
17605W        W32736   3.762  12.794  14.706 -0.0584  0.0982  0.0173
17606W        W32737   2.762   8.329   4.919  0.1383 -0.3948  0.3442
17607W        W32738  11.558  10.329  14.205  0.0123  0.0370 -0.1153
17608W        W32739   0.732  17.998   4.789 -0.1028 -0.2379 -0.0127
17609W        W32740  17.456  13.037   5.682 -0.4267  0.3067  0.0094
17610W        W32741  11.952   4.823   5.500 -0.0061 -0.0860  0.1668
17611W        W32742  17.180   2.056  11.272  0.4435  0.4353  0.1495
17612W        W32743   6.462   5.671  13.588  0.2702 -0.1546 -0.0768
17613W        W32744   1.768   3.782  12.466 -0.1524  0.1011 -0.0644
17614W        W32745  10.147   9.830   3.526  0.1178  0.1940 -0.0422
17615W        W32746  11.815  17.835   5.372  0.1202 -0.0491 -0.1992
17616W        W32747  10.566  13.535  12.591 -0.1484  0.0516 -0.3384
17617W        W32748   9.982   3.516  12.979  0.3184  0.0740  0.1516
17618W        W32749   3.356  15.045   2.371 -0.0976 -0.0504 -0.0449
17619W        W32750  12.169  11.968  14.814 -0.0805 -0.0878 -0.2762
17620W        W32751   3.896   1.221  12.600 -0.2214 -0.3347 -0.1559
17621W        W32752   7.219   3.205   1.384  0.2555  0.0045 -0.2176
17622W        W32753  17.443   6.263   2.243 -0.0731  0.2959 -0.0792
17623W        W32754  14.060  14.440   1.549  0.0038  0.0806  0.1226
17624W        W32755  13.536   8.693  12.610  0.2251  0.1989  0.2292
17625W        W32756   3.460   2.926   2.900 -0.1394  0.1085 -0.1979
17626W        W32757  17.554  17.152   4.407 -0.0695  0.4016  0.0069
17627W        W32758   6.253  14.877   0.108 -0.1697 -0.0566  0.1384
17628W        W32759  10.687   9.460   0.235  0.0458  0.1507  0.0842
17629W        W32760   8.806  15.548   1.550  0.3206  0.0790 -0.6072
17630W        W32761   7.238   7.907  12.110  0.3090  0.0567 -0.2892
17631W        W32762   8.143   3.178   1.799 -0.0205 -0.3684 -0.1997
17632W        W32763   1.972  16.143  14.876  0.2507  0.0149  0.0991
17633W        W32764   0.969   6.417  13.845 -0.0281  0.0497 -0.1486
17634W        W32765  11.225  10.192  11.347 -0.1913 -0.0232  0.1200
17635W        W32766   5.509  13.383  13.884  0.3143 -0.1318  0.3016
17636W        W32767   9.225  17.317   4.158 -0.0132 -0.4468  0.0350
17637W        W32768  15.840   8.095  13.234 -0.0258  0.2200  0.0260
17638W        W32769   1.239  11.813   4.432 -0.0394  0.0116 -0.0480
17639W        W32770   1.691  16.959   2.487  0.0144 -0.2213 -0.1061
17640W        W32771  14.921   0.004   2.774  0.2297  0.0357 -0.2466
17641W        W32772   9.218   3.526   1.740  0.1676  0.0467  0.2110
17642W        W32773   7.266   3.266   3.118 -0.0694 -0.0204 -0.2165
17643W        W32774  13.981   2.739  12.036  0.0175 -0.0416  0.1904
17644W        W32775   6.634   0.707  10.932  0.0672  0.0687 -0.0888
17645W        W32776  13.454  12.413  12.156 -0.0376  0.2243 -0.1088
17646W        W32777   3.863   9.255  10.573  0.0226  0.2074 -0.1726
17647W        W32778   5.118   4.691   2.997 -0.1137 -0.1901 -0.0401
17648W        W32779  10.117   1.455  12.935 -0.0776 -0.0190 -0.0222
17649W        W32780   9.150   8.937   0.310  0.2098  0.1538 -0.0289
17650W        W32781  10.067  13.490  10.728  0.2629  0.0747  0.0211
17651W        W32782   5.735   4.445   5.208 -0.2213 -0.0595  0.3952
17652W        W32783   8.310   1.307  11.955  0.0713  0.2616  0.1819
17653W        W32784   1.434   7.339   4.202 -0.1215 -0.1158  0.0371
17654W        W32785   6.145   6.487   1.114  0.0837  0.1458 -0.0866
17655W        W32786   9.084  17.366   0.645 -0.0366 -0.0017  0.0601
17656W        W32787   0.359  12.893   1.029  0.1166  0.2245  0.1531
17657W        W32788   0.308   5.823   4.489  0.1023 -0.2899 -0.3215
17658W        W32789   6.041  16.471  14.472  0.0926  0.3871 -0.4189
17659W        W32790  14.976   6.449  11.899 -0.3739 -0.0127 -0.0974
17660W        W32791   8.114  14.501   2.372 -0.0080 -0.1863  0.1238
17661W        W32792   6.933   1.363  15.702  0.0355 -0.1387  0.0060
17662W        W32793  14.490   1.189   2.342  0.1628  0.0068  0.0074
17663W        W32794  13.176   9.379   1.693 -0.0694  0.2327  0.1478
17664W        W32795   5.450  13.878  11.595  0.2000 -0.1256  0.1076
17665W        W32796  16.051   5.492  14.261  0.4098 -0.0545  0.2531
17666W        W32797  13.556  13.492  12.327  0.1507  0.1287 -0.4396
17667W        W32798   6.005   5.950   4.986  0.1200  0.0478 -0.0092
17668W        W32799   5.493   9.526   5.646  0.0260 -0.1884  0.1209
17669W        W32800  10.378   7.384   5.660 -0.2871 -0.0871  0.1474
17670W        W32801  13.508   3.870  13.341 -0.1308 -0.2277 -0.0133
17671W        W32802  13.005   9.426  13.110  0.0522  0.1212 -0.1753
17672W        W32803   6.460   2.650   4.664  0.2418 -0.0986 -0.4708
17673W        W32804  12.475   6.747  11.071  0.3314 -0.0594  0.1132
17674W        W32805   2.879  12.336  13.358  0.1135 -0.0822  0.2821
17675W        W32806   9.646  14.225  10.684  0.0273  0.0459 -0.0863
17676W        W32807  13.875  16.880  12.087 -0.1433  0.0424  0.0611
17677W        W32808   0.968  15.786  14.836 -0.0011  0.3116 -0.2285
17678W        W32809   6.495   5.097   2.117  0.1716  0.1222 -0.0334
17679W        W32810  17.929  14.840  13.087  0.0583 -0.2617  0.0957
17680W        W32811   6.023   4.648   1.885 -0.1765 -0.1647 -0.0292
17681W        W32812  16.950  17.291  13.004 -0.0588  0.0289 -0.0497
17682W        W32813  10.109   1.099  14.205 -0.0356  0.1588  0.0293
17683W        W32814  16.353   5.812  11.457 -0.3588  0.1533  0.2101
17684W        W32815   9.040  16.811   2.748 -0.0821  0.0085 -0.1219
17685W        W32816   8.099  12.428   3.723 -0.0527 -0.1792 -0.1579
17686W        W32817  17.081  14.770  13.643  0.2257 -0.2789  0.0061
17687W        W32818  14.349  10.784  12.612  0.0035  0.3077 -0.1823
17688W        W32819  10.225   2.282  16.141 -0.1568 -0.0706 -0.0731
17689W        W32820  18.062   4.130  14.790  0.1968 -0.0753  0.2207
17690W        W32821  10.632  17.734  15.894  0.1242 -0.2918  0.1017
17691W        W32822  14.156   7.403   5.496  0.0794  0.1687 -0.1368
17692W        W32823  11.403  14.736  13.659 -0.3553 -0.1779 -0.0082
17693W        W32824   9.865   8.553   4.328 -0.0489 -0.0390 -0.0886
17694W        W32825   8.378   1.754  14.052  0.0270 -0.1356 -0.0846
17695W        W32826  11.978   4.226   2.756  0.0733  0.1990  0.0468
17696W        W32827  16.553   1.266   4.620 -0.3246 -0.1575 -0.1189
17697W        W32828   3.556   8.853   0.780 -0.0369  0.1040 -0.0957
17698W        W32829   2.187  11.105  11.168 -0.0043 -0.1572  0.0353
17699W        W32830  13.529   4.294  13.645  0.3756  0.0276  0.0854
17700W        W32831   5.358  14.788  13.294 -0.0287 -0.0248 -0.1016
17701W        W32832  15.086  11.065  12.274  0.0449  0.2545 -0.0393
17702W        W32833   4.448  16.062   0.784  0.1758 -0.2493  0.0238
17703W        W32834  16.307  15.921   5.809  0.1318  0.1074  0.0624
17704W        W32835  10.459   1.668  13.261 -0.0314 -0.0427  0.0339
17705W        W32836   2.658  14.338  15.108 -0.1227 -0.2724  0.0597
17706W        W32837  13.248   1.618   2.357  0.2003 -0.1360  0.4623
17707W        W32838   3.936   8.484  14.803  0.0912 -0.1362  0.3983
17708W        W32839   9.964   9.458  15.721 -0.0056  0.0575  0.0781
17709W        W32840  11.871   3.036   5.723  0.1904  0.2749  0.1847
17710W        W32841  11.526   7.520   4.031  0.3400  0.0841  0.0608
17711W        W32842  12.275  17.940   2.244 -0.0865 -0.2341  0.0350
17712W        W32843  11.340  14.090   0.817  0.0966 -0.0095 -0.1316
17713W        W32844  14.330  12.438  11.901  0.4288  0.1880  0.2865
17714W        W32845  12.480   5.783  12.375  0.3821 -0.0561 -0.1205
17715W        W32846   4.621   3.923  14.322  0.1610 -0.0001  0.1059
17716W        W32847   2.292   6.044  14.640  0.0981  0.4279  0.1577
17717W        W32848   7.844  17.145   3.536  0.0083 -0.2564  0.0456
17718W        W32849  14.232  12.217  14.658  0.1294 -0.1411  0.0641
17719W        W32850  11.684   8.196  11.071 -0.2303  0.1976 -0.1025
17720W        W32851   2.290   8.618  11.039 -0.0607 -0.1369 -0.0517
17721W        W32852   8.951   4.704   4.352  0.1427 -0.0542  0.2740
17722W        W32853   9.571   8.747   5.043 -0.0152 -0.3273  0.1348
17723W        W32854   5.650   7.303   3.978 -0.1371 -0.1301 -0.1276
17724W        W32855  15.033  14.477   4.537 -0.2280 -0.1242  0.0036
17725W        W32856   3.001   2.511  14.500 -0.3591  0.0662 -0.2159
17726W        W32857   6.613   9.496   4.133  0.0091 -0.2666  0.2207
17727W        W32858   8.869   5.455   4.332  0.1585  0.2546 -0.3933
17728W        W32859   3.417   7.260   0.610 -0.0167  0.3725 -0.2878
17729W        W32860  14.211   4.587  13.248 -0.2587 -0.0569  0.2954
17730W        W32861   9.079   6.105   1.836  0.2593  0.2157 -0.3395
17731W        W32862   2.862  17.956  14.013 -0.1035  0.0772 -0.0889
17732W        W32863  15.965   7.676   4.192  0.2025  0.0879 -0.2300
17733W        W32864   9.692   8.216  12.893 -0.2503 -0.0480 -0.1771
17734W        W32865   0.859  14.600  12.573  0.0572  0.2053  0.0781
17735W        W32866  14.318   6.901   5.646  0.2459 -0.2174 -0.0195
17736W        W32867   1.716  18.055  11.302  0.2292  0.1057 -0.0098
17737W        W32868  17.520   3.210   2.692 -0.0921  0.0072  0.0027
17738W        W32869  17.759   6.155   5.850 -0.0936  0.0664 -0.1215
17739W        W32870   0.891   3.655   5.321  0.3365 -0.1725  0.0079
17740W        W32871   5.710  17.505   3.515 -0.1229 -0.0701  0.0543
17741W        W32872  13.075   4.719   3.453 -0.1014  0.0183  0.1995
17742W        W32873  14.021  18.121  13.791 -0.0554 -0.0675  0.1514
17743W        W32874   9.277   2.439  14.845  0.0366  0.0455 -0.1515
17744W        W32875   1.676   4.150   1.606 -0.2387  0.0962 -0.1493
17745W        W32876   1.890  15.787   3.955 -0.0723 -0.3918  0.1185
17746W        W32877  12.329   7.258  14.772 -0.0897 -0.0070 -0.0529
17747W        W32878  16.180   3.125  13.182  0.1404 -0.1916 -0.2113
17748W        W32879   7.136   9.071  10.433 -0.0011 -0.0282  0.0542
17749W        W32880  15.105   9.432   4.557  0.1609 -0.1613 -0.1217
17750W        W32881  11.500  11.938   5.466 -0.1049  0.1955  0.0638
17751W        W32882   0.245   1.755   3.511 -0.1105  0.1915 -0.1813
17752W        W32883   6.048  12.769   4.329  0.0371 -0.1075  0.2446
17753W        W32884   6.466   4.613   2.349 -0.0963 -0.1077 -0.0065
17754W        W32885  10.414   1.918  10.500  0.0391  0.0090  0.0546
17755W        W32886   9.655   8.916  12.080  0.1843  0.3724 -0.1562
17756W        W32887   6.689   2.737  14.297  0.3243  0.1115  0.2621
17757W        W32888  11.937   5.270   1.070 -0.0732 -0.2009 -0.0997
17758W        W32889   8.421   7.559  13.658 -0.1611  0.0666  0.2241
17759W        W32890  13.949   6.095   5.487 -0.1109  0.1102  0.0693
17760W        W32891  13.749   8.436  11.787  0.0782 -0.2057  0.2055
17761W        W32892   1.150   4.957  10.349  0.0919 -0.1820 -0.0341
17762W        W32893   3.767  14.184   2.045 -0.1377  0.0819 -0.0182
17763W        W32894   8.932   1.704  16.034  0.0001 -0.3408  0.0393
17764W        W32895  16.737   0.480  14.281  0.0222  0.0564 -0.0738
17765W        W32896   0.695   3.629  10.093 -0.2854  0.3932  0.0395
17766W        W32897  13.459   4.436   3.681 -0.0854 -0.1095  0.0984
17767W        W32898  11.041  13.005  10.748  0.0796 -0.0603  0.4574
17768W        W32899   6.316  12.102  12.315 -0.0883 -0.2157  0.0967
17769W        W32900  11.915   6.096   5.372 -0.0895 -0.2266  0.2064
17770W        W32901  12.006  16.937  10.627 -0.1401  0.0116  0.0948
17771W        W32902   4.184   4.068  14.080 -0.1221  0.2206 -0.1376
17772W        W32903   5.742  14.468   3.119  0.0062  0.1109  0.3552
17773W        W32904   9.654   9.065   5.482 -0.0758  0.2384  0.0543
17774W        W32905  13.079   9.874  10.778 -0.3330  0.4024 -0.2392
17775W        W32906  13.919   6.640   3.667 -0.0625  0.1555  0.1786
17776W        W32907  10.575   9.696   3.887  0.0854 -0.1053 -0.0646
17777W        W32908  16.317  11.698   2.521  0.0410 -0.1094  0.0856
17778W        W32909   9.374   0.423  14.235 -0.1969 -0.0249 -0.2397
17779W        W32910   5.177  11.411  16.191 -0.0819 -0.2620 -0.1268
17780W        W32911  17.711   2.332  14.194 -0.0012  0.2483  0.0057
17781W        W32912  10.513   0.066   5.708  0.2290  0.1754 -0.0719
17782W        W32913   8.130   2.590  15.819  0.3245  0.0688 -0.2882
17783W        W32914   7.539  13.773  14.532 -0.2252 -0.0109  0.3461
17784W        W32915  10.886   9.387  13.127  0.0538 -0.0174  0.1189
17785W        W32916  15.587   9.747  10.626  0.3724  0.1791 -0.0799
17786W        W32917  11.893   6.851  13.640 -0.1270 -0.2087 -0.0895
17787W        W32918   7.665  15.663  13.026 -0.1068  0.0079  0.1691
17788W        W32919   9.772  17.895   5.063  0.0364 -0.0295 -0.1469
17789W        W32920  14.693   2.115   0.139 -0.1223 -0.1463 -0.0354
17790W        W32921   1.399   1.406   0.325  0.3386 -0.0854  0.0186
17791W        W32922  14.660  15.901  12.607 -0.1248 -0.0092  0.2262
17792W        W32923   9.058  17.312  11.858 -0.3805  0.0922  0.1947
17793W        W32924   6.542   6.594  13.089 -0.1491 -0.0997 -0.1681
17794W        W32925   0.724   0.450   1.608 -0.2110  0.0211  0.2707
17795W        W32926   0.345   6.690  11.065 -0.0491 -0.4347 -0.1342
17796W        W32927   2.652  12.554  12.006 -0.0078 -0.1998  0.2866
17797W        W32928  13.133  12.844  12.096  0.1827 -0.1660 -0.1733
17798W        W32929  18.036   4.551   5.361  0.0330  0.0963 -0.3094
17799W        W32930  11.410  14.246  13.410 -0.0050  0.0467 -0.1880
17800W        W32931   8.095   4.250  11.373 -0.2276 -0.0159 -0.0906
17801W        W32932   5.063   8.926   2.249  0.1055 -0.0282 -0.2026
17802W        W32933  14.580  11.450  15.883 -0.1508 -0.1283 -0.1756
17803W        W32934   7.854  14.349  11.924 -0.1510  0.3984 -0.3815
17804W        W32935  16.398   7.487   1.721  0.0176  0.1982 -0.1587
17805W        W32936  16.075   3.841   3.399 -0.1214 -0.3727 -0.3731
17806W        W32937  15.176  12.496   2.853  0.2159 -0.0695  0.1262
17807W        W32938  15.142   8.783   0.131 -0.1662  0.4953  0.0256
17808W        W32939  13.434  17.701   1.845 -0.0247 -0.0527  0.0858
17809W        W32940  10.054  13.111   1.410 -0.0775 -0.1285  0.0036
17810W        W32941   9.213  18.135  14.051 -0.2200  0.0393 -0.1722
17811W        W32942   7.495  15.040   3.360  0.0573  0.2612  0.0122
17812W        W32943  11.702  11.873   0.299 -0.0624  0.1694 -0.1643
17813W        W32944  17.921   0.997   3.611 -0.1868  0.1864  0.0818
17814W        W32945  12.550  13.287  10.523  0.1572  0.1582 -0.1795
17815W        W32946   2.233   7.608   3.827  0.0295 -0.1595 -0.2239
17816W        W32947   7.489   7.798   1.551  0.0402 -0.0748  0.0613
17817W        W32948   5.296   5.666   1.649 -0.1522 -0.0008 -0.0495
17818W        W32949   3.103   7.079  13.264  0.0786 -0.2121  0.2868
17819W        W32950  17.200   7.918   3.217  0.0770 -0.0750  0.2813
17820W        W32951  18.123   1.528   3.819  0.1757  0.2177  0.1624
17821W        W32952   5.223  13.597   1.413 -0.2018  0.0859  0.1450
17822W        W32953   8.893   4.599  11.442 -0.0116 -0.1215  0.1306
17823W        W32954   0.324   8.707   1.725  0.0351  0.2230 -0.0876
17824W        W32955   2.561  12.034   3.481  0.2455 -0.0745  0.2023
17825W        W32956   4.263  14.843   4.136  0.0072  0.1423  0.1140
17826W        W32957   6.774   2.924  15.318 -0.1497 -0.1319 -0.0049
17827W        W32958   0.351  16.901   2.550 -0.0155 -0.0041 -0.3251
17828W        W32959   5.506  17.419  14.413  0.1023  0.0373  0.1533
17829W        W32960   3.971   3.118   4.636  0.0908 -0.0400 -0.1449
17830W        W32961  14.683  13.709  11.917 -0.0166 -0.0611 -0.1175
17831W        W32962  12.876  10.559  12.476 -0.0146  0.1099  0.3075
17832W        W32963  16.296  14.636   1.368 -0.0287 -0.2397 -0.3213
17833W        W32964  12.937   8.060  14.395  0.0321  0.2998 -0.1605
17834W        W32965  12.413  13.278  15.447 -0.0517  0.0291 -0.2229
17835W        W32966  12.139   3.066   1.607 -0.0274  0.3126  0.0052
17836W        W32967   9.911   1.138  12.604  0.0292 -0.2874  0.1908
17837W        W32968   1.659   3.851   4.260 -0.0440 -0.1277 -0.4322
17838W        W32969   0.142   9.961  14.938  0.0714  0.0579  0.1766
17839W        W32970   4.587  12.601   1.046 -0.0312 -0.2187 -0.0366
17840W        W32971   7.962  11.023   4.458 -0.0363  0.3008 -0.4097
17841W        W32972  11.367  10.369   4.830  0.0373  0.0545  0.1726
17842W        W32973   1.294   1.131   3.490  0.0257  0.1224 -0.2693
17843W        W32974   0.058   4.625   5.840  0.2077 -0.1638 -0.0467
17844W        W32975  14.934   4.875   4.473  0.1078  0.3997 -0.1967
17845W        W32976   5.838  16.731   1.019  0.2911 -0.0681 -0.2453
17846W        W32977   5.203   8.234  15.534  0.2115 -0.0283 -0.2620
17847W        W32978   6.593  17.393   2.606  0.2794 -0.5961  0.1330
17848W        W32979   3.959  17.441  10.899  0.0549  0.1172 -0.0719
17849W        W32980   3.790   6.496  15.288 -0.0937  0.1960  0.1577
17850W        W32981  11.492   8.857   0.559 -0.1301  0.1622 -0.0985
17851W        W32982   8.103   6.191  12.410  0.1417 -0.2249  0.1448
17852W        W32983   4.491   9.669  14.959 -0.0419  0.1620  0.2793
17853W        W32984   6.498   8.470  12.812  0.2003  0.2120  0.3526
17854W        W32985   3.179  12.098   4.003  0.0776  0.2048  0.1391
17855W        W32986  14.610  14.799   2.279 -0.3376 -0.0026 -0.1497
17856W        W32987  10.494  13.086  13.377  0.2742  0.0113  0.1562
17857W        W32988   5.884   3.968   4.775  0.0223  0.0697 -0.2469
17858W        W32989   6.528   0.745   4.925 -0.1087 -0.2754  0.1821
17859W        W32990   3.546   3.807  15.657 -0.1944  0.0789  0.1508
17860W        W32991  17.299  17.878   1.093 -0.1306  0.2388  0.3471
17861W        W32992   3.896  15.990  15.505  0.1789 -0.1683  0.2222
17862W        W32993   1.468  17.854   0.742  0.1018  0.0545  0.0095
17863W        W32994   9.580  14.504  12.374 -0.1472 -0.0552 -0.1086
17864W        W32995  13.952   3.218   2.284  0.4108 -0.4090  0.0244
17865W        W32996  16.841  15.684   5.634 -0.2888  0.2029  0.3904
17866W        W32997  14.599   5.477   0.484 -0.1762  0.0603 -0.0142
17867W        W32998   4.428  15.089  11.344  0.1033 -0.0380 -0.0905
17868W        W32999  16.139  13.485  15.550 -0.0190 -0.0253 -0.1569
17869W        W33000   7.534   2.656  10.946 -0.0122  0.0309 -0.1913
17870W        W33001  11.365   6.793   1.215 -0.2044  0.1318  0.0002
17871W        W33002   5.638   3.136   2.355 -0.0796  0.2497  0.1284
17872W        W33003   7.278   8.411  13.556  0.1780 -0.1536 -0.0672
17873W        W33004   9.301  10.742  13.810  0.2400  0.1127 -0.1502
17874W        W33005  10.168   9.904  11.194 -0.0543  0.0552  0.4396
17875W        W33006  10.243   7.777  11.628 -0.1909  0.0847 -0.0008
17876W        W33007  15.741  14.956   0.130  0.0841  0.3335 -0.2205
17877W        W33008   5.875   1.655   3.319 -0.1757  0.0134 -0.1852
17878W        W33009  14.987   1.555  15.109 -0.3817  0.1047 -0.0919
17879W        W33010   3.095   9.145   5.223  0.0601  0.1165  0.0317
17880W        W33011   0.450  10.661   4.542  0.1766 -0.0101  0.0285
17881W        W33012   3.733  13.874  10.924  0.2658 -0.3819  0.1477
17882W        W33013  15.270   3.485   2.601 -0.1947  0.0067  0.0082
17883W        W33014  11.802   7.415  11.452  0.1474 -0.1707 -0.0705
17884W        W33015   8.078  13.507   2.103 -0.0221 -0.0262  0.0280
17885W        W33016   4.430   7.957   4.603 -0.0239  0.2168  0.1372
17886W        W33017   6.882   5.665  13.940  0.1498 -0.4064 -0.0984
17887W        W33018   8.101  17.299  12.542  0.0593  0.3289 -0.1366
17888W        W33019   3.742  10.879   1.153 -0.0133  0.1811 -0.0425
17889W        W33020   2.810   3.324   3.712  0.0410 -0.1174  0.2347
17890W        W33021  16.094   2.394  14.262  0.1051 -0.0477  0.2297
17891W        W33022   2.682  14.691  14.057  0.1278  0.0247  0.0900
17892W        W33023   6.224   3.039   3.902  0.0021 -0.3934  0.0914
17893W        W33024   4.343   7.627  13.569  0.1667 -0.3018  0.2623
17894W        W33025   3.801   8.842  13.585  0.3355  0.1861  0.1221
17895W        W33026   5.899   4.845  10.548  0.2036  0.1406  0.0148
17896W        W33027   4.030  17.542  11.946 -0.0205 -0.2380 -0.1368
17897W        W33028  10.873  17.262  12.870  0.1710 -0.1528  0.0280
17898W        W33029  15.709   6.311   3.626 -0.1265 -0.1781  0.0792
17899W        W33030  10.575   8.977   0.994  0.1344 -0.1100 -0.2378
17900W        W33031   6.392   6.931  11.305 -0.0742 -0.0737  0.0724
17901W        W33032   4.433  12.964   5.839 -0.1368 -0.0595 -0.0727
17902W        W33033  12.918  17.834   1.705  0.4191 -0.2392 -0.2711
17903W        W33034  13.743  12.599  14.039 -0.2240  0.3660 -0.0031
17904W        W33035   9.157   9.147  16.078  0.3020 -0.0192  0.1185
17905W        W33036  11.773  12.598   3.404  0.1433 -0.0599 -0.0019
17906W        W33037  11.353   1.586  14.228  0.0924 -0.0098 -0.6653
17907W        W33038  14.644   7.964  12.231  0.0469  0.2736  0.2050
17908W        W33039  13.273  17.491   5.845  0.1937 -0.0619 -0.0657
17909W        W33040   0.885  12.077   4.692 -0.0734  0.0878  0.4261
17910W        W33041   3.344  14.055  11.211 -0.2226 -0.0656 -0.0258
17911W        W33042   2.507   3.117  11.432  0.4613 -0.1996  0.0327
17912W        W33043   7.157   8.473  11.526 -0.2051  0.2463 -0.2409
17913W        W33044   2.626  14.537   2.850  0.2147  0.1968  0.0042
17914W        W33045   5.441   1.152  12.502 -0.0227  0.0545  0.2484
17915W        W33046   5.053  15.995  14.680  0.3089 -0.0584  0.1408
17916W        W33047   2.027   7.090   1.959  0.1317 -0.0001 -0.2147
17917W        W33048  13.585   0.503   1.635  0.1163  0.1363  0.0460
17918W        W33049  12.862   1.939   5.405 -0.0616 -0.0297  0.1137
17919W        W33050  13.680   2.274  12.870 -0.1262  0.1679 -0.1876
17920W        W33051   6.920  17.826  12.288 -0.2567 -0.1137  0.1852
17921W        W33052  13.072   8.899  12.438 -0.0488  0.1345  0.1556
17922W        W33053  14.709   0.586  13.861  0.1696  0.1574 -0.0529
17923W        W33054  15.751   6.910  11.705  0.1621 -0.0382 -0.1362
17924W        W33055   1.639  11.283   0.481  0.4755 -0.2139 -0.0055
17925W        W33056  17.146  11.317   4.851 -0.4388  0.0790  0.0662
17926W        W33057  11.218   8.125  15.773 -0.1232 -0.0491  0.0091
17927W        W33058  15.286  12.804   0.462 -0.2735  0.1802 -0.3045
17928W        W33059   2.270   3.378   1.403  0.0903  0.1219  0.0027
17929W        W33060  12.696  11.529  10.618  0.1558 -0.0321  0.0301
17930W        W33061   1.747  17.969   4.670  0.3997 -0.0586 -0.1322
17931W        W33062   2.163  12.430  11.749  0.2023 -0.0986  0.2115
17932W        W33063   2.101   2.714  15.519  0.1264 -0.0960 -0.1317
17933W        W33064  12.248  17.037  11.963 -0.0396  0.3387  0.1580
17934W        W33065   4.911  14.594  11.029  0.1808  0.2389 -0.0346
17935W        W33066   6.966  14.277   3.703  0.1138 -0.0688 -0.0746
17936W        W33067  15.076   7.079  12.478 -0.3494  0.1110 -0.1090
17937W        W33068   2.490   6.830   4.087 -0.0707 -0.0637 -0.0227
17938W        W33069   7.592  11.996  13.989  0.1995 -0.1789 -0.2111
17939W        W33070   6.537   7.394  13.288  0.5714 -0.0679  0.1883
17940W        W33071   0.016  17.938  14.697 -0.3558  0.2322  0.1873
17941W        W33072   2.623  16.387   4.142  0.2800  0.0579 -0.0314
17942W        W33073   3.805   8.770   2.155 -0.1799  0.3581 -0.0633
17943W        W33074   4.035   4.981  11.369 -0.1379  0.0493 -0.0416
17944W        W33075   3.674  12.121  12.877  0.0453 -0.0529  0.1791
17945W        W33076   1.303  10.541   1.093  0.0674 -0.1000 -0.3199
17946W        W33077  12.466  16.377  11.887  0.1445  0.3481  0.0268
17947W        W33078   1.986   9.012   4.407 -0.1106  0.2157  0.0695
17948W        W33079  14.170   8.090  13.554 -0.1798  0.3294  0.1478
17949W        W33080   7.471   2.443  12.395 -0.1200 -0.0912 -0.1042
17950W        W33081   3.426   9.344   5.524 -0.2126 -0.0402 -0.0551
17951W        W33082  11.412   2.633  12.058  0.0394 -0.0618  0.1431
17952W        W33083  12.590  17.248   0.345 -0.0814  0.1087  0.0196
17953W        W33084   3.341   2.852   2.313  0.3057 -0.2479  0.1452
17954W        W33085   3.169   3.115   3.433  0.1213  0.1609  0.2306
17955W        W33086   7.253   4.828  13.155 -0.0268  0.0366  0.0777
17956W        W33087   6.184  14.403   9.788 -0.0118  0.2878  0.0003
17957W        W33088   6.564  11.179  12.536 -0.6018 -0.4539 -0.2858
17958W        W33089  11.615  12.219   4.334 -0.1998 -0.2133 -0.2170
17959W        W33090  11.463   4.476  13.377  0.1000  0.1855  0.2558
17960W        W33091  17.088   9.308   5.252 -0.0707  0.1339  0.5054
17961W        W33092  10.970   9.405   3.012 -0.0058 -0.1471 -0.0521
17962W        W33093   1.423   6.602  10.977  0.0237  0.3165  0.3012
17963W        W33094   8.698   2.575  11.342  0.3433  0.0152 -0.0951
17964W        W33095  11.540  13.523   4.265  0.1395 -0.0103  0.0722
17965W        W33096  12.131   9.814   3.301  0.0010  0.0696  0.0951
17966W        W33097   5.471  15.883  14.141  0.0283 -0.1083 -0.1192
17967W        W33098  16.224  16.346  15.728  0.1195 -0.2580 -0.1503
17968W        W33099   7.016   9.546   3.305  0.0105  0.1768 -0.2993
17969W        W33100   0.075  13.511  14.503 -0.1118  0.1904 -0.2373
17970W        W33101  11.036   1.134   5.347  0.0262 -0.1950  0.0172
17971W        W33102   8.571   3.632   6.372  0.1383 -0.2651  0.0853
17972W        W33103  12.490   9.902   1.808 -0.0920  0.3523 -0.0777
17973W        W33104   2.282  17.162   2.292 -0.0494  0.0822 -0.0401
17974W        W33105   8.883  10.161   4.634 -0.1795 -0.3645 -0.1503
17975W        W33106   6.278   2.797   1.271  0.0300 -0.0384  0.1761
17976W        W33107  10.965  17.782  13.729 -0.3145  0.0572  0.1938
17977W        W33108   2.248   5.245  11.416  0.1805 -0.3197 -0.1755
17978W        W33109  16.985   8.212   3.652 -0.0323  0.0485 -0.0039
17979W        W33110  18.138   4.312   1.514  0.0317 -0.1083  0.0549
17980W        W33111  13.787   6.839  12.477 -0.2296 -0.0141 -0.1585
17981W        W33112   8.023   1.558   2.440  0.0645  0.1555 -0.0680
17982W        W33113   4.825   8.748  15.011 -0.0644  0.0274 -0.0958
17983W        W33114   2.823   6.242  10.849 -0.1193  0.0324 -0.4593
17984W        W33115   6.076   0.343   3.816 -0.1765  0.2055 -0.1834
17985W        W33116   6.463   8.541   4.226 -0.2617 -0.0715  0.3146
17986W        W33117   4.563  15.059  13.095  0.0409 -0.1793  0.0066
17987W        W33118   9.652  11.479   0.276 -0.2589  0.0808  0.0756
17988W        W33119  12.173   5.749   2.256  0.0919 -0.1954 -0.0495
17989W        W33120   9.616   3.120  11.643  0.0276  0.2705 -0.3729
17990W        W33121   2.243   9.694   2.124 -0.0935  0.1276 -0.1738
17991W        W33122  17.282   9.455   1.573 -0.1117 -0.1367 -0.0430
17992W        W33123   1.885  15.518   1.351  0.1105 -0.1328 -0.1249
17993W        W33124   6.187   3.055   0.273 -0.1199  0.0283  0.2035
17994W        W33125   8.994  11.734  14.134  0.1235 -0.2056 -0.0773
17995W        W33126   9.441  12.581  15.113 -0.1419  0.0461  0.0203
17996W        W33127  16.541   4.252   4.145  0.0529  0.1233 -0.1828
17997W        W33128   4.565   7.062  11.947  0.2680 -0.1304 -0.1106
17998W        W33129  13.458  15.484   2.472  0.2303  0.0044  0.0366
17999W        W33130   5.415  11.435  14.635 -0.4782 -0.0862  0.0328
18000W        W33131  18.172  17.924   4.441  0.4242 -0.0651  0.3043
18001W        W33132   3.995  15.334   5.376  0.1525  0.3981  0.0725
18002W        W33133   3.112  10.904  10.987 -0.1352 -0.0473 -0.1455
18003W        W33134   4.596   7.042  14.754 -0.2682 -0.3117  0.3806
18004W        W33135   5.502   1.129   0.285 -0.0002 -0.0813 -0.2468
18005W        W33136   5.643   8.257  15.797  0.0552  0.1195  0.1128
18006W        W33137   4.833   9.125   3.510 -0.3218 -0.0533  0.3439
18007W        W33138  13.611   3.422  12.161 -0.0474  0.1902 -0.0361
18008W        W33139   5.856  13.131  10.431  0.0649  0.1331 -0.3692
18009W        W33140   8.855  15.974   4.226  0.1807  0.1634 -0.4866
18010W        W33141  13.635  17.663   6.100  0.2092  0.4151 -0.2782
18011W        W33142   6.053  14.472   3.957 -0.0944  0.3176 -0.0657
18012W        W33143  12.320   5.211  13.073  0.2350 -0.0072 -0.0011
18013W        W33144  16.934   9.750   2.693 -0.1171  0.0117  0.0994
18014W        W33145   9.155  12.756  12.850  0.1405  0.1331  0.1655
18015W        W33146  14.938  15.325  13.743  0.1194  0.1924  0.1096
18016W        W33147  10.249   7.410   5.176  0.2339 -0.1888  0.0467
18017W        W33148  12.983  13.332  13.915 -0.2276  0.0639  0.0685
18018W        W33149   2.914  10.536  13.539  0.0275  0.2084 -0.0929
18019W        W33150   1.629  12.609   3.799  0.1937  0.0583  0.0606
18020W        W33151  11.947  15.675  13.895  0.1701  0.2016 -0.0479
18021W        W33152   5.565   0.635   2.623  0.0199 -0.0764  0.0075
18022W        W33153   6.960   1.000   4.878  0.1125  0.1056 -0.0652
18023W        W33154   8.083   2.192  12.971 -0.1336 -0.0751  0.3841
18024W        W33155  12.113   5.573  15.799  0.0307  0.1073 -0.0447
18025W        W33156   1.549   6.417   0.319  0.1171  0.3437  0.4069
18026W        W33157   1.222   7.989  13.864  0.0263 -0.2860 -0.3009
18027W        W33158  10.858  14.900  15.243  0.0221 -0.0266  0.2754
18028W        W33159   9.241   9.928   3.794  0.0022 -0.3538 -0.0176
18029W        W33160  14.273  16.683   5.120  0.2097 -0.0294  0.2653
18030W        W33161   0.981  10.595  11.875  0.0411  0.2308 -0.1269
18031W        W33162  10.771   0.377  11.640 -0.1197 -0.0878  0.2288
18032W        W33163   2.397  11.583  12.944  0.1526  0.3272  0.1408
18033W        W33164   7.163   3.146   5.250  0.0545  0.0917 -0.1277
18034W        W33165   3.706  17.472  12.479 -0.1046 -0.2863  0.0492
18035W        W33166   3.285   0.802   3.897  0.0182 -0.0725  0.0286
18036W        W33167   4.312  13.189   1.012 -0.0196  0.3381  0.1896
18037W        W33168   8.893  11.063  14.070  0.0230  0.0839 -0.1818
18038W        W33169   2.321  15.881  15.693  0.0163  0.2555 -0.3036
18039W        W33170  13.971   5.494  14.788  0.0949 -0.0582  0.2717
18040W        W33171   4.629   9.698   2.730  0.2513  0.1498  0.0998
18041W        W33172   1.226   2.874  13.877 -0.1883 -0.2818  0.2827
18042W        W33173   6.927  16.992  15.107 -0.1203 -0.0600 -0.0699
18043W        W33174  15.191  13.410   5.441  0.2141  0.1792  0.0103
18044W        W33175   6.562  12.512  12.471 -0.0176 -0.2458 -0.1245
18045W        W33176   2.445  15.233   6.359 -0.2690  0.3085  0.0660
18046W        W33177   7.767   9.100  10.943 -0.0282 -0.1428  0.0351
18047W        W33178   9.128   6.937   1.290  0.0846  0.0026 -0.0461
18048W        W33179   9.125   0.705   1.651  0.1027 -0.1994  0.1067
18049W        W33180   6.245  13.721   0.606  0.1280  0.0604  0.1344
18050W        W33181   1.653  13.134   4.058  0.1835  0.1590  0.0750
18051W        W33182  13.533  15.612   0.353  0.1732 -0.3937  0.0466
18052W        W33183   8.421  17.719  12.918  0.2907 -0.3024  0.1750
18053W        W33184  14.702  14.504   4.941 -0.0952  0.1288 -0.0624
18054W        W33185  16.045  14.018  15.387 -0.2224 -0.3721  0.1503
18055W        W33186   4.912   0.376  10.903 -0.1611  0.2200 -0.0577
18056W        W33187   4.182  16.279   2.189 -0.0566  0.0491 -0.0255
18057W        W33188  11.584   9.508  13.594 -0.1722 -0.1004 -0.0549
18058W        W33189   7.134   7.456  11.572 -0.3247 -0.2262 -0.0154
18059W        W33190  10.057  13.694  12.385 -0.3659 -0.1191  0.1181
18060W        W33191   6.177  14.118   0.938  0.0889 -0.1023 -0.0676
18061W        W33192  16.834   6.513  14.045 -0.0727  0.0286 -0.1735
18062W        W33193   4.859   5.388  13.338  0.1041  0.2631  0.0767
18063W        W33194  13.045  12.293  16.045  0.1081  0.1138 -0.1925
18064W        W33195   2.566   2.649  15.722  0.1635  0.2829 -0.0847
18065W        W33196  11.654   3.928   5.867  0.0807 -0.0688 -0.0996
18066W        W33197   1.874   7.847  10.726 -0.0685  0.1038 -0.0081
18067W        W33198   4.118  15.686  13.622 -0.1343  0.2384 -0.1633
18068W        W33199   3.135   6.837   5.188 -0.2439  0.2901 -0.4153
18069W        W33200   2.617  10.394   3.694 -0.0664  0.1935 -0.0323
18070W        W33201   5.219   0.560  11.282  0.2690 -0.0663  0.1510
18071W        W33202   1.466  12.963  15.766 -0.0964 -0.0190  0.1329
18072W        W33203  11.711   9.118   4.259 -0.1724 -0.1957  0.2161
18073W        W33204   3.125   1.772  13.753  0.0254  0.0539  0.1655
18074W        W33205   8.768  16.730  14.071  0.1804  0.1854 -0.1076
18075W        W33206   5.271  15.707  15.397 -0.0892 -0.1698  0.0933
18076W        W33207  16.278  14.698  12.008 -0.3295 -0.0643 -0.3006
18077W        W33208  14.502   1.913  11.883 -0.1540 -0.1036  0.1178
18078W        W33209  16.251   8.655  15.925  0.0145 -0.0194 -0.0558
18079W        W33210   2.108  11.652  15.975 -0.0722  0.0275 -0.0889
18080W        W33211   2.974   7.592   1.374 -0.3340  0.3360 -0.2095
18081W        W33212  15.554   6.844   2.725  0.1910 -0.3885  0.0619
18082W        W33213  12.303  15.839  10.736 -0.0890 -0.3034  0.2511
18083W        W33214   3.993   3.091   5.882  0.1330 -0.0637 -0.0506
18084W        W33215   9.366  15.631  13.019 -0.0617 -0.2722  0.1421
18085W        W33216   3.714  12.909  15.693 -0.1634 -0.1879 -0.2370
18086W        W33217   9.683   8.664   6.196  0.1496  0.1925 -0.1187
18087W        W33218   4.763  10.328   9.984  0.2435 -0.0102  0.0909
18088W        W33219  17.556   2.422   3.902 -0.0430 -0.0200  0.5467
18089W        W33220   8.353   3.325   3.225  0.1696  0.1927  0.0695
18090W        W33221  15.065  16.632  12.506 -0.0042 -0.1228 -0.1585
18091W        W33222  14.551  16.580   0.048 -0.1984 -0.0416 -0.0074
18092W        W33223  12.623   2.115   0.101 -0.0974 -0.3692 -0.0975
18093W        W33224  11.727   0.335  15.675 -0.3559  0.0018 -0.1696
18094W        W33225  10.204  16.784   1.596 -0.1471 -0.0144  0.1666
18095W        W33226   5.480  16.863  13.929  0.0901 -0.1542 -0.0399
18096W        W33227   1.919   5.669   0.954 -0.0168 -0.1860  0.0077
18097W        W33228  15.389  17.986  13.622 -0.2622 -0.0610 -0.0820
18098W        W33229   2.287  13.205  12.481 -0.5141 -0.0834  0.0480
18099W        W33230  11.814   8.073   4.226 -0.1027  0.2358 -0.3505
18100W        W33231   7.114  14.142  14.242  0.0118 -0.0151  0.0442
18101W        W33232  12.980   0.303  13.750 -0.0229  0.0785 -0.0061
18102W        W33233   9.566  10.702   3.477  0.2892  0.0998 -0.0165
18103W        W33234   7.855   8.697  15.036  0.1117 -0.0461 -0.1506
18104W        W33235   4.345   4.408   3.897  0.1310  0.3066 -0.0278
18105W        W33236   1.091   1.937  15.654  0.0158  0.0443 -0.0821
18106W        W33237  15.502   3.196  12.621  0.0235 -0.0225  0.2529
18107W        W33238   0.634   3.349   2.588  0.1700 -0.0746  0.3285
18108W        W33239   4.657   4.909  15.620 -0.0167  0.1058  0.0110
18109W        W33240  16.800  16.277  12.936  0.2142  0.1380 -0.0367
18110W        W33241  10.952  16.717   4.280  0.0381 -0.0527  0.1808
18111W        W33242   6.442   2.573  13.706  0.1736 -0.0762  0.3500
18112W        W33243   8.644   5.139  15.108 -0.1564  0.0575 -0.0601
18113W        W33244   2.401   3.396   4.525  0.0640 -0.1862  0.4408
18114W        W33245   4.400   5.609   0.606 -0.4048 -0.1584 -0.1392
18115W        W33246  11.649   4.035  15.008 -0.1971 -0.1609 -0.4484
18116W        W33247   4.576   9.890  14.507 -0.2153 -0.1603  0.3852
18117W        W33248   9.563   2.240   1.880 -0.2684 -0.0295  0.3039
18118W        W33249   7.605   0.470  13.104 -0.0988 -0.0793 -0.1121
18119W        W33250   7.248   2.202  13.871 -0.1540 -0.0567  0.1455
18120W        W33251   0.040   9.480  14.519 -0.0467  0.0934 -0.0749
18121W        W33252  18.151  16.460  14.277 -0.1358 -0.1164  0.1058
18122W        W33253   1.790  17.418  12.151  0.1683  0.0582  0.0269
18123W        W33254   5.999  16.523   3.142 -0.1963 -0.1912 -0.1070
18124W        W33255   0.314   2.395  15.791 -0.0895  0.0603  0.0146
18125W        W33256  17.985  17.516  15.083 -0.2233  0.3478 -0.0808
18126W        W33257   2.030   5.715  12.754  0.1818  0.2962  0.0425
18127W        W33258   0.390  16.678  15.115  0.3480  0.1804 -0.2391
18128W        W33259  15.654   0.176  16.127  0.1105  0.0129  0.0402
18129W        W33260   1.713   8.015   1.171  0.3512  0.0666 -0.0818
18130W        W33261  13.158   7.708  14.686  0.2635 -0.0241 -0.1260
18131W        W33262  11.440   7.132  11.104  0.0698  0.1061 -0.0667
18132W        W33263   8.243   3.236  14.213  0.1842  0.1991  0.1645
18133W        W33264  15.607  11.353   4.822 -0.1687  0.0802  0.3101
18134W        W33265   5.169  13.053   3.183  0.0649 -0.3098 -0.0013
18135W        W33266  14.583   3.412  12.988 -0.0269  0.3462 -0.0390
18136W        W33267   8.297  15.928  15.746  0.0520 -0.0159  0.0867
18137W        W33268  15.899   1.477  15.421 -0.0488 -0.0476 -0.1268
18138W        W33269   8.918  17.748   0.321  0.1139 -0.3043 -0.1231
18139W        W33270   5.313  11.631   5.241  0.1003 -0.0671 -0.3568
18140W        W33271  12.979  16.610   4.676 -0.1492  0.0241 -0.1841
18141W        W33272   4.122   8.209   1.474 -0.0003  0.2905 -0.1893
18142W        W33273  14.709   3.616  12.534 -0.0462  0.0298 -0.0139
18143W        W33274   1.964  15.851   1.818 -0.0693  0.1116 -0.0847
18144W        W33275  15.544  10.218   2.189  0.0882 -0.1084  0.2395
18145W        W33276   5.505  16.679   2.345  0.0205  0.0661  0.0995
18146W        W33277   9.196   3.244   0.412  0.3299 -0.3181  0.2015
18147W        W33278   4.574   9.476  12.149 -0.0235 -0.0492  0.0181
18148W        W33279  12.770  13.341   3.204 -0.2071 -0.0922 -0.1355
18149W        W33280  16.194   5.259   1.108 -0.1242 -0.0009 -0.0970
18150W        W33281  15.272   1.011  10.618 -0.0429  0.0214  0.2054
18151W        W33282   6.060  10.296   3.306 -0.0413  0.0708  0.4789
18152W        W33283   1.834   9.962  15.212 -0.2608  0.0971 -0.0429
18153W        W33284  14.797  15.509   1.777  0.0530 -0.1897 -0.0754
18154W        W33285   2.096  13.532  13.212 -0.1130 -0.0854  0.2249
18155W        W33286   1.719   9.556  13.301  0.2759  0.1429 -0.0867
18156W        W33287   6.287  15.132  15.100 -0.1237  0.0091  0.0888
18157W        W33288   7.277   1.468   1.712  0.0968 -0.0353  0.1588
18158W        W33289   4.238   5.044   1.676  0.0945  0.1824  0.0197
18159W        W33290   1.623  14.815   5.672  0.0013  0.0523  0.1073
18160W        W33291  14.088  10.829   0.073 -0.2839 -0.1417  0.0537
18161W        W33292   4.081  17.184   5.078 -0.0011 -0.0846 -0.3545
18162W        W33293  12.611  12.261   3.144 -0.0851  0.1628  0.0139
18163W        W33294   2.628  10.543  11.983 -0.2289  0.0894 -0.2500
18164W        W33295  14.136  16.891  12.940  0.3931 -0.0656 -0.1488
18165W        W33296   6.826   6.955   4.906  0.2204 -0.2646 -0.2774
18166W        W33297   3.245  13.559  13.628 -0.0883  0.2134  0.0727
18167W        W33298  10.136   7.241  11.890  0.0968  0.0845 -0.0498
18168W        W33299   5.393  10.392   1.071  0.2768 -0.2205  0.0746
18169W        W33300  10.683   3.046   2.728 -0.2070 -0.2940 -0.2541
18170W        W33301   8.298   3.586   5.292  0.1652  0.1442  0.1307
18171W        W33302   2.636   1.749  11.775 -0.0060  0.2249  0.0334
18172W        W33303   0.363  12.155   3.434  0.0910  0.3148  0.2698
18173W        W33304   6.561   8.261   1.418 -0.2395  0.0562 -0.1590
18174W        W33305   2.277   3.373  10.352 -0.0318  0.1371  0.0419
18175W        W33306  18.041   0.703  12.861  0.2418 -0.0822  0.2411
18176W        W33307   8.400  10.954  11.908 -0.0422  0.1888  0.1336
18177W        W33308   0.684  16.202  14.998  0.3801 -0.0213  0.1735
18178W        W33309   3.664  16.353   2.110  0.0243  0.1433  0.0943
18179W        W33310  11.574   8.131  13.124  0.1548 -0.1180 -0.3157
18180W        W33311   1.459   6.674  11.930  0.2729  0.2567 -0.3461
18181W        W33312  10.927  11.493  14.697 -0.0354 -0.0026 -0.2281
18182W        W33313   3.524  12.143   4.524  0.1030 -0.1344 -0.1642
18183W        W33314   9.297   0.069  14.568  0.0182  0.2307 -0.1435
18184W        W33315   5.149   8.817  10.586  0.3034 -0.3441  0.2170
18185W        W33316   1.179   6.963   9.850 -0.0632  0.0128 -0.1950
18186W        W33317  16.889  11.421   4.427  0.0812 -0.3732 -0.0474
18187W        W33318   5.901  10.096   0.978 -0.2343 -0.1325  0.0996
18188W        W33319  10.403  16.381  11.932  0.0204 -0.1403  0.0358
18189W        W33320   3.502  11.858  14.283 -0.1606 -0.2401 -0.1291
18190W        W33321  14.681   2.389   0.625 -0.0291  0.0034  0.3147
18191W        W33322  10.513  15.189   9.986 -0.0757  0.0101  0.0221
18192W        W33323   9.072   3.526   4.829 -0.1776  0.2290 -0.0059
18193W        W33324   6.046   1.637   5.768  0.0323  0.2189  0.0000
18194W        W33325  15.482   2.954  13.226 -0.0505  0.1345  0.0789
18195W        W33326   3.801  14.143  15.170 -0.0411 -0.0350  0.2017
18196W        W33327   3.201   9.683   1.190 -0.0288  0.2643  0.0053
18197W        W33328  10.163   8.227   2.742 -0.2182  0.2439 -0.2989
18198W        W33329  10.452  15.604   4.902 -0.1918  0.2165 -0.0260
18199W        W33330   9.889   7.352  14.575  0.1256 -0.2912  0.0077
18200W        W33331   4.765   0.992  15.492  0.0875  0.1081 -0.1170
18201W        W33332  16.757  14.879   6.212  0.4495  0.3434  0.0860
18202W        W33333   1.386  14.506   3.932  0.2841 -0.1485 -0.0933
18203W        W33334  11.812  16.190   0.037  0.1695  0.1317  0.2650
18204W        W33335  16.038  13.616  12.860 -0.0877 -0.1292  0.2236
18205W        W33336   2.084  16.001   0.822 -0.1272 -0.2745 -0.0567
18206W        W33337  16.202  15.615   2.437  0.3748  0.0018 -0.0311
18207W        W33338   1.627   8.765  12.162  0.0286 -0.4794 -0.1122
18208W        W33339  11.323   8.529  15.047  0.1330 -0.0743  0.0860
18209W        W33340   8.127   2.705   2.963 -0.3390 -0.1216  0.3239
18210W        W33341   8.552  13.186  13.147 -0.0182  0.1079  0.1538
18211W        W33342   4.236   4.773   5.420  0.2723 -0.1652  0.2400
18212W        W33343  15.074  11.888  11.865  0.2715 -0.0106  0.0357
18213W        W33344   0.505   4.829   0.773  0.1826  0.1590 -0.1915
18214W        W33345  13.898   7.847   1.881 -0.0840  0.2719 -0.1073
18215W        W33346   4.682   9.366   0.957  0.1675  0.1946  0.4383
18216W        W33347   7.769   5.260  12.406 -0.0538  0.1053 -0.0132
18217W        W33348  13.448   4.760   1.068  0.1015  0.2107  0.1261
18218W        W33349  16.383  10.603  14.323  0.0943 -0.1212  0.0290
18219W        W33350  17.881  16.655   0.119 -0.0106 -0.1076 -0.2947
18220W        W33351  16.829   5.552  13.105  0.2234 -0.2446  0.0966
18221W        W33352   6.691  18.141  13.054 -0.1183 -0.1313  0.0106
18222W        W33353   5.205  11.441   3.812 -0.1222 -0.3399 -0.2590
18223W        W33354  12.197   0.787  11.354  0.0743 -0.0545  0.2017
18224W        W33355   8.832   9.920   0.030  0.1844 -0.0096 -0.0433
18225W        W33356   4.997   1.388   4.886  0.4177 -0.0488  0.3120
18226W        W33357   7.547  15.135  13.176  0.0651 -0.0143  0.2288
18227W        W33358  15.089   7.290  11.019 -0.1884  0.2220  0.3068
18228W        W33359  17.559   4.444   3.376  0.0971 -0.1947  0.2704
18229W        W33360  11.522   6.719   1.789 -0.0834  0.1863  0.1152
18230W        W33361  12.208   0.290  12.910 -0.0662 -0.0813 -0.2945
18231W        W33362  15.930  17.283  12.624  0.3040  0.0193 -0.0801
18232W        W33363  13.213  12.408   1.751 -0.2765  0.0435 -0.2627
18233W        W33364   5.706  13.477  11.840 -0.2980  0.0883  0.0489
18234W        W33365   9.594  14.257  11.986  0.0502  0.0898 -0.2166
18235W        W33366   4.808   7.522   2.056 -0.0713  0.1454 -0.1463
18236W        W33367  16.858  17.697  11.159 -0.0782  0.2073  0.1511
18237W        W33368   5.249  12.636  10.881 -0.0553 -0.3474  0.0060
18238W        W33369   0.977   2.232   3.000 -0.2864  0.1030 -0.0235
18239W        W33370  16.176   5.474   5.123 -0.1744 -0.2435  0.2191
18240W        W33371   7.052   0.341  13.229 -0.0278 -0.1092  0.0852
18241W        W33372  18.025  10.529   0.133 -0.0169 -0.2801  0.0538
18242W        W33373   5.482  12.287   0.479 -0.2591 -0.1376  0.2464
18243W        W33374  11.933  14.438   1.749  0.0006 -0.0701 -0.2773
18244W        W33375  10.749  16.244  14.627 -0.1535  0.1512 -0.1914
18245W        W33376   7.424   4.597   0.907 -0.0435  0.0977 -0.0515
18246W        W33377  16.075   5.015  15.799 -0.1017 -0.0167  0.1026
18247W        W33378  13.996  10.776  15.214 -0.1944  0.2279  0.0557
18248W        W33379   4.596  16.018  14.901 -0.0962  0.1230 -0.0690
18249W        W33380  17.197   9.340  13.513  0.0712  0.1920 -0.1824
18250W        W33381  16.150  16.054   4.753  0.2396  0.1438  0.0475
18251W        W33382   0.407   4.977   3.438 -0.1572  0.0171  0.1867
18252W        W33383  15.341   4.262   4.322 -0.1884  0.2647  0.4866
18253W        W33384   3.785   3.859  13.788  0.0002 -0.1254 -0.0153
18254W        W33385   9.815   5.527   0.570  0.1300  0.0845 -0.4075
18255W        W33386   4.965  14.251   4.429 -0.0524 -0.0382 -0.0256
18256W        W33387  11.359  17.390  14.320  0.0281  0.2965  0.0653
18257W        W33388   3.779  14.110   1.354 -0.1834  0.0225 -0.0246
18258W        W33389  13.318   4.210   4.507  0.3001  0.3370 -0.1215
18259W        W33390  11.544  17.114   4.776  0.0683 -0.1461 -0.1092
18260W        W33391  11.163   3.856   0.607 -0.2013  0.1692  0.2260
18261W        W33392  13.643  12.153   1.681  0.4370  0.0745  0.3510
18262W        W33393  11.503   8.620  13.787 -0.2687 -0.0657  0.1183
18263W        W33394   4.851  17.888  11.635  0.1016  0.1909 -0.0261
18264W        W33395  14.301   5.226   5.813  0.0812  0.0457 -0.2136
18265W        W33396  14.350  12.606  15.521  0.0621 -0.0081 -0.2734
18266W        W33397  11.385   2.198   0.890 -0.3055 -0.0505  0.0271
18267W        W33398   9.362   2.645   4.782  0.3896 -0.1023 -0.2700
18268W        W33399   0.358  16.032   2.964  0.2418  0.2071 -0.1301
18269W        W33400   6.604   1.365   0.517  0.1337  0.0482  0.0869
18270W        W33401   3.773   1.617  13.875  0.0456  0.2325  0.1936
18271W        W33402  12.705   2.564   0.948 -0.1763 -0.1404 -0.3114
18272W        W33403   3.990  18.096   4.874 -0.0329  0.1091 -0.1327
18273W        W33404   5.600  16.271  16.220  0.0413  0.0745  0.0444
18274W        W33405  17.056  13.849   5.196 -0.3124 -0.0198 -0.0240
18275W        W33406  12.409   9.312   1.186  0.0098 -0.1524  0.0709
18276W        W33407   8.628  10.959  11.316  0.0102 -0.0111 -0.0462
18277W        W33408  13.370  15.746   2.099  0.2137 -0.0879  0.1493
18278W        W33409   8.825   7.336   3.719  0.1556 -0.2423  0.2273
18279W        W33410  13.164   2.421   1.844  0.0967 -0.1365 -0.1001
18280W        W33411  13.661   4.129   1.290  0.1600  0.0320  0.3657
18281W        W33412   3.148   7.570   2.433 -0.0794 -0.2239  0.1360
18282W        W33413   2.057   8.815   5.478 -0.1575 -0.2921  0.0832
18283W        W33414   6.991  10.048  10.386  0.2886  0.0224 -0.0275
18284W        W33415  16.709  16.590  13.383  0.1048 -0.2258 -0.0036
18285W        W33416  10.805   5.099  10.985  0.0898 -0.2834  0.0346
18286W        W33417  18.020   3.647   2.430 -0.2529  0.1521  0.0014
18287W        W33418   2.640   3.430  12.760  0.2587 -0.1242  0.2503
18288W        W33419   1.708   9.918  13.820  0.1253  0.0002  0.3307
18289W        W33420   2.326  15.788  14.707 -0.0019 -0.0214  0.0070
18290W        W33421   4.386  17.110   1.032  0.0830 -0.0160  0.0815
18291W        W33422   9.094  12.326  14.047  0.0752  0.3065 -0.0191
18292W        W33423  13.097  10.033   2.993  0.1483 -0.2039  0.1047
18293W        W33424  11.568   2.283  12.599  0.2834  0.2792  0.0235
18294W        W33425  12.096  16.882  13.243 -0.1385 -0.1673 -0.3505
18295W        W33426  17.493  14.518  11.849  0.1190 -0.1791 -0.1867
18296W        W33427   4.419   0.017   2.368 -0.1123 -0.0860 -0.0809
18297W        W33428   7.657   4.680   3.326 -0.4209  0.0749  0.3394
18298W        W33429   5.630   2.176  10.573  0.0646 -0.0107 -0.1970
18299W        W33430  14.164   9.991   1.021 -0.0053 -0.1261  0.2445
18300W        W33431  15.204  11.201  14.565 -0.0256 -0.1625 -0.5560
18301W        W33432  17.229   0.349  14.113 -0.2986 -0.1914  0.1908
18302W        W33433   5.068  17.187   2.991 -0.0180  0.2095 -0.1047
18303W        W33434   0.457   2.260  11.571  0.1774  0.2564 -0.0600
18304W        W33435   4.498  18.021   5.009 -0.1180 -0.1749  0.3446
18305W        W33436   0.537  10.561  11.653  0.1431  0.2074 -0.1814
18306W        W33437  10.780   2.790   5.482 -0.1456 -0.0953  0.2508
18307W        W33438  12.411   0.188  12.446  0.1450  0.2155  0.0256
18308W        W33439  16.146   1.040  15.633 -0.2704  0.2879  0.0096
18309W        W33440  17.622  14.299   3.999 -0.1491  0.1233 -0.0679
18310W        W33441  10.761  10.436  15.504 -0.2669 -0.1487  0.0451
18311W        W33442   8.324   9.088  13.121  0.2061 -0.1323 -0.1423
18312W        W33443   5.013   1.972  15.491  0.1858 -0.2118  0.3146
18313W        W33444   0.704  10.972  11.950 -0.0175 -0.0957  0.0725
18314W        W33445  10.666  11.941   5.236  0.1481  0.1252 -0.2636
18315W        W33446  12.167   5.505   5.524 -0.2187 -0.1488 -0.0723
18316W        W33447   6.173   6.646  12.161  0.2115 -0.3127 -0.0203
18317W        W33448  12.662   2.658  15.518  0.0390 -0.0285 -0.1450
18318W        W33449   2.952  18.119   5.202  0.2627  0.1538 -0.3384
18319W        W33450   5.975  11.298   0.288  0.0609 -0.1190  0.0666
18320W        W33451   0.570  16.120   6.179 -0.0066  0.0109 -0.0200
18321W        W33452   7.281  11.390  15.126 -0.0079  0.0478  0.1049
18322W        W33453  11.513  14.829  12.380 -0.1016 -0.0465 -0.1125
18323W        W33454   7.754  12.592   2.438 -0.3050  0.0324  0.2515
18324W        W33455   7.629  16.868   3.923 -0.2129  0.1228  0.4257
18325W        W33456   1.940  12.915  15.441 -0.1932  0.0890  0.1311
18326W        W33457   6.246  10.034  14.441  0.0549 -0.1464  0.0784
18327W        W33458   0.207  15.195  13.804  0.3585 -0.0727 -0.0024
18328W        W33459  12.475  17.792   0.372  0.5248  0.2607  0.0375
18329W        W33460   4.477  16.669   2.333 -0.3818  0.1524  0.1988
18330W        W33461  10.241  16.965   4.010 -0.1062  0.1692 -0.1732
18331W        W33462   3.858   7.628  15.525 -0.2011  0.0608  0.0910
18332W        W33463  13.129  13.046   2.421  0.2062 -0.0086  0.1470
18333W        W33464  13.300   6.013  13.514  0.2721 -0.0339 -0.1918
18334W        W33465   3.350   5.930   9.782  0.1562 -0.4418  0.1009
18335W        W33466  11.469  10.512  13.662  0.3431  0.2105 -0.0464
18336W        W33467  11.848  13.060  12.098 -0.2783 -0.0440  0.1660
18337W        W33468   6.003  10.817   2.675  0.0227  0.1548 -0.2182
18338W        W33469   3.033  11.186  11.369 -0.2376 -0.0161  0.2324
18339W        W33470   8.342   4.655  15.933  0.2250  0.1209 -0.0597
18340W        W33471   1.670   7.515  14.411 -0.1450 -0.0076  0.1875
18341W        W33472   6.091  13.108  12.976  0.1487  0.0362 -0.1225
18342W        W33473   8.469  10.214   9.799  0.2849 -0.1252 -0.0053
18343W        W33474  15.792   0.860  12.966 -0.0458 -0.1351  0.1456
18344W        W33475  17.900   6.981  12.620 -0.0916 -0.0478 -0.0160
18345W        W33476  14.169   3.152   3.873 -0.1018 -0.3644  0.2432
18346W        W33477   9.497  15.807  16.142 -0.0310  0.1404  0.0848
18347W        W33478  13.162   4.880   0.229  0.5597 -0.1059  0.0000
18348W        W33479  11.274  16.464  12.478 -0.3397 -0.1838 -0.1477
18349W        W33480  11.004   1.793  12.351  0.1406 -0.1075  0.2233
18350W        W33481  14.337  12.652   1.683 -0.2046 -0.2275 -0.1176
18351W        W33482  14.034   9.456  12.341 -0.4717 -0.1169  0.0876
18352W        W33483   3.222  13.673  15.781  0.3559  0.1584 -0.0187
18353W        W33484  14.672  17.620  14.337  0.2303  0.3453 -0.0409
18354W        W33485  10.575  11.808   4.319  0.1210  0.0810 -0.1775
18355W        W33486  15.178  15.624  15.540 -0.2380  0.1662 -0.2099
18356W        W33487  16.272   0.633  14.201  0.1731  0.1542 -0.1552
18357W        W33488   6.890   9.972  14.964 -0.0009 -0.4564 -0.1670
18358W        W33489  15.046   0.948  13.677 -0.1627  0.1357 -0.0938
18359W        W33490  12.543  16.624  13.230 -0.2857 -0.4485  0.0574
18360W        W33491   7.950  10.713  15.853 -0.3586 -0.0468 -0.2905
18361W        W33492   3.730  13.092   0.952 -0.1775  0.0627 -0.0272
18362W        W33493  13.944  16.105   5.718 -0.0561  0.0523  0.0319
18363W        W33494  13.214   4.516   5.356  0.0377  0.3593 -0.0488
18364W        W33495  12.337   9.698   0.794 -0.0424  0.0972 -0.2987
18365W        W33496   7.981   4.863  12.736 -0.0684  0.0136  0.0069
18366W        W33497   9.495  14.760   2.494  0.1116  0.0912 -0.0320
18367W        W33498   7.198  10.492  12.897  0.1309  0.0507  0.1507
18368W        W33499   2.256  17.909   0.465  0.0236  0.0096  0.2295
18369W        W33500  17.947   3.994   3.473 -0.1695  0.1450 -0.0620
18370W        W33501   4.962   5.876  13.314 -0.2664  0.0888  0.4090
18371W        W33502  15.864   2.870  12.899 -0.0975 -0.3164 -0.0949
18372W        W33503  13.405  13.245  11.895 -0.0578  0.1355  0.3481
18373W        W33504  13.074   5.580  10.968  0.0213 -0.3004 -0.1028
18374W        W33505   2.093   9.655  14.147 -0.1306  0.1647  0.3859
18375W        W33506  17.769  14.287   1.047  0.0889 -0.1728 -0.3702
18376W        W33507  10.859  14.638   0.018  0.1746 -0.0659  0.1554
18377W        W33508   8.113  17.342  13.566 -0.2451 -0.0392  0.0870
18378W        W33509  12.956   3.823   4.642 -0.1311 -0.0026 -0.0492
18379W        W33510  13.723  17.447   4.638  0.6318  0.3398 -0.1328
18380W        W33511   3.366   6.964  12.018  0.1457 -0.2498  0.1782
18381W        W33512  11.460   4.626  12.925 -0.2207 -0.0687  0.0811
18382W        W33513   6.025   0.692  12.193 -0.0435 -0.1848  0.0006
18383W        W33514   5.566  15.307  12.169  0.1213  0.2648  0.2772
18384W        W33515   9.188   9.050  12.507 -0.2473 -0.2644  0.1263
18385W        W33516   2.913  17.811  15.651 -0.0169  0.0588  0.1591
18386W        W33517   3.230   1.071   2.630 -0.0106 -0.0376 -0.0430
18387W        W33518  10.981   2.536   4.926 -0.1108  0.2014  0.1140
18388W        W33519   6.266   0.163   2.611 -0.0193 -0.0594  0.1784
18389W        W33520   5.123  16.613   4.210  0.1355 -0.0172 -0.0392
18390W        W33521   6.284   7.717   4.508  0.0245 -0.0114  0.2574
18391W        W33522   4.572   5.978  14.072 -0.1939  0.3414  0.1582
18392W        W33523  16.338  18.144   5.177 -0.1885  0.3385  0.3077
18393W        W33524   6.848   2.725   2.259  0.0982 -0.0430  0.2326
18394W        W33525  13.326   0.001  11.138  0.2546  0.3353  0.5214
18395W        W33526   6.657   1.539   2.335 -0.0461 -0.0405  0.0064
18396W        W33527  16.912  14.496  12.515  0.0631 -0.0827  0.2064
18397W        W33528  13.083   1.879   4.249  0.1278 -0.2741 -0.0629
18398W        W33529  15.820   3.356  12.116 -0.1759  0.3515 -0.3140
18399W        W33530   8.368   8.115   2.708  0.2005  0.2136 -0.2161
18400W        W33531   1.194   6.030   6.126 -0.0718  0.2372  0.1140
18401W        W33532  12.889  12.391  11.645 -0.1945 -0.1551 -0.2743
18402W        W33533   7.723   6.864  12.033 -0.3920 -0.2344 -0.2231
18403W        W33534  13.470  15.842  14.902 -0.0099 -0.3221 -0.1858
18404W        W33535  13.975  12.301  15.135 -0.0668 -0.0040 -0.0358
18405W        W33536  15.653  15.367   4.452  0.0056 -0.1309 -0.0126
18406W        W33537  17.881   8.746  15.106 -0.2290  0.2242  0.1730
18407W        W33538   3.500  12.262  13.385 -0.0810 -0.0848 -0.1535
18408W        W33539  15.858  13.113   6.645 -0.2903  0.0447 -0.1513
18409W        W33540   5.636   6.651   5.045  0.2015 -0.2014  0.2970
18410W        W33541   0.724  14.893  13.031 -0.0649  0.0692  0.1354
18411W        W33542   4.745  15.536  11.986 -0.0117 -0.0989  0.3805
18412W        W33543   9.750   9.554  12.964  0.0078 -0.2168  0.0877
18413W        W33544  17.160   8.911  14.402  0.0242  0.0724 -0.0841
18414W        W33545  17.899   1.820  14.252  0.0429  0.1059 -0.2622
18415W        W33546   6.427  11.799  15.365 -0.0378  0.1079  0.0398
18416W        W33547   4.623  15.778  11.448  0.3034 -0.0731  0.1565
18417W        W33548   7.031  14.647   0.870  0.2905  0.0044  0.0236
18418W        W33549   4.192  16.516  10.906  0.0202  0.0246 -0.0606
18419W        W33550   0.385   1.444   1.684 -0.0249 -0.1070  0.0662
18420W        W33551  18.142   6.092   1.265  0.1917 -0.1973  0.2102
18421W        W33552  13.939  14.392  12.109  0.2084  0.1334  0.0632
18422W        W33553   8.299  17.538  10.759  0.0500  0.1292 -0.0496
18423W        W33554   6.490  12.705   2.642  0.0387 -0.2159 -0.0627
18424W        W33555   0.584  10.051  13.998 -0.2624  0.1337 -0.4962
18425W        W33556   3.247   4.075   2.332  0.0964 -0.0017  0.2396
18426W        W33557   9.767   6.902  14.506 -0.1858 -0.1893 -0.0226
18427W        W33558   0.337   4.652  13.358  0.1598 -0.1037  0.0142
18428W        W33559  16.970  15.407  15.275  0.0588  0.2063  0.1739
18429W        W33560  16.145   9.856   3.806 -0.0177  0.3543  0.1999
18430W        W33561  17.829   0.642   1.568 -0.1352 -0.0185  0.0995
18431W        W33562   3.299  10.373  13.970 -0.1848 -0.0538 -0.3123
18432W        W33563  14.981   8.535  14.717  0.2636  0.2721  0.1443
18433W        W33564  13.105  12.146   2.850  0.1093 -0.1321  0.1344
18434W        W33565  17.932  11.048  11.534  0.0558  0.0585 -0.1536
18435W        W33566  15.418  15.545   1.515  0.1164 -0.0388 -0.1025
18436W        W33567   5.835   4.436   3.914 -0.0877 -0.2416  0.0769
18437W        W33568   4.189   1.963   1.712 -0.0246  0.3948  0.3168
18438W        W33569   4.217  13.852   2.127 -0.2168  0.3601  0.2132
18439W        W33570  10.842  15.415   2.181 -0.2243  0.1470  0.1236
18440W        W33571   7.458   7.679   9.805  0.0021 -0.2215  0.0995
18441W        W33572   1.321   3.710  15.188 -0.2533 -0.2748 -0.0160
18442W        W33573   9.722   5.830   0.143 -0.0315 -0.0469 -0.2120
18443W        W33574  13.578   2.191   0.067  0.0228 -0.1574 -0.0203
18444W        W33575   0.066  14.887   3.631 -0.0387 -0.3010  0.1607
18445W        W33576   8.462   3.715   0.671 -0.0943 -0.1113  0.0960
18446W        W33577   4.729  11.314  15.883  0.2028 -0.1728 -0.4303
18447W        W33578   2.086  15.077  12.289  0.0640 -0.0296 -0.0429
18448W        W33579   2.787  12.583   1.658  0.2608 -0.0030  0.0349
18449W        W33580   7.282   8.824   5.273 -0.1457 -0.0610  0.2240
18450W        W33581   9.939  17.071  14.963 -0.2286  0.2651  0.4176
18451W        W33582   7.786   9.540   3.679  0.1610  0.4504 -0.0018
18452W        W33583   0.561  13.141  15.420  0.1381  0.0478  0.1833
18453W        W33584  15.865   8.904  12.881  0.2831  0.2001  0.6767
18454W        W33585  12.914   9.269   4.984  0.3205  0.1555  0.1531
18455W        W33586   3.744   8.432   4.134 -0.1704  0.1252  0.2038
18456W        W33587   8.190  15.449   2.532 -0.1248 -0.0005  0.1172
18457W        W33588  11.281   3.813  12.373 -0.0938 -0.2807 -0.2304
18458W        W33589   8.086  11.901  14.756  0.0623 -0.1961  0.1224
18459W        W33590  16.508  11.148  10.857  0.1080 -0.0260 -0.2530
18460W        W33591   1.448  16.057  15.704 -0.0385 -0.1158 -0.0657
18461W        W33592  12.617  16.631   5.464  0.0760 -0.1978 -0.1786
18462W        W33593   1.376  12.834  12.170  0.0865 -0.1619 -0.2773
18463W        W33594  13.840   2.074   1.677 -0.0989 -0.0866 -0.0420
18464W        W33595  17.736  18.142  11.715 -0.3962  0.1935 -0.0022
18465W        W33596   6.669   1.241  15.167 -0.0659  0.4253 -0.1843
18466W        W33597   4.018  12.692   0.990  0.1759 -0.0030  0.0036
18467W        W33598   3.133  11.958  10.239 -0.1845 -0.2763  0.2492
18468W        W33599  13.274  17.538   6.473  0.1103 -0.1465 -0.2896
18469W        W33600  14.412   0.783  12.293 -0.0140  0.0982  0.0973
18470W        W33601  10.609  16.364  14.147 -0.2986  0.0719 -0.1415
18471W        W33602   9.132   9.704  11.785  0.2011  0.2909  0.0681
18472W        W33603  17.605   4.267  11.431  0.4781  0.1096 -0.1696
18473W        W33604  13.324  18.153   2.025  0.2435 -0.0605  0.0316
18474W        W33605  14.577  18.148  15.217 -0.4043 -0.2935  0.3698
18475W        W33606  12.213  13.825  13.963 -0.3974  0.1049  0.1712
18476W        W33607   2.820  16.402   2.371  0.0843 -0.0591  0.0308
18477W        W33608   2.558  16.773   5.021 -0.0253  0.1368  0.0761
18478W        W33609  16.490  13.473  12.791 -0.0383 -0.2299  0.1432
18479W        W33610  11.667   5.768   1.037  0.0959  0.1653  0.1078
18480W        W33611  10.836   4.143   1.949  0.0626 -0.1301 -0.2387
18481W        W33612  17.406  15.035  10.635  0.1287 -0.0329  0.0175
18482W        W33613  16.290  16.488   1.419 -0.2746  0.1201 -0.2819
18483W        W33614  11.434  13.725  15.374 -0.1764 -0.0063 -0.2230
18484W        W33615  13.408   5.902   1.144 -0.0838  0.0856 -0.0078
18485W        W33616   2.918  11.455  11.730  0.2110 -0.3951 -0.1776
18486W        W33617   5.511  11.740  15.059 -0.2348  0.1575 -0.0570
18487W        W33618   1.440   9.367   0.988 -0.1375 -0.0721 -0.0459
18488W        W33619   9.033  13.360   3.984 -0.2532  0.3060  0.4302
18489W        W33620  11.630   8.345   1.904  0.0001  0.3013 -0.0248
18490W        W33621   1.974  11.685  14.326  0.1724  0.0611  0.3105
18491W        W33622   6.185  11.807  15.771  0.2371 -0.1702  0.2684
18492W        W33623  13.515  11.400  16.195 -0.0309 -0.4251 -0.3125
18493W        W33624   6.784   8.356  13.654 -0.2364  0.0122 -0.1136
18494W        W33625  15.164   5.910  11.970  0.2291 -0.0888  0.0667
18495W        W33626   5.308   0.689  13.629 -0.1216  0.2080  0.3867
18496W        W33627  14.154   5.466  13.597 -0.1618  0.4542 -0.1115
18497W        W33628   8.825   7.378  13.158  0.2003  0.1835  0.2014
18498W        W33629   6.098  10.551   4.168  0.0204  0.1339  0.0215
18499W        W33630   9.665   0.722  11.189  0.1147  0.1386  0.0534
18500W        W33631  15.154  17.932   3.279  0.2108 -0.1305 -0.2765
18501W        W33632   7.948  16.290  14.408  0.0653  0.0342  0.0069
18502W        W33633   3.594  14.925  11.011 -0.3408 -0.0631 -0.0058
18503W        W33634   7.101  15.470   9.994 -0.0164  0.3998 -0.0138
18504W        W33635   9.743  12.364   0.158  0.0063 -0.1566 -0.1810
18505W        W33636  11.389   2.337  13.339 -0.2297  0.0389 -0.0240
18506W        W33637   3.561  10.022  11.894  0.0378  0.2409 -0.4433
18507W        W33638   0.308   2.380   5.540 -0.4229 -0.1343 -0.0644
18508W        W33639   6.984   1.257   1.388  0.2236  0.0343  0.3820
18509W        W33640   8.352  14.259   4.699 -0.0515 -0.1447 -0.0221
18510W        W33641  17.611   6.853   1.407 -0.2115  0.1009  0.0160
18511W        W33642  13.445  11.096   2.225 -0.2114  0.1121  0.2031
18512W        W33643  11.884   6.484  10.354 -0.0294  0.1510  0.0293
18513W        W33644  12.100   2.065  16.226 -0.1663  0.0075 -0.1475
18514W        W33645  11.581  12.290  14.965 -0.0934 -0.0121 -0.3299
18515W        W33646   1.149  15.743   3.518  0.0616  0.1751 -0.3285
18516W        W33647   8.086   5.344  11.999  0.0647  0.0317 -0.1065
18517W        W33648  16.503   1.061  11.599  0.4056 -0.0274  0.0738
18518W        W33649   0.422  16.555   6.340  0.1414  0.1305 -0.0908
18519W        W33650  15.239  14.041  15.565  0.2647 -0.2227  0.1498
18520W        W33651   9.924  17.434  12.731 -0.0660  0.2777 -0.0600
18521W        W33652  14.295   3.165  15.826 -0.0656 -0.0035 -0.1847
18522W        W33653   4.158   0.815  10.399  0.2823  0.0086  0.1737
18523W        W33654  10.373   9.711   4.832  0.1004  0.2954  0.0363
18524W        W33655  13.363  16.110   3.751  0.1369  0.0753 -0.0720
18525W        W33656   6.100   1.735  10.522  0.0347  0.1121 -0.0611
18526W        W33657   8.090  10.046  14.247  0.1325  0.0882  0.1766
18527W        W33658   4.556   3.463  15.531  0.2803  0.0095 -0.1635
18528W        W33659  11.056   5.822  12.974  0.0778 -0.0320 -0.3793
18529W        W33660   3.693  15.025  14.699  0.1416 -0.2342 -0.0904
18530W        W33661  15.316  16.952  10.770  0.1687  0.1614 -0.2800
18531W        W33662   4.148  11.535  10.030  0.1763 -0.1356  0.1270
18532W        W33663   3.937   0.877  13.747  0.1243  0.1161 -0.1493
18533W        W33664  12.569   2.978   0.341  0.1487  0.2181 -0.0235
18534W        W33665  12.012   8.680   0.732 -0.0463  0.0656 -0.0784
18535W        W33666  17.081   0.098   1.895  0.0991  0.1095 -0.1164
18536W        W33667  15.766   8.506  15.780 -0.0075 -0.0480 -0.0393
18537W        W33668   2.364   6.988   1.605 -0.0019 -0.2239  0.0650
18538W        W33669   0.984  13.596   4.977  0.3204 -0.1276 -0.0953
18539W        W33670   1.369   9.685  12.722  0.1944  0.2548 -0.0403
18540W        W33671   3.706  14.988  12.959  0.1056 -0.0920  0.0725
18541W        W33672  14.167  12.989  11.902 -0.0867 -0.0570  0.2236
18542W        W33673   8.093   5.149   5.942 -0.1892 -0.0212  0.1258
18543W        W33674   3.293  11.928   1.098 -0.1379  0.1356 -0.1340
18544W        W33675  17.777  10.416  13.853 -0.2051  0.0585  0.1083
18545W        W33676   3.568   9.846  13.856  0.2912 -0.1617 -0.1626
18546W        W33677   5.021  17.721  12.506 -0.1615  0.0648 -0.0547
18547W        W33678  13.106  15.702  13.847 -0.0083  0.0852  0.2166
18548W        W33679   3.672   2.490  13.781 -0.1079 -0.0489 -0.0551
18549W        W33680  14.691   7.805   1.963 -0.0311  0.0137  0.2304
18550W        W33681  13.977   5.286   5.019  0.0862  0.1006 -0.1077
18551W        W33682  15.429  13.250   1.557 -0.1141 -0.4116 -0.0200
18552W        W33683  12.886  16.937   1.250  0.0976 -0.0842 -0.3209
18553W        W33684  16.081   0.356  12.938 -0.2716 -0.1019 -0.0267
18554W        W33685  10.160   7.523   0.960  0.1790  0.1485  0.0286
18555W        W33686   3.574   0.880   4.384  0.1806  0.2077  0.0463
18556W        W33687   7.666  11.424   4.951  0.0258 -0.0793 -0.0423
18557W        W33688   8.959  12.498  11.809  0.1678  0.0489 -0.0104
18558W        W33689   6.791   5.063  14.606 -0.0241 -0.1411 -0.0123
18559W        W33690   2.749   1.482  13.454 -0.0068  0.1255 -0.0878
18560W        W33691  15.153   7.118   4.041  0.2428  0.0552  0.0557
18561W        W33692  10.894   1.152  12.537 -0.0989  0.5564 -0.2680
18562W        W33693   6.172  15.004   5.618  0.0134 -0.1197  0.1141
18563W        W33694   1.346  11.278   0.002 -0.1819 -0.2075  0.0364
18564W        W33695   0.468   2.074   3.040 -0.1195 -0.0206 -0.2251
18565W        W33696  17.534   4.194   4.845 -0.0598 -0.2506  0.3193
18566W        W33697  10.865  16.218  13.416 -0.1231 -0.0542 -0.1349
18567W        W33698  17.400   0.795  11.646  0.3310 -0.0051  0.1295
18568W        W33699   2.457  11.291   4.798 -0.3952 -0.0119  0.1976
18569W        W33700  10.495  13.308  15.582 -0.1363  0.1456  0.0001
18570W        W33701  17.136  11.716  14.404  0.2216 -0.0475 -0.1213
18571W        W33702  14.373   2.137   4.764 -0.1408 -0.2383 -0.0515
18572W        W33703   0.641  14.268   2.940 -0.1319  0.1185 -0.1517
18573W        W33704   9.252   7.370   1.423 -0.1356  0.1962  0.0910
18574W        W33705   9.304   0.991   4.631  0.0160 -0.0158  0.2131
18575W        W33706   0.101   7.993  13.699 -0.1343  0.1341 -0.2675
18576W        W33707   4.268   1.983   5.038 -0.1552  0.0608 -0.1333
18577W        W33708   1.683   2.331   0.024 -0.1980 -0.0085  0.1499
18578W        W33709   0.620   0.432   3.011  0.2411 -0.1768 -0.0082
18579W        W33710  14.701  16.524  14.318  0.0444  0.2372 -0.1808
18580W        W33711  13.783   2.351   1.277  0.1348 -0.1109 -0.3472
18581W        W33712  12.045  12.440  14.726  0.1418 -0.1626  0.2134
18582W        W33713  18.002  12.940  15.799 -0.0080  0.0718  0.3781
18583W        W33714  16.786   7.225  10.628 -0.2234  0.0682 -0.0262
18584W        W33715  17.254   3.671  14.634 -0.2167  0.0638 -0.0576
18585W        W33716  17.581  16.652  11.443  0.3443 -0.1401 -0.1188
18586W        W33717  14.507  18.061  14.052  0.1967  0.1119 -0.2581
18587W        W33718   7.252   8.984  12.658 -0.1872  0.1055 -0.0857
18588W        W33719   6.236   1.655  12.348  0.2216 -0.0935  0.0926
18589W        W33720   0.766   6.433   1.686 -0.1034 -0.0608 -0.0279
18590W        W33721   6.423   5.047  11.669  0.0124  0.2827 -0.3755
18591W        W33722  15.711   8.083   0.755 -0.3002 -0.3954  0.2315
18592W        W33723  10.644   2.573   0.920 -0.3756  0.3270 -0.2473
18593W        W33724  18.090   5.251   1.768  0.3074  0.1596 -0.0174
18594W        W33725  10.975  12.133   1.492  0.6480  0.0633 -0.5218
18595W        W33726   9.885   5.643   4.559  0.0179 -0.0161 -0.0386
18596W        W33727  16.275  17.389   3.868  0.0495 -0.1025  0.0896
18597W        W33728  11.600  16.868  12.376  0.0742  0.2557  0.0016
18598W        W33729   5.766   9.143  11.288 -0.0136 -0.2228  0.1278
18599W        W33730  12.954  18.057  13.478  0.1462  0.0337 -0.1493
18600W        W33731  13.596  17.772  12.295  0.1579 -0.0575 -0.1244
18601W        W33732  14.040  14.296   2.727  0.3112 -0.2711  0.0919
18602W        W33733   3.615   1.856  14.831  0.2136  0.0115 -0.0684
18603W        W33734  12.430  10.623   3.193  0.2531 -0.0014 -0.0796
18604W        W33735  16.749  16.773  15.817 -0.1982  0.0089  0.2231
18605W        W33736   5.889  13.625  12.354  0.1300  0.3371 -0.0271
18606W        W33737  10.470  15.210   3.618  0.2902  0.0139  0.2122
18607W        W33738   6.069  14.025   3.227 -0.0845 -0.0654  0.2557
18608W        W33739   2.512  12.428  13.021  0.3051  0.1078  0.0327
18609W        W33740  10.424   8.120   4.876  0.2085  0.0224  0.1450
18610W        W33741   9.380   7.762   3.072 -0.2329 -0.1494  0.1308
18611W        W33742  16.486  16.573   0.429 -0.1539  0.0543 -0.0999
18612W        W33743   4.678   0.017   0.329  0.1491 -0.3531 -0.0427
18613W        W33744   6.480   5.845   2.536 -0.0803  0.0304 -0.3417
18614W        W33745   0.813   8.551  10.791  0.0207 -0.0717 -0.4043
18615W        W33746   1.908   6.873  13.118 -0.1605  0.0666 -0.0936
18616W        W33747  13.593   9.905   1.010 -0.1615 -0.0556 -0.1249
18617W        W33748   6.770   5.884   2.164 -0.2640 -0.0928  0.0585
18618W        W33749   3.524   7.296  15.714 -0.1844 -0.1844 -0.0416
18619W        W33750   3.586   5.292   2.835  0.0327 -0.1108 -0.1733
18620W        W33751   9.484   2.786   3.422  0.3102  0.1392 -0.0556
18621W        W33752   3.568   4.322   3.196  0.0842  0.0834 -0.2320
18622W        W33753   2.512   1.444  11.331  0.1601 -0.0124 -0.0378
18623W        W33754   2.931   5.804  11.108  0.0684  0.0279 -0.0144
18624W        W33755   9.151  10.256   2.820 -0.0872 -0.0019 -0.3151
18625W        W33756   5.124   9.991   1.333  0.1492 -0.2800  0.3283
18626W        W33757  14.175  16.231   5.076 -0.0549 -0.0942 -0.2827
18627W        W33758  13.315  10.189  11.730 -0.1561 -0.3160 -0.1635
18628W        W33759   9.606   2.235  15.638 -0.0437 -0.3181  0.3501
18629W        W33760   8.615   5.093   3.269 -0.2607  0.0375 -0.1801
18630W        W33761   2.678   0.550  11.695  0.0020  0.3588  0.0818
18631W        W33762   0.754   6.106  12.303  0.0013  0.2098  0.0200
18632W        W33763  10.907  13.355   0.140 -0.0491  0.1440 -0.0485
18633W        W33764   1.758  10.506  15.831 -0.1770  0.4468 -0.4501
18634W        W33765   5.442   3.071  12.767 -0.0616 -0.0782  0.0522
18635W        W33766  16.624  13.998   4.138  0.1147  0.0610  0.0007
18636W        W33767  15.994  16.172   1.264  0.2945 -0.1839  0.2327
18637W        W33768  14.766  16.001  11.766 -0.0385 -0.0270  0.1758
18638W        W33769  11.791  13.848  14.192 -0.0792  0.2357  0.1651
18639W        W33770   2.314  14.275  10.993  0.1778 -0.1667 -0.1008
18640W        W33771   2.600   6.621   2.791  0.2596 -0.1332  0.1723
18641W        W33772   7.233   6.585   1.055 -0.1178 -0.2429  0.1051
18642W        W33773   1.021   1.453  14.498 -0.1031  0.0192  0.0673
18643W        W33774   3.481   2.040   3.534 -0.0202  0.1561 -0.0036
18644W        W33775  14.150   5.257  16.232 -0.2645 -0.1743 -0.0199
18645W        W33776  10.483   3.445   3.439 -0.0021  0.0294 -0.2546
18646W        W33777  13.940   2.385   5.225  0.4097 -0.1029 -0.0447
18647W        W33778  10.720   9.583  15.974 -0.1800 -0.2513  0.0045
18648W        W33779  12.344  15.070   5.084  0.2337  0.2766  0.1145
18649W        W33780   2.830   1.836   0.878 -0.3771  0.1740  0.0190
18650W        W33781   5.329   8.555   0.803  0.2094  0.1494  0.2540
18651W        W33782  15.221  17.890  11.128 -0.1437  0.0448  0.2035
18652W        W33783  10.802  16.590  12.138  0.1962 -0.1472 -0.2281
18653W        W33784   0.791  11.225  11.496 -0.3921 -0.0534  0.0435
18654W        W33785   3.558   3.850   4.920  0.0312  0.1986 -0.0677
18655W        W33786   2.061   9.928  11.060 -0.0199  0.0185 -0.0017
18656W        W33787  14.532  13.480   3.486 -0.2971 -0.0126 -0.3301
18657W        W33788   0.511  17.831  12.629 -0.2530 -0.1213 -0.0124
18658W        W33789   3.529   3.021  11.882 -0.3259  0.2133  0.2207
18659W        W33790  13.405   8.208   2.430 -0.0101  0.2189  0.0001
18660W        W33791  18.038   2.867  11.947  0.0159  0.0002  0.2340
18661W        W33792   4.677  11.380   4.668 -0.1410 -0.0948 -0.2659
18662W        W33793   4.341   2.986  12.510  0.0604  0.0808 -0.0830
18663W        W33794  17.672   7.970   0.030  0.1762  0.2249  0.0851
18664W        W33795   5.484  16.119  11.689  0.1065 -0.1183  0.3809
18665W        W33796  10.743  17.886  12.936  0.4773  0.0086  0.1268
18666W        W33797   1.133   1.356   4.591  0.0922  0.0646  0.0472
18667W        W33798   3.401   6.734  14.120  0.2878 -0.2160 -0.0677
18668W        W33799   3.187  12.959  13.380 -0.1581 -0.1798 -0.4039
18669W        W33800  18.146   7.428   0.202  0.3169 -0.1384 -0.2090
18670W        W33801  10.137   3.874  12.244 -0.0666  0.1403  0.0549
18671W        W33802   6.537  16.581   4.450  0.3265  0.0285  0.1720
18672W        W33803   9.123   8.281   0.498 -0.0261  0.0545  0.2116
18673W        W33804   7.190   2.250  11.034  0.0679  0.1816  0.0867
18674W        W33805  12.809  11.321  16.233 -0.0023 -0.0337 -0.1467
18675W        W33806  16.407   0.065  14.397  0.2478  0.2027 -0.1757
18676W        W33807  12.120  11.050  14.204  0.0124 -0.1221  0.0736
18677W        W33808  17.300   8.419  15.668  0.0368 -0.1485  0.0982
18678W        W33809   9.341   9.602   4.139  0.1262  0.1294 -0.0549
18679W        W33810   5.213  11.858  10.880 -0.2129  0.1974 -0.1904
18680W        W33811   1.737   9.738  11.495 -0.3547  0.1045  0.0713
18681W        W33812   9.868   5.232  13.306  0.1829 -0.0142 -0.0488
18682W        W33813  11.016   9.370  12.521  0.3197 -0.2499  0.2238
18683W        W33814  17.638   4.945   0.918  0.0094  0.0948  0.1517
18684W        W33815  12.673  14.310   3.778 -0.0005  0.0168  0.0560
18685W        W33816   7.745  16.929  10.165  0.1718 -0.0589 -0.0116
18686W        W33817  10.180   2.848  14.978  0.0197  0.1271  0.0235
18687W        W33818  10.886   7.049  14.365 -0.1190 -0.0248 -0.1479
18688W        W33819   1.815   7.345   2.905  0.1230  0.2137  0.0279
18689W        W33820  13.205  13.145   3.019  0.2162 -0.0020  0.1205
18690W        W33821   8.693  11.775  12.447 -0.3315 -0.0060  0.0388
18691W        W33822  10.408   8.639   5.648  0.0451  0.0202  0.0905
18692W        W33823   1.906   6.050  14.239  0.1275 -0.1969 -0.0619
18693W        W33824   0.915   5.385  13.559 -0.1443  0.1552 -0.1416
18694W        W33825  10.804  11.617   0.930  0.1232 -0.0859  0.1635
18695W        W33826  11.134  13.220   4.991  0.0046  0.0753  0.2089
18696W        W33827  14.384   6.747   0.815  0.2454 -0.0082  0.0462
18697W        W33828  16.616   2.830  11.529  0.0713 -0.1987 -0.4757
18698W        W33829   8.916  15.886   3.277 -0.0611  0.0204 -0.0310
18699W        W33830   8.423   6.482   5.257 -0.1110  0.0441 -0.1348
18700W        W33831  16.299   0.552  11.658 -0.0588  0.2919  0.1789
18701W        W33832   0.677   5.747   1.110  0.0785  0.0779  0.0184
18702W        W33833   6.314  15.101   0.585 -0.0422  0.1092  0.2043
18703W        W33834  11.586  11.683  10.875 -0.0784  0.0905  0.0356
18704W        W33835   3.563  16.172   5.036 -0.0266 -0.0887  0.3003
18705W        W33836   8.459   3.440  13.005 -0.0818  0.0054 -0.1243
18706W        W33837  10.761   6.341  15.124 -0.1764  0.0165  0.1098
18707W        W33838  11.620  15.908  11.603 -0.1229  0.1276 -0.0483
18708W        W33839   1.361  13.023   3.660 -0.1864 -0.3212 -0.1023
18709W        W33840   5.831   0.452  15.892 -0.0167  0.0439  0.1640
18710W        W33841  12.343  11.730  16.034 -0.1049  0.1003  0.1182
18711W        W33842   7.148  13.957   4.105 -0.1558 -0.4443 -0.0522
18712W        W33843   8.712   8.443  14.138 -0.3128  0.0440  0.1017
18713W        W33844  13.255  15.518  11.264  0.1421 -0.1026  0.0414
18714W        W33845  10.100  13.463  15.383  0.0093 -0.1173  0.1412
18715W        W33846   4.612   5.323  12.529  0.0259  0.2753  0.1470
18716W        W33847  11.323  15.488  12.961 -0.2742 -0.3782 -0.1412
18717W        W33848  17.752  16.682   5.675  0.1446 -0.1771  0.0130
18718W        W33849   1.832  14.745  14.079  0.1914 -0.1658 -0.2423
18719W        W33850  10.549  12.948  12.473  0.1504 -0.0656  0.1149
18720W        W33851   5.490  17.581  12.364 -0.2717  0.2117  0.1838
18721W        W33852  14.737   8.742  11.647  0.1318 -0.1198  0.2236
18722W        W33853   3.843  15.861  12.427 -0.0585  0.0165  0.0159
18723W        W33854  11.496  15.369   0.505  0.0241  0.0119  0.0597
18724W        W33855  17.434   0.505   0.124 -0.1984  0.0174  0.1471
18725W        W33856   5.149   6.582   1.234  0.1027  0.2790 -0.0144
18726W        W33857  16.293   3.338   3.501 -0.1088  0.0211 -0.3663
18727W        W33858   0.600  14.073   3.444 -0.3098  0.4719 -0.2215
18728W        W33859   1.275   0.219   1.695 -0.1404 -0.2513  0.0389
18729W        W33860   2.680   7.595  10.969  0.1185  0.0152 -0.2591
18730W        W33861   0.247   3.699   2.772 -0.0533  0.0015 -0.1263
18731W        W33862   2.200   4.213   3.248 -0.1294  0.0766 -0.0440
18732W        W33863  14.849   2.529  15.475 -0.2997  0.0729 -0.1705
18733W        W33864  10.700  13.447  13.078  0.0199 -0.1839 -0.0058
18734W        W33865   8.032  10.372   0.633 -0.0827 -0.2385 -0.1850
18735W        W33866  11.003   1.064   1.441 -0.1919 -0.0492  0.1519
18736W        W33867   0.476  17.386  11.283  0.0430  0.0559 -0.0905
18737W        W33868   6.773   5.442  14.923  0.0776  0.0415 -0.2356
18738W        W33869  16.713   1.229   1.243  0.2431  0.0062  0.0167
18739W        W33870  11.749  16.003  14.600  0.0116 -0.0277 -0.0552
18740W        W33871  16.809  14.360   0.644  0.3304 -0.0177 -0.0630
18741W        W33872  10.585   8.773  11.887 -0.0444 -0.1692 -0.0098
18742W        W33873   9.271  15.524   0.492 -0.0792  0.1057 -0.1395
18743W        W33874  11.408   3.316  14.589  0.2217 -0.3499 -0.1361
18744W        W33875  12.525  17.540   2.012 -0.0620 -0.1947  0.1531
18745W        W33876  17.951   4.382   3.831 -0.2150  0.1109 -0.2464
18746W        W33877   8.242  14.141   1.447 -0.0379 -0.2013  0.0480
18747W        W33878  14.592  12.025  11.824 -0.0927  0.0052  0.0456
18748W        W33879  12.529   9.960   0.328  0.0452 -0.1178 -0.1630
18749W        W33880   8.473   4.131   3.240 -0.1284  0.0651 -0.2137
18750W        W33881  12.541  13.615  13.161  0.1100 -0.0340 -0.0840
18751W        W33882   5.552   2.670   4.509 -0.1612  0.2708 -0.2337
18752W        W33883   1.295  10.512   5.139  0.1346 -0.1387 -0.0783
18753W        W33884   9.727   6.998  11.725 -0.0025 -0.0807 -0.0004
18754W        W33885   7.799  14.674   3.691 -0.1894 -0.2266  0.1603
18755W        W33886  15.100  12.583   4.731  0.0058 -0.0936  0.0583
18756W        W33887   0.235   8.686   4.765  0.0598 -0.0774 -0.0903
18757W        W33888  11.599  12.188  15.530  0.3592 -0.0517 -0.0992
18758W        W33889   6.983   0.452  14.170  0.1315 -0.2067  0.0146
18759W        W33890   0.803   9.114   3.152  0.0049  0.1357  0.0865
18760W        W33891   3.074  13.414   1.453 -0.1294 -0.1854 -0.2301
18761W        W33892  11.440   6.089   4.441  0.2504  0.3007  0.0586
18762W        W33893   2.621  16.467  11.594  0.2645  0.0559  0.1054
18763W        W33894   5.189   9.226  12.558  0.3636 -0.1558  0.3245
18764W        W33895   6.508  16.638  14.334 -0.1439  0.0330  0.1065
18765W        W33896   3.844   5.508   0.521  0.3840  0.2352 -0.1410
18766W        W33897   8.388   6.046   3.049 -0.3668  0.0689 -0.0346
18767W        W33898  17.263   7.072  12.024 -0.3483  0.3223 -0.0289
18768W        W33899  17.923   0.255  12.977  0.0603  0.0767  0.2018
18769W        W33900   6.514   3.001  16.105 -0.1835 -0.2616  0.1856
18770W        W33901  14.874   5.407  14.795 -0.0909 -0.1484  0.1850
18771W        W33902   9.116   2.153   1.983  0.2793 -0.1544 -0.0582
18772W        W33903  18.094   2.016   2.309  0.0044 -0.1623  0.2317
18773W        W33904  14.910  16.772   4.571 -0.0887  0.0082 -0.1851
18774W        W33905   5.020   3.924   3.604  0.0056 -0.2825  0.1891
18775W        W33906   8.105   3.734  13.905 -0.0038  0.1354 -0.0249
18776W        W33907  13.203   8.366  10.936  0.2211  0.2439  0.3061
18777W        W33908  15.355   8.416  16.089 -0.0816 -0.3546  0.1127
18778W        W33909   4.113   1.611   5.420  0.0187 -0.2526 -0.0999
18779W        W33910   4.091  11.101  14.116 -0.1616  0.4140 -0.4047
18780W        W33911   8.212  15.850   2.996  0.2098  0.0854  0.0362
18781W        W33912  11.586   1.238  13.544  0.0752  0.1230 -0.0027
18782W        W33913  15.888   2.162   5.045 -0.1205  0.3010 -0.1786
18783W        W33914  12.069  12.093  14.243  0.1802 -0.1585  0.1571
18784W        W33915   2.660   8.465   3.272 -0.0266  0.1981 -0.0500
18785W        W33916   6.713   8.187  12.156 -0.2329 -0.1357  0.0110
18786W        W33917   0.301  13.272  14.987 -0.0308  0.0702 -0.0267
18787W        W33918   4.566  13.808   3.350  0.5121  0.0625 -0.0450
18788W        W33919   3.069   1.742  11.977  0.1447 -0.2226  0.0500
18789W        W33920  15.866   0.123   2.819  0.2299 -0.2739  0.0462
18790W        W33921  17.804  16.852   1.609 -0.2130  0.0011 -0.1166
18791W        W33922   8.986   2.679  12.674 -0.1411 -0.0318  0.3079
18792W        W33923  13.396  12.039  14.311 -0.0769 -0.0931  0.1747
18793W        W33924   6.616  13.240  10.517  0.0129 -0.1732  0.1049
18794W        W33925  10.519   6.269  14.298 -0.2528  0.3441 -0.1716
18795W        W33926  10.832   6.653  15.927  0.1297  0.1852  0.0137
18796W        W33927   2.572   4.239  10.854 -0.1394  0.2520 -0.0621
18797W        W33928   1.668  15.418  13.323  0.2628 -0.0918 -0.2087
18798W        W33929   4.663  12.241  12.078 -0.1136  0.0638 -0.3320
18799W        W33930  17.281  13.007   4.158  0.1797 -0.3621  0.1793
18800W        W33931   5.275  15.597  12.465  0.0113 -0.0309  0.1112
18801W        W33932  17.593  17.866  14.641  0.1415  0.3857 -0.1282
18802W        W33933   1.662   7.605  12.004 -0.1043 -0.2140  0.0691
18803W        W33934   1.852   1.971   0.944 -0.1953  0.1331 -0.1323
18804W        W33935   8.079   5.083  13.191 -0.0035  0.0113  0.1120
18805W        W33936  17.645  12.437  14.841 -0.2965 -0.4881 -0.0125
18806W        W33937   1.008   8.581   4.062 -0.1420 -0.0943 -0.0587
18807W        W33938   8.642   1.743   5.191 -0.3093  0.0810 -0.2179
18808W        W33939  10.564   7.475   1.391 -0.0252  0.0324 -0.0378
18809W        W33940  10.048  16.201  15.234  0.3533  0.0662  0.0665
18810W        W33941  16.962   6.879   5.914  0.0001 -0.0018  0.3238
18811W        W33942  10.124  10.958  12.801  0.0608  0.1429  0.0138
18812W        W33943   5.443   9.887  15.003 -0.1768  0.0655 -0.0552
18813W        W33944  10.583   4.365  14.354 -0.1422  0.0728  0.0703
18814W        W33945   6.141  15.104  12.406  0.0845 -0.1205  0.0654
18815W        W33946   4.834   7.950  15.930 -0.0454 -0.1140  0.2220
18816W        W33947   1.695  13.004   5.146  0.0200 -0.3239  0.0284
18817W        W33948   2.391  11.402   5.278  0.0352 -0.0726 -0.2635
18818W        W33949   5.532   6.412   5.742 -0.1449 -0.0752  0.2824
18819W        W33950  13.245   0.967   2.937  0.0728 -0.2338 -0.2437
18820W        W33951   2.352  16.069  13.057 -0.5712 -0.1756 -0.0806
18821W        W33952   5.472   6.112   4.892 -0.3295  0.0294 -0.1750
18822W        W33953  11.295  17.397  13.546  0.1392 -0.0777  0.2452
18823W        W33954   5.586  15.367   3.701 -0.0207 -0.1783  0.1646
18824W        W33955   7.384  16.580  12.579  0.1626 -0.1172  0.1584
18825W        W33956   5.957   7.790   2.720 -0.0989  0.1165 -0.1658
18826W        W33957   3.146   7.821   0.423 -0.2403 -0.0951  0.2014
18827W        W33958   7.485   5.536  13.596 -0.2548  0.0869 -0.0954
18828W        W33959   8.776   3.769  14.632 -0.2269  0.0849  0.1382
18829W        W33960  14.479   4.899  14.559  0.1789  0.0119  0.1525
18830W        W33961   3.822  13.692  14.410 -0.4859  0.3232 -0.0960
18831W        W33962  14.477   5.043   4.547 -0.1485  0.2905 -0.0984
18832W        W33963  16.521   9.359  15.750  0.0571 -0.1282  0.1120
18833W        W33964  16.432   3.004  13.613 -0.0127 -0.0010  0.0445
18834W        W33965   8.086  12.949   0.434 -0.0822  0.0153 -0.2058
18835W        W33966   3.834   0.092   0.695 -0.0838 -0.1579 -0.2160
18836W        W33967   8.714  11.590   3.641 -0.2032  0.1718  0.1320
18837W        W33968   7.020  16.536  14.712 -0.0511 -0.0120  0.2255
18838W        W33969   5.338   1.721   4.646 -0.1073  0.0214  0.1139
18839W        W33970   6.026  17.132  15.383  0.0951 -0.2775  0.5982
18840W        W33971   8.745   9.379  12.220 -0.1320  0.2512  0.0613
18841W        W33972   4.676  11.104  11.724  0.1787  0.2280 -0.0244
18842W        W33973   1.430  12.432   2.927  0.0365 -0.3465 -0.0037
18843W        W33974  11.401   6.157   2.509 -0.2451 -0.2261 -0.1211
18844W        W33975   3.752  17.346  13.034  0.2897  0.3299  0.1376
18845W        W33976  10.355  11.105  14.430 -0.0911  0.0823 -0.2647
18846W        W33977  17.058  12.619   3.903 -0.0240  0.0077 -0.0118
18847W        W33978  15.334   4.012   1.232 -0.0844 -0.2284  0.2301
18848W        W33979   4.630   6.126  15.599  0.1228 -0.0105 -0.0003
18849W        W33980  11.789   4.488  14.102 -0.2914 -0.1044  0.0269
18850W        W33981  16.849   7.642   4.787 -0.1997  0.2178  0.1614
18851W        W33982  18.023  16.135  13.130 -0.0191 -0.0251  0.2876
18852W        W33983  15.685  12.817   3.865 -0.1279  0.2465  0.0978
18853W        W33984  16.680   1.861   5.648 -0.2485 -0.1761  0.0510
18854W        W33985  17.359   8.556   4.768 -0.3690 -0.1361  0.1220
18855W        W33986  10.767  17.827  10.767  0.2245 -0.3989  0.0102
18856W        W33987   1.202  11.351  15.700  0.0630  0.1662  0.0699
18857W        W33988   1.612   3.935   4.761  0.2620  0.0735  0.1934
18858W        W33989   6.010   7.456  13.249  0.2511  0.1147 -0.0632
18859W        W33990  14.657   3.315   6.250 -0.0997 -0.0837  0.1168
18860W        W33991   0.092   6.382   4.552 -0.0580  0.0119 -0.3029
18861W        W33992   5.810   9.755   3.848 -0.2549 -0.2980 -0.0678
18862W        W33993  17.947   6.561   5.340  0.0489 -0.0307 -0.1182
18863W        W33994   3.681   3.224   1.332 -0.3413 -0.0726 -0.2328
18864W        W33995   0.602  13.838   3.862 -0.0934  0.1331  0.0796
18865W        W33996  16.282   5.901  12.903  0.2322 -0.0025 -0.2029
18866W        W33997  10.407   1.180  15.737 -0.1173  0.1922 -0.0262
18867W        W33998  10.903   7.019   0.993 -0.0273  0.3008  0.1871
18868W        W33999   6.561  17.126   0.923 -0.1056  0.1284  0.0125
18869W        W34000   1.167  13.936   3.904 -0.0423 -0.0631 -0.2834
18870W        W34001   4.588  15.064  11.806  0.2140 -0.1834  0.2245
18871W        W34002   0.716   9.658   4.692 -0.1531 -0.0296  0.0619
18872W        W34003  15.878   2.526  14.838  0.0161  0.3503 -0.0463
18873W        W34004   9.617  12.669   2.434 -0.0307 -0.0268 -0.1289
18874W        W34005   9.733   6.695  14.043  0.1888  0.0117  0.3623
18875W        W34006   0.454   4.577  15.236 -0.0407 -0.1794  0.3402
18876W        W34007  15.434  15.109   1.051 -0.0673  0.0607 -0.1277
18877W        W34008   0.085   1.306  13.441 -0.1481  0.0556 -0.1928
18878W        W34009  17.371  14.351  15.350  0.2471 -0.1857  0.0522
18879W        W34010  13.088   6.218   3.198  0.0877 -0.3082 -0.0235
18880W        W34011  13.156  17.315   5.380 -0.0575  0.1244 -0.1814
18881W        W34012  12.445   5.047   4.298 -0.1472 -0.3179 -0.4293
18882W        W34013  12.821   8.662   1.290 -0.0807  0.1272  0.4467
18883W        W34014  11.918   1.431   5.333  0.0597 -0.1367  0.0908
18884W        W34015   4.539  14.938  12.611 -0.1036  0.0132 -0.1705
18885W        W34016  14.091   4.899  12.531 -0.2924 -0.0162  0.0644
18886W        W34017   2.522  13.112   5.495 -0.0171 -0.0166  0.1207
18887W        W34018  12.807   2.754   3.939 -0.1803 -0.0065  0.2124
18888W        W34019   6.828   8.014   2.981 -0.0301 -0.0556 -0.0760
18889W        W34020  16.861   9.359  13.129 -0.2917 -0.0579 -0.1879
18890W        W34021   5.285   4.185  15.703 -0.0974  0.1686 -0.0083
18891W        W34022   6.936   3.927  13.131  0.2429 -0.2538  0.0114
18892W        W34023  13.049   6.168   0.934  0.0485  0.1406 -0.1698
18893W        W34024  11.181  17.632   0.726  0.1577  0.0666 -0.0647
18894W        W34025  11.913   7.594   0.840  0.4919  0.0218 -0.2012
18895W        W34026   7.948   6.946  15.936  0.0202 -0.4795 -0.2402
18896W        W34027  17.247   3.345   4.905 -0.2017 -0.3175  0.0127
18897W        W34028   8.778  17.214  14.178 -0.0968  0.1760 -0.0310
18898W        W34029  17.369   7.622   4.541  0.1998 -0.0294  0.2134
18899W        W34030  10.175   0.822   4.332  0.4917 -0.0113 -0.0519
18900W        W34031   7.025   5.684  11.304 -0.1586 -0.1068 -0.0470
18901W        W34032   1.044   1.367   3.134 -0.0280  0.2047 -0.0051
18902W        W34033  14.413  14.027   2.883 -0.0407  0.1338 -0.1957
18903W        W34034  16.469   0.390  12.620  0.1889 -0.0564  0.0815
18904W        W34035  15.134  17.713  12.642  0.2095  0.1486 -0.0547
18905W        W34036   3.502  16.626   2.560 -0.2718 -0.1251  0.0680
18906W        W34037   1.710   7.505   1.841 -0.0870 -0.1177  0.0588
18907W        W34038  11.329  17.896   5.784  0.1203  0.5764 -0.4475
18908W        W34039   1.865   3.399   0.520  0.2076 -0.2463 -0.1799
18909W        W34040   0.373   6.228  12.577  0.3980 -0.2194  0.0421
18910W        W34041  16.498   6.891   3.117 -0.1614  0.1020  0.0540
18911W        W34042   6.101  17.388  10.546  0.0051 -0.2545  0.1389
18912W        W34043   2.477   7.010   4.575 -0.3423  0.0405  0.2841
18913W        W34044  17.765  12.353   5.501  0.2434  0.0833  0.0838
18914W        W34045   1.465   0.909   0.414  0.1022  0.1192  0.1192
18915W        W34046  13.473  13.708  15.051 -0.0235  0.0572  0.0273
18916W        W34047  15.742  12.424   4.186  0.0778  0.1725  0.2484
18917W        W34048   7.803   0.063   4.277  0.1288  0.0967 -0.2720
18918W        W34049   3.794   6.610   0.371  0.0004 -0.0065  0.0451
18919W        W34050   0.038  16.255  10.917  0.1348 -0.2609  0.0424
18920W        W34051  11.445   7.120   2.291  0.3099  0.0441  0.1573
18921W        W34052  11.797   1.432   0.401 -0.1029  0.0357 -0.1213
18922W        W34053  11.202   4.610   3.693  0.1862  0.4193 -0.0071
18923W        W34054  16.674  13.073   3.064  0.2337  0.2038  0.0940
18924W        W34055   7.218   5.306   1.541 -0.0938  0.1675 -0.2859
18925W        W34056  15.301  13.022   5.770  0.1632 -0.1494 -0.1282
18926W        W34057   4.373  16.488  13.042 -0.2152  0.3847 -0.1733
18927W        W34058  16.574  15.956  11.922 -0.3824  0.3840  0.0005
18928W        W34059   4.699  14.437  15.117 -0.2982 -0.1341 -0.0062
18929W        W34060  11.093   0.974   2.517  0.2937 -0.0919  0.0310
18930W        W34061   7.594   3.713  13.875 -0.1329  0.2258  0.1654
18931W        W34062   8.313  11.189   3.438  0.0206  0.2614  0.4185
18932W        W34063   6.542   5.349   4.475  0.1630 -0.1862  0.1158
18933W        W34064   2.608  13.364   2.168  0.5642  0.0633 -0.1188
18934W        W34065  11.621  15.542  15.859  0.1785 -0.0890  0.0888
18935W        W34066  14.768   0.478  13.321 -0.1987 -0.1681 -0.1531
18936W        W34067  16.429   5.136  14.558  0.2508 -0.1584  0.0986
18937W        W34068   9.729   9.532   1.749  0.1434  0.0400  0.2704
18938W        W34069   5.458   5.909   4.406  0.0166 -0.2780  0.2338
18939W        W34070   7.538  14.662  11.019  0.2169  0.1333  0.1246
18940W        W34071   5.347   1.976   4.154 -0.0658  0.0585 -0.0422
18941W        W34072   0.379   4.736  11.530 -0.2323  0.4576  0.1126
18942W        W34073  13.464   3.727  15.399  0.1636  0.2633 -0.0322
18943W        W34074   2.740  13.630  13.801  0.1034 -0.0898 -0.0396
18944W        W34075   9.703   4.575  13.360  0.1567 -0.0920  0.1274
18945W        W34076  16.571   3.719   4.211  0.1905 -0.1375 -0.1356
18946W        W34077   5.869   7.668  12.358 -0.1197  0.0930 -0.0399
18947W        W34078  14.885   5.287   1.216  0.0844 -0.0155 -0.0950
18948W        W34079   8.968  11.848  13.085 -0.0818 -0.1444  0.0473
18949W        W34080  12.406  17.693   3.689  0.2502  0.0862  0.0018
18950W        W34081   8.733  13.205   4.895 -0.0341  0.0508  0.2622
18951W        W34082  16.181   3.826   0.039 -0.0325  0.1757 -0.1356
18952W        W34083   8.472   1.781  11.600  0.0054 -0.0396  0.0436
18953W        W34084  17.889  17.068  13.448 -0.1243 -0.1536 -0.3574
18954W        W34085   7.273  10.971  14.742 -0.3408 -0.0095 -0.1226
18955W        W34086   2.084  13.962   1.023  0.2024  0.1642  0.4995
18956W        W34087   1.254   0.045  15.627  0.2246  0.1166  0.0394
18957W        W34088  12.004   8.349  15.298 -0.0582 -0.1028 -0.3953
18958W        W34089  11.353   1.165   4.730 -0.0941  0.3254 -0.0411
18959W        W34090   2.825  16.811  12.515 -0.1482 -0.3370  0.3319
18960W        W34091   4.026   5.585   0.978 -0.3984 -0.1476  0.1613
18961W        W34092  17.854  16.871   2.748  0.0341  0.1344  0.0062
18962W        W34093   7.379  13.833  13.919  0.0634 -0.1089  0.0222
18963W        W34094   8.872  10.274   3.607  0.0314  0.1942 -0.2683
18964W        W34095   4.721   8.829  11.522 -0.4223 -0.0053 -0.0265
18965W        W34096  14.133   7.998  14.696 -0.1469  0.1560  0.2540
18966W        W34097   4.755   4.822  13.374 -0.4254  0.2425 -0.0556
18967W        W34098   2.136   6.719  11.892 -0.1355  0.1234  0.1793
18968W        W34099  13.054   0.766   4.839  0.0416  0.0292 -0.3035
18969W        W34100  15.667   1.240  13.818  0.0285 -0.0414 -0.0145
18970W        W34101   0.349  11.649  15.961 -0.0148  0.1134  0.1593
18971W        W34102   0.594  12.296  12.202  0.0541  0.0891 -0.0924
18972W        W34103  17.699   1.048   4.781  0.1403  0.4083  0.3597
18973W        W34104  17.103  13.076   0.168  0.1046 -0.0369 -0.1306
18974W        W34105   5.453  14.725   0.403 -0.1532 -0.1667  0.1206
18975W        W34106  10.873  16.943  15.476  0.0032  0.0108 -0.0816
18976W        W34107   9.935  15.727  13.209 -0.1919 -0.1038  0.1843
18977W        W34108   5.776   9.100  10.632  0.0182  0.0405  0.1063
18978W        W34109  14.036   3.826   2.248  0.1054  0.0764 -0.1263
18979W        W34110  13.388  15.790   4.427 -0.3312 -0.0783 -0.3061
18980W        W34111   7.947   3.459  11.058 -0.2547 -0.0325 -0.1697
18981W        W34112  17.235  15.652   1.510 -0.0580 -0.0277 -0.3512
18982W        W34113  17.666  10.555   4.641  0.0208  0.1431  0.2990
18983W        W34114   3.183  17.073   1.607  0.0679 -0.1678  0.3363
18984W        W34115   9.815   4.682  12.883  0.0012  0.2275  0.0565
18985W        W34116   9.710  14.248   0.132  0.0137 -0.0754  0.0574
18986W        W34117  17.060  11.602   1.486 -0.1742  0.0629 -0.0448
18987W        W34118   4.987  17.569   3.920 -0.2600 -0.0443  0.0237
18988W        W34119  10.290  14.902   4.110 -0.1018 -0.2475  0.0262
18989W        W34120  12.575  16.977   3.108 -0.2155  0.1633 -0.1123
18990W        W34121  11.637   0.056   0.399 -0.0205  0.0664 -0.0178
18991W        W34122   1.943   6.888   5.483 -0.1339 -0.4749  0.0867
18992W        W34123  16.803   4.617  11.247 -0.1244  0.0429 -0.0745
18993W        W34124  13.474   7.383  13.269  0.3086  0.0116 -0.1913
18994W        W34125  11.344  16.760  15.270  0.0601 -0.0306  0.1663
18995W        W34126  16.688  17.228  15.230  0.2300 -0.0847 -0.0551
18996W        W34127  16.333   4.281   4.686  0.1483 -0.0054  0.1827
18997W        W34128   9.800   5.413   1.955 -0.0985 -0.1143 -0.6581
18998W        W34129   8.016  13.636  11.775 -0.2518 -0.0428 -0.2283
18999W        W34130   0.842  11.983   5.761  0.1047 -0.0382 -0.0743
19000W        W34131  17.947  14.912   0.060 -0.0745  0.2577 -0.0422
19001W        W34132   0.362  12.010  13.139 -0.1072 -0.2946 -0.0107
19002W        W34133  13.754  11.642  14.316 -0.1365  0.0268 -0.1320
19003W        W34134   4.120   1.368   3.672 -0.1650  0.0453  0.0459
19004W        W34135   4.178   4.764  12.227  0.0696  0.3371 -0.0969
19005W        W34136   6.541  13.373   3.322 -0.0516  0.2036 -0.0029
19006W        W34137   6.732   3.345  14.898 -0.0552 -0.0400 -0.0382
19007W        W34138   9.586   2.744  13.454 -0.0788 -0.2519  0.1123
19008W        W34139   8.351  16.392   5.379 -0.1068  0.0016  0.0883
19009W        W34140  17.334  10.432  15.142  0.1365  0.3135 -0.1037
19010W        W34141   4.449  16.948  13.279  0.5094  0.1617  0.0942
19011W        W34142   9.785  11.878   2.993 -0.1912 -0.3657 -0.1622
19012W        W34143  12.252  14.850  12.944  0.0343 -0.1335  0.0749
19013W        W34144  14.849   8.727   4.299 -0.0704  0.1668  0.5004
19014W        W34145  16.819   2.269   2.922 -0.0130 -0.0863  0.2489
19015W        W34146  11.296   3.187  15.061 -0.0286 -0.2927  0.0035
19016W        W34147   9.845  13.710   4.327 -0.1886  0.0929  0.1793
19017W        W34148  17.821   6.290   4.336 -0.0532  0.1418 -0.3068
19018W        W34149   3.230   8.875   2.197  0.1228 -0.0821 -0.2685
19019W        W34150   9.312   5.783   3.204  0.1285 -0.0464  0.0455
19020W        W34151   2.951   2.867   1.380  0.0771 -0.0123 -0.2172
19021W        W34152  12.747   2.537  16.031 -0.0281 -0.0379  0.0693
19022W        W34153   7.305  14.568  14.040  0.0305 -0.3129 -0.0572
19023W        W34154   5.153   0.991   2.842 -0.0509  0.1474 -0.0672
19024W        W34155   3.916   8.189  15.829 -0.2001 -0.0746 -0.0434
19025W        W34156  14.533  14.508  15.871 -0.0126  0.0774 -0.0803
19026W        W34157  16.452  17.640  15.460  0.2882  0.1589 -0.0125
19027W        W34158  10.986  10.187   5.828  0.1655 -0.2395 -0.2083
19028W        W34159   7.055   6.101  14.263 -0.0452  0.1108 -0.1641
19029W        W34160   2.131  10.783  13.276 -0.0863 -0.3557 -0.1965
19030W        W34161   5.650   9.129  15.981  0.1183 -0.1608 -0.2012
19031W        W34162   4.900  10.413   0.934 -0.0168 -0.0135  0.0762
19032W        W34163   8.467  12.575  15.654 -0.0690 -0.0215  0.0689
19033W        W34164  13.594  10.155   3.091 -0.0502 -0.1188  0.2447
19034W        W34165   8.295   5.823  15.325  0.0915 -0.1228 -0.2410
19035W        W34166   1.321   4.280  12.687 -0.2335 -0.0805 -0.2549
19036W        W34167  11.885   0.678  13.493  0.2141 -0.1419 -0.0914
19037W        W34168   1.694   6.185   2.642  0.0683 -0.0147 -0.1434
19038W        W34169   4.422  16.467   0.482  0.2139 -0.1586 -0.1365
19039W        W34170   3.875   0.416   0.188 -0.1640  0.2081 -0.4098
19040W        W34171   7.449  13.034   1.753 -0.2935 -0.3281  0.0201
19041W        W34172  14.152   3.196   5.630 -0.1180 -0.1864  0.2665
19042W        W34173   9.431   3.538   4.520 -0.1456  0.0057  0.1337
19043W        W34174   7.359   3.885   0.249 -0.0698  0.1377 -0.1410
19044W        W34175   2.945  10.487  15.631 -0.2240 -0.1529  0.0288
19045W        W34176   6.787   1.801   1.801  0.1057 -0.0812 -0.0230
19046W        W34177  16.837  15.668  16.093  0.0921  0.0136 -0.0260
19047W        W34178   5.735  11.695  13.446  0.1717 -0.1619 -0.0560
19048W        W34179  16.649   0.154   0.398  0.3179  0.2438 -0.1488
19049W        W34180   1.687  16.449  12.612  0.0911 -0.2119  0.0139
19050W        W34181  10.771  15.447  12.793 -0.0565  0.3139 -0.0148
19051W        W34182   5.882   3.858  15.085  0.3461  0.1745  0.3579
19052W        W34183   3.270   6.313  13.030 -0.3043 -0.0239  0.3844
19053W        W34184   3.404  15.636  10.688 -0.1858  0.0400  0.1752
19054W        W34185  14.039  10.878   2.365 -0.1235 -0.0243 -0.3132
19055W        W34186  13.958   0.290   3.894  0.0207 -0.1657 -0.0021
19056W        W34187   7.419   3.266  12.225 -0.1332 -0.0116  0.1994
19057W        W34188  14.778   5.346   3.282 -0.0681  0.0942  0.1037
19058W        W34189   2.057   6.176  15.746 -0.1492 -0.0266  0.2702
19059W        W34190  12.278   8.211  12.164  0.1279 -0.1535  0.1628
19060W        W34191   3.572  10.542   0.510 -0.4329 -0.0180 -0.1777
19061W        W34192  11.501   8.528  15.775  0.0214 -0.1905  0.0493
19062W        W34193  14.545  11.775   2.632 -0.1495 -0.3268  0.0966
19063W        W34194  16.434   2.614   0.258  0.1659  0.0565 -0.2930
19064W        W34195  17.373  15.369  13.210  0.2348 -0.1806  0.1432
19065W        W34196  15.293   8.976   4.699 -0.2144 -0.0104  0.1765
19066W        W34197   4.515   2.230   0.339 -0.0560  0.0073  0.2064
19067W        W34198   1.480  17.299  12.702 -0.0761 -0.0642  0.0604
19068W        W34199   6.008  15.556  13.881  0.2022 -0.0699 -0.1792
19069W        W34200  15.659   3.399   1.712  0.1602  0.1578  0.2036
19070W        W34201  11.858  14.783   4.042  0.2638 -0.1800 -0.1204
19071W        W34202  11.094  15.160  13.786 -0.0002 -0.0672 -0.4208
19072W        W34203   4.952   9.282  11.728 -0.1507 -0.0585  0.1004
19073W        W34204   1.365   4.570  12.270 -0.2113  0.0451  0.0150
19074W        W34205   6.560   5.133   0.657  0.2437  0.0192  0.2076
19075W        W34206  16.291   1.638   5.804 -0.0676  0.0581  0.4254
19076W        W34207   8.561  15.318  15.258 -0.2002 -0.0002  0.2180
19077W        W34208  10.161  10.148   2.399 -0.1412 -0.1072 -0.0842
19078W        W34209  17.975   2.920  14.767 -0.0168  0.4391  0.1944
19079W        W34210   5.450   9.725   3.494 -0.1298  0.0479  0.1061
19080W        W34211   4.729  16.425  11.056 -0.2053  0.0217 -0.0271
19081W        W34212   8.091  17.938  11.043  0.2223 -0.2498 -0.1122
19082W        W34213   9.231   2.123   1.488 -0.0522 -0.1622  0.0776
19083W        W34214   8.219   0.562  16.065 -0.0046 -0.0960  0.2486
19084W        W34215   6.862  16.247  10.895 -0.0581 -0.0346  0.4458
19085W        W34216  16.308   1.382  11.150  0.2638 -0.1384 -0.1521
19086W        W34217   7.951   3.467  14.726  0.1722 -0.3172 -0.0976
19087W        W34218   5.300   7.750   4.664  0.0053  0.1616 -0.2737
19088W        W34219   6.851   9.298  14.429  0.0228 -0.1664  0.0046
19089W        W34220   3.699   9.589   2.761  0.0834  0.2661 -0.1881
19090W        W34221   0.546  10.213   0.355 -0.1158 -0.0197 -0.1620
19091W        W34222  12.736  17.424   4.237  0.4557 -0.0239 -0.2776
19092W        W34223   3.659   4.138  16.035  0.1666 -0.1180  0.1277
19093W        W34224   1.845   4.890  13.591  0.1743  0.0990 -0.0311
19094W        W34225  16.775   3.584  12.316 -0.0125  0.0841  0.0792
19095W        W34226   3.475  17.947  14.553 -0.0173 -0.0035 -0.1944
19096W        W34227  16.646   6.326   3.176 -0.0367 -0.0716 -0.1072
19097W        W34228   3.755  10.117  10.935  0.0887 -0.2051 -0.0072
19098W        W34229  10.442   1.803  15.906  0.0742 -0.0853  0.2087
19099W        W34230   7.423  17.771   0.740  0.3650 -0.0207 -0.1947
19100W        W34231  14.897   3.743  15.702  0.1167  0.0306 -0.0529
19101W        W34232  17.056  13.088  15.668 -0.0740 -0.4744 -0.0930
19102W        W34233   4.770  16.479   0.787  0.1692 -0.1904 -0.0647
19103W        W34234   0.645   4.733  15.645 -0.0221  0.2100 -0.0151
19104W        W34235   9.317  12.686   0.093 -0.3415 -0.2260 -0.0870
19105W        W34236   4.147   1.255  10.594 -0.1468  0.2127  0.1914
19106W        W34237   1.567   0.711  14.319  0.2065 -0.0211 -0.2498
19107W        W34238   4.490  11.202   9.720 -0.1002 -0.0171  0.0214
19108W        W34239   1.357  13.770   1.421  0.1940  0.1689 -0.1154
19109W        W34240   6.974   3.689  15.720 -0.2223  0.1533  0.1582
19110W        W34241   5.876   8.611   2.074  0.1423  0.1299 -0.1167
19111W        W34242  17.187  10.164  14.769  0.0746  0.3717 -0.0325
19112W        W34243   5.423   9.236   2.574  0.1263  0.0151  0.0835
19113W        W34244  15.868   1.244   4.131 -0.1967 -0.3401  0.0073
19114W        W34245  10.082  17.530  15.753  0.0729 -0.1600 -0.3069
19115W        W34246  14.683  14.077  13.230  0.1155  0.2582 -0.3942
19116W        W34247  17.423   8.075  12.658 -0.0638 -0.0925 -0.0002
19117W        W34248  11.777   5.180  12.311  0.2481  0.1781  0.1976
19118W        W34249  10.720   8.927   0.534  0.2105 -0.0510 -0.0273
19119W        W34250  16.741  15.053  14.495 -0.2246 -0.4308 -0.0703
19120W        W34251  18.056   8.827  14.526 -0.1342  0.0281 -0.1674
19121W        W34252   6.790  15.950   2.320 -0.0867 -0.1320  0.0067
19122W        W34253   9.789   6.453   3.286  0.0613  0.0567  0.1734
19123W        W34254  17.842   7.130  16.125 -0.0894 -0.0748 -0.0083
19124W        W34255  10.701   0.182  13.481  0.3197  0.1002  0.0000
19125W        W34256  13.547   6.365  15.210 -0.1828 -0.1655 -0.1172
19126W        W34257   9.938  18.115  15.780  0.1396  0.3000  0.1242
19127W        W34258  16.827   6.464   1.230  0.1366 -0.3896 -0.0295
19128W        W34259  16.377   8.073  11.971  0.0095  0.1141 -0.1914
19129W        W34260   7.023  17.992  11.355 -0.0890  0.1085 -0.2189
19130W        W34261   2.330  17.879  13.131  0.1569  0.1733  0.0692
19131W        W34262   1.984  18.019   3.397 -0.0008  0.1485  0.0660
19132W        W34263  14.701   1.925   5.114 -0.0066  0.1238  0.2217
19133W        W34264   2.247  12.859  11.054  0.0128  0.1563  0.0866
19134W        W34265  15.695  12.639   2.933 -0.2796 -0.2581  0.3425
19135W        W34266  14.009   1.136   2.098  0.0218 -0.2612 -0.1359
19136W        W34267   4.250  17.766  10.598  0.0245 -0.2094  0.0765
19137W        W34268   4.313   5.078  13.543  0.0152 -0.1992 -0.0570
19138W        W34269  11.047   3.640  14.467 -0.0342 -0.0422 -0.1747
19139W        W34270   4.801   1.782   2.586 -0.2488  0.1180  0.0873
19140W        W34271   5.137   7.171  13.827 -0.1217  0.1774  0.0060
19141W        W34272   8.189  17.884   1.128  0.1265 -0.0512  0.1156
19142W        W34273  18.133  17.744   2.853 -0.2601  0.0306 -0.0280
19143W        W34274   1.185  10.021  13.941 -0.1690 -0.0517  0.2065
19144W        W34275  13.031   3.841   3.588 -0.1586  0.0435 -0.0209
19145W        W34276  17.563   1.975  14.698 -0.1073 -0.1337  0.2588
19146W        W34277   2.601  17.574  15.228  0.3284  0.2480  0.0968
19147W        W34278  15.164   1.545   3.633 -0.0527  0.0026  0.3141
19148W        W34279  12.637  14.814   5.423 -0.2450  0.1265  0.2534
19149W        W34280  16.484  10.365   0.388  0.0452 -0.1072  0.2073
19150W        W34281  13.615   2.757   0.659 -0.1216 -0.0399  0.2444
19151W        W34282   0.461   1.373  13.873  0.2589 -0.0709  0.0848
19152W        W34283  12.549  14.795  12.469  0.3770  0.0414 -0.1415
19153W        W34284  16.119   1.327  12.509 -0.3374 -0.0793 -0.2669
19154W        W34285  10.052  17.047  14.273  0.0332  0.3636  0.3961
19155W        W34286   0.913   2.051   0.592  0.2368 -0.0189 -0.1528
19156W        W34287  12.540  15.904  11.856  0.1849  0.0974  0.1505
19157W        W34288   8.989   2.839   3.030  0.0214 -0.1621  0.0274
19158W        W34289   0.018   1.642  13.846  0.2589 -0.0108 -0.2060
19159W        W34290   6.157   1.062   1.867  0.0751 -0.2270 -0.0989
19160W        W34291   2.698  13.452  12.353 -0.2488  0.0286  0.0724
19161W        W34292   9.432   6.128   4.047 -0.1503  0.5469  0.0009
19162W        W34293   7.160   5.023   5.592 -0.2516  0.2268 -0.0678
19163W        W34294   2.889   0.542   0.823 -0.1179 -0.0920  0.0997
19164W        W34295   4.839   6.862   9.762  0.3244  0.2219 -0.1899
19165W        W34296   0.735   3.601   2.071 -0.0545 -0.0205 -0.0254
19166W        W34297   3.677  13.612   5.543  0.1571 -0.3012  0.0174
19167W        W34298  12.967  12.613   2.150 -0.2834 -0.3073  0.0152
19168W        W34299   5.356  11.293   1.355 -0.0894  0.0210 -0.2318
19169W        W34300  15.506  11.579  14.768  0.2398  0.2778 -0.0195
19170W        W34301  11.049  14.158   2.766 -0.0142 -0.0018  0.1750
19171W        W34302   0.723   1.167  13.082 -0.0353 -0.0327 -0.2335
19172W        W34303   2.646  14.196  14.106  0.1180 -0.1377 -0.0008
19173W        W34304  17.710   2.934   1.803 -0.2278 -0.1601  0.2094
19174W        W34305  14.043  16.644   2.983  0.1067  0.1132 -0.2355
19175W        W34306  14.963   2.262   5.591  0.4218 -0.0317  0.1419
19176W        W34307  15.936  17.199   2.820  0.1519  0.0864  0.6058
19177W        W34308   0.399  13.021  15.887  0.2515 -0.2594  0.4860
19178W        W34309  17.588  11.333  12.688 -0.0867 -0.0409  0.0705
19179W        W34310  17.648   9.163   2.817 -0.1037 -0.0252 -0.2399
19180W        W34311  17.847  11.375   4.156 -0.0357 -0.1604 -0.0338
19181W        W34312   9.368   4.066   4.365  0.0715  0.0218  0.2923
19182W        W34313  17.417   6.887   5.411 -0.3485  0.4607  0.0943
19183W        W34314   4.969  15.149   9.781 -0.0729  0.1132  0.0862
19184W        W34315  11.956  16.023  13.034  0.5076  0.4842  0.1154
19185W        W34316   8.284  14.305  12.584  0.0129  0.2510  0.0516
19186W        W34317  18.149   7.526  13.745  0.1026 -0.1851 -0.2434
19187W        W34318   0.049  14.695  11.273  0.0634  0.1233  0.2581
19188W        W34319   1.383   8.001  14.514 -0.1027  0.0000  0.1127
19189W        W34320   0.816   1.932  11.951  0.4112  0.1344 -0.2112
19190W        W34321  10.278  13.578  13.498  0.0256 -0.2957 -0.2345
19191W        W34322   4.854  12.308  10.769  0.2266  0.1925 -0.0130
19192W        W34323   6.439  17.726   1.691  0.0302  0.0305  0.1009
19193W        W34324  12.609  14.714   2.873 -0.0033  0.1576  0.0381
19194W        W34325  17.642   5.600  13.784  0.4439 -0.1032  0.0724
19195W        W34326   7.040  12.654   3.356  0.0736  0.0254  0.0445
19196W        W34327   6.432  15.926   1.502  0.2837  0.1791 -0.2384
19197W        W34328  13.516   5.825  11.828  0.0385  0.0018 -0.3905
19198W        W34329   4.599  17.624   1.295  0.1153 -0.3149 -0.3635
19199W        W34330  10.223  16.532   5.073 -0.0610  0.2291  0.0211
19200W        W34331   8.605   7.605   2.577 -0.0556  0.2365  0.0793
19201W        W34332  11.208   2.336   4.024  0.4704  0.0220  0.1477
19202W        W34333   1.059  11.519  12.782 -0.1914  0.2049 -0.2236
19203W        W34334  14.479  17.423   0.315 -0.0007 -0.1845  0.1669
19204W        W34335  11.586  18.080  12.908  0.0094  0.0062  0.0119
19205W        W34336   2.100   8.023  12.703 -0.0167 -0.2281  0.1759
19206W        W34337   7.790   6.343   1.620  0.0296 -0.0153  0.0431
19207W        W34338  16.820  12.725  13.385  0.1017  0.0534  0.0402
19208W        W34339   1.086   4.206   2.488  0.1098 -0.2955  0.0288
19209W        W34340  11.896   0.294  12.221 -0.0891  0.1354  0.0106
19210W        W34341   5.829  14.136   2.782 -0.1585  0.0416  0.0106
19211W        W34342   8.238  17.147   4.322 -0.0933  0.0347 -0.0949
19212W        W34343   0.243  16.533  13.805 -0.0742  0.0531 -0.1906
19213W        W34344   2.685  10.030  14.760  0.0234 -0.0374 -0.1488
19214W        W34345   8.881   8.738  15.317 -0.2748  0.3582 -0.2365
19215W        W34346   0.804   5.188  15.706  0.2954  0.0153  0.0072
19216W        W34347   2.562  12.818  11.510 -0.0723 -0.1392 -0.0265
19217W        W34348   5.553  11.213   5.259 -0.0115 -0.2284 -0.2344
19218W        W34349  14.355  11.755   2.080 -0.0681  0.0027  0.3342
19219W        W34350   1.517   8.738   0.338 -0.0497  0.0365 -0.2118
19220W        W34351  14.818  14.488  13.533  0.1263 -0.2546 -0.1241
19221W        W34352  14.436   5.133   2.208  0.0937 -0.1812  0.1016
19222W        W34353  11.127   6.768  10.917 -0.1305  0.0539  0.2859
19223W        W34354   7.714   8.020   4.136  0.1470  0.1223  0.0058
19224W        W34355   2.805  16.287  10.277  0.3427  0.0743  0.2315
19225W        W34356   7.924   2.837  14.254 -0.0034 -0.0804  0.1979
19226W        W34357   1.440  11.346   1.360  0.1578  0.0029  0.3693
19227W        W34358   0.972   2.550   3.884  0.0267  0.0197 -0.1500
19228W        W34359  10.880   1.539   2.023 -0.0064  0.3361 -0.1735
19229W        W34360   3.593  14.370   0.565 -0.0852 -0.1056  0.2886
19230W        W34361  14.481   4.388  13.685  0.2938  0.2687 -0.2738
19231W        W34362   6.450  11.642  12.990  0.3051 -0.0713  0.0634
19232W        W34363   8.082  11.057   3.864 -0.2379  0.1355 -0.3399
19233W        W34364  15.386   4.492   2.988  0.1481 -0.1185  0.2965
19234W        W34365  13.455   3.267   0.456  0.1298  0.2709  0.2506
19235W        W34366  11.902   8.379   3.194  0.0513 -0.1091  0.0844
19236W        W34367   2.625   2.711   5.196 -0.0278 -0.1281 -0.0776
19237W        W34368   4.025   0.206   2.182 -0.1462  0.0309  0.2048
19238W        W34369   5.141   3.250   0.004  0.0352 -0.1670  0.1852
19239W        W34370  11.387   4.959  13.260 -0.1352  0.3187  0.1276
19240W        W34371   3.475   3.600   5.373  0.3766  0.0792  0.0147
19241W        W34372  13.552  10.777  15.491 -0.2004  0.2460  0.1388
19242W        W34373  14.223  16.790  12.475  0.2908  0.1857 -0.0766
19243W        W34374   6.477   3.755  15.977  0.2092  0.5443 -0.0144
19244W        W34375   1.096  11.963  14.796  0.1098  0.3417 -0.2224
19245W        W34376  16.909   0.505   1.687 -0.3051  0.1695  0.3722
19246W        W34377  12.423   7.159  14.257  0.1572 -0.0880  0.2577
19247W        W34378   1.905  11.639   1.472 -0.0647 -0.2235  0.1112
19248W        W34379   1.407   5.155  15.235 -0.1112  0.0493 -0.0279
19249W        W34380  15.240  12.538  15.319  0.2578 -0.3410 -0.2367
19250W        W34381  15.001  13.940  12.258  0.3978 -0.0789 -0.0516
19251W        W34382   2.217   7.552  16.122  0.1649  0.1745  0.3075
19252W        W34383  10.011  13.110  13.332 -0.1653  0.1353 -0.1819
19253W        W34384   2.111  10.629  14.787 -0.1629 -0.2860  0.2177
19254W        W34385  14.972  18.039   0.954  0.2274 -0.0328 -0.1460
19255W        W34386   9.595   1.309  12.983 -0.0297  0.3576  0.0365
19256W        W34387  12.521  12.375   2.268 -0.0272 -0.2754 -0.2087
19257W        W34388   4.828   4.720   0.118 -0.0012  0.3947  0.2431
19258W        W34389  13.855  16.009   0.434 -0.2427 -0.0072 -0.1832
19259W        W34390  10.551   6.037  13.304 -0.1582  0.0592  0.0312
19260W        W34391   2.253   7.387  11.318  0.1942 -0.1970  0.1423
19261W        W34392  14.269   0.024   5.870  0.3827 -0.0033  0.0574
19262W        W34393   6.506   1.622   5.398 -0.3078 -0.1070 -0.2301
19263W        W34394  17.998   5.320  14.823 -0.0791 -0.2049  0.0710
19264W        W34395  12.514   9.277   4.532 -0.1853  0.2116  0.3125
19265W        W34396  11.723   6.598  12.514  0.0140  0.2339 -0.1010
19266W        W34397   4.341  12.480  13.930 -0.0287  0.0621 -0.2225
19267W        W34398   1.948   7.840   1.555  0.2035  0.0935  0.0663
19268W        W34399  11.921   9.660  14.059 -0.1198 -0.1041  0.1002
19269W        W34400   0.315   2.690  11.864 -0.1874  0.0492 -0.0721
19270W        W34401  14.666  15.994  13.555  0.3873  0.3367  0.1871
19271W        W34402  14.701   9.097   4.615 -0.0932  0.0780  0.0996
19272W        W34403   6.844  16.382  16.183 -0.0528 -0.0323  0.2475
19273W        W34404  10.139   5.325   0.927 -0.2888 -0.1641  0.0260
19274W        W34405  12.548  14.290   1.240  0.0073 -0.0063  0.2741
19275W        W34406   8.875   5.181  13.195 -0.1563  0.2020  0.3662
19276W        W34407  10.100   5.690  13.348 -0.1283 -0.0828 -0.1248
19277W        W34408  15.181   9.476  12.428  0.5398  0.0979 -0.0015
19278W        W34409   0.383  15.786  15.491  0.2219 -0.0770 -0.0968
19279W        W34410  13.320  13.716   3.942  0.1925 -0.0198  0.1022
19280W        W34411   5.796  12.174   4.787 -0.0113  0.1808 -0.1899
19281W        W34412   2.189  15.383   3.225  0.2041 -0.1572  0.1040
19282W        W34413  13.184   4.985   5.578 -0.0722 -0.1127 -0.2463
19283W        W34414   7.093  17.582   4.771  0.3654 -0.0763  0.0144
19284W        W34415   1.469  13.446  15.976  0.0775  0.0607 -0.0108
19285W        W34416  16.934  12.537  13.820  0.0076 -0.0075 -0.0400
19286W        W34417  11.422   6.702  13.513  0.1982  0.0269 -0.1247
19287W        W34418   2.352  11.911  10.994  0.3925 -0.1325  0.0431
19288W        W34419   1.934   7.849   0.696  0.0425 -0.0843  0.0349
19289W        W34420  10.291   8.860  13.118  0.2172  0.0797  0.0164
19290W        W34421  16.802  17.910   5.504  0.2511  0.0823 -0.2594
19291W        W34422  12.806   4.152  11.421 -0.1513 -0.1997  0.1481
19292W        W34423  14.200   5.692   3.832  0.1676 -0.0020  0.0913
19293W        W34424   3.897   8.956  11.863 -0.2231  0.0040  0.0093
19294W        W34425   9.600   7.373   1.011  0.1864  0.3466  0.0046
19295W        W34426  14.713   3.964   3.472  0.1152 -0.1738 -0.0611
19296W        W34427   3.704  14.854   0.751 -0.1880 -0.2671 -0.0423
19297W        W34428  13.636  17.069   4.222  0.2205  0.3756 -0.1253
19298W        W34429  16.125  13.215   3.785  0.1873 -0.2019 -0.3246
19299W        W34430  14.881   3.199  12.090  0.3269 -0.2243 -0.0327
19300W        W34431   0.349  14.576   3.319 -0.3336 -0.3421  0.1691
19301W        W34432  15.371  17.445  14.044 -0.0427  0.5977  0.2251
19302W        W34433   9.790   9.824   3.993 -0.2268 -0.1920 -0.1966
19303W        W34434  16.345   0.570   3.065 -0.0569  0.1217  0.1442
19304W        W34435  14.959   4.309  12.100 -0.0788 -0.2830  0.0517
19305W        W34436  13.371  17.171   0.982 -0.1182 -0.0032 -0.1847
19306W        W34437   7.168  11.274   3.450 -0.3591  0.0091 -0.0321
19307W        W34438   5.365  12.869   4.961  0.0035  0.0217 -0.0484
19308W        W34439   9.843   4.530  13.882  0.0346  0.4159 -0.1174
19309W        W34440  15.717   4.427  14.758  0.1858  0.0889  0.3525
19310W        W34441   2.787  11.363  14.827  0.2272  0.0430  0.1531
19311W        W34442   6.623  14.652  11.724 -0.1182 -0.1329  0.2120
19312W        W34443   5.733   7.754  14.709  0.0740 -0.0786 -0.1950
19313W        W34444  13.041   7.356   1.474 -0.2586  0.0464  0.0668
19314W        W34445  14.679   1.004   0.713  0.1671  0.0154 -0.1240
19315W        W34446   3.862   4.449  13.109  0.0058  0.1912 -0.1275
19316W        W34447   7.709  13.707   0.879 -0.3219 -0.2509  0.1232
19317W        W34448  14.592  16.358  15.796 -0.0655 -0.2236  0.0042
19318W        W34449  12.510  13.803   1.502 -0.1554  0.0497  0.0636
19319W        W34450   0.320   8.914   0.194 -0.1364 -0.1487 -0.4739
19320W        W34451   2.991  14.736  11.839 -0.0623 -0.0758 -0.0815
19321W        W34452   4.516  15.045   0.325  0.0272 -0.0146 -0.2806
19322W        W34453   0.617   3.818   5.747 -0.0328  0.1523  0.0617
19323W        W34454  13.456  14.743  13.383  0.0749 -0.1257 -0.2889
19324W        W34455  17.677  12.902  13.857  0.0351  0.1318  0.2862
19325W        W34456   4.804  18.037  13.305  0.2877 -0.0808 -0.1489
19326W        W34457   8.837  10.157   2.061 -0.0271  0.0904  0.0453
19327W        W34458  17.139  10.035   3.397  0.2032  0.1345  0.3907
19328W        W34459   4.074   4.031  12.756 -0.0383 -0.1783 -0.6052
19329W        W34460  11.576   7.635  14.713 -0.0585 -0.1719  0.1819
19330W        W34461   7.747   3.871  12.886  0.3481  0.2078  0.1952
19331W        W34462   2.895  14.126  12.850  0.4513 -0.2593 -0.1663
19332W        W34463   9.795   4.464  14.661  0.0997 -0.1177 -0.1658
19333W        W34464   4.831  12.758   4.851  0.3192 -0.3789 -0.1050
19334W        W34465  17.439   9.781  13.661 -0.1087  0.1511 -0.1570
19335W        W34466   9.787  13.717   2.377 -0.0736 -0.0528  0.2214
19336W        W34467  14.731   1.859  15.930 -0.0646 -0.1710  0.1647
19337W        W34468   7.341   6.841  15.260 -0.1193 -0.0164 -0.1047
19338W        W34469   1.411  12.773  11.273 -0.2832 -0.1638  0.1140
19339W        W34470   0.475   0.192  11.236  0.3492 -0.1812  0.2420
19340W        W34471  17.177  18.000  11.907  0.0106 -0.0813 -0.1285
19341W        W34472  16.669  10.158  16.225  0.1495 -0.2178 -0.0094
19342W        W34473  10.372   6.539  15.558 -0.0074 -0.0597 -0.5440
19343W        W34474  15.948   9.095   4.542 -0.0145  0.1890  0.0190
19344W        W34475   9.055  11.436  12.614 -0.1334 -0.1794  0.0409
19345W        W34476  12.257   7.968  13.755  0.2462 -0.1488 -0.0508
19346W        W34477  10.485   3.197  15.154 -0.2612  0.0079  0.0299
19347W        W34478   6.580  14.791  12.661  0.1740  0.0092 -0.1122
19348W        W34479   2.790  14.192  11.209 -0.0600  0.0316 -0.0374
19349W        W34480  16.800  15.409   1.080 -0.0415 -0.2978  0.1443
19350W        W34481  17.382  13.471   4.410 -0.0083 -0.0288  0.1899
19351W        W34482  15.848   7.157   2.382  0.1661 -0.1568  0.0068
19352W        W34483   3.315  18.004   0.531  0.1266  0.0056 -0.0369
19353W        W34484  16.012   5.247   0.015  0.0568  0.1908 -0.0423
19354W        W34485  13.777   7.127  14.141  0.0811  0.1365  0.1484
19355W        W34486   8.728   7.192   1.311 -0.0088 -0.1577 -0.0298
19356W        W34487   5.318   5.120   2.840 -0.1410 -0.0841  0.0104
19357W        W34488   1.600  13.474   0.224 -0.0794  0.0173 -0.1959
19358W        W34489  10.368   0.599   2.276  0.2110 -0.2635 -0.0717
19359W        W34490   5.962  15.514   4.662 -0.0363  0.1140  0.1723
19360W        W34491  10.210   7.780  11.084 -0.1927 -0.2755  0.0986
19361W        W34492  13.906   5.925   2.812  0.0459  0.0891 -0.3943
19362W        W34493   9.740  13.174  15.081  0.4041  0.1455 -0.1108
19363W        W34494   5.368  10.953   0.968 -0.1209  0.0476 -0.2110
19364W        W34495  13.169  14.629  11.681  0.4293  0.1323 -0.0666
19365W        W34496  13.210  16.709   0.927 -0.2164 -0.0092 -0.1330
19366W        W34497   8.790  12.330   2.276  0.0541 -0.3043  0.0745
19367W        W34498  12.216  16.858   3.464  0.1216 -0.2256 -0.2589
19368W        W34499  16.427   5.542   3.955 -0.1021 -0.0545 -0.3214
19369W        W34500   7.378  12.155  10.696 -0.1015  0.1438 -0.1690
19370W        W34501  11.812  12.745  12.473 -0.2062  0.0145 -0.1230
19371W        W34502   4.536  13.668   3.911  0.1783 -0.0561 -0.0987
19372W        W34503   0.346  18.036  11.777 -0.0623 -0.2075  0.0591
19373W        W34504   9.383  13.125  11.316  0.1635  0.1416 -0.0149
19374W        W34505   7.822  10.674   3.540  0.5221  0.1805  0.1861
19375W        W34506  12.350  10.168  10.186  0.2444  0.1435 -0.0570
19376W        W34507  15.586   7.301  14.316  0.0969 -0.2777 -0.0248
19377W        W34508   9.114   8.502   4.990 -0.0253 -0.0598 -0.0092
19378W        W34509  12.891   1.382  13.331  0.4321 -0.0333  0.1179
19379W        W34510   2.592   2.566  11.937  0.0572  0.1780 -0.1422
19380W        W34511  15.717   6.061  11.066  0.0266  0.2054 -0.1331
19381W        W34512   0.264  10.109   2.028  0.0734 -0.2686 -0.1326
19382W        W34513   6.349   4.314  15.880 -0.1026 -0.1872 -0.2663
19383W        W34514  17.822  17.062  14.934  0.1776  0.1126  0.0120
19384W        W34515  12.849   2.479   3.584  0.2642 -0.2826  0.2722
19385W        W34516   4.502   3.831   5.164 -0.3692  0.1370  0.2837
19386W        W34517   1.399   5.052   3.986  0.1001  0.0673 -0.1251
19387W        W34518  13.038   2.638  13.105 -0.0955 -0.2089  0.0670
19388W        W34519   5.101   6.416   4.940  0.0055 -0.1701 -0.0365
19389W        W34520   6.505  17.040  15.605  0.0165  0.2691  0.0510
19390W        W34521   5.386   7.249   3.290 -0.0228  0.1834  0.1365
19391W        W34522  12.118   7.722  14.623  0.2019 -0.2321 -0.0642
19392W        W34523  16.100   4.521  15.502  0.1460 -0.1239 -0.1692
19393W        W34524  13.554   0.927  15.580  0.2444 -0.0371 -0.0836
19394W        W34525  16.436  17.038   2.935  0.1586  0.2973 -0.4486
19395W        W34526   4.618   0.396   1.547  0.0814 -0.0327  0.1501
19396W        W34527   9.395   2.986   1.322  0.2303 -0.1522  0.1578
19397W        W34528   9.313   0.552  11.492  0.0343 -0.1077 -0.1092
19398W        W34529  13.017  16.599  14.550  0.1366  0.3278 -0.0440
19399W        W34530   3.558   2.718  11.065  0.0520 -0.1932 -0.0516
19400W        W34531  11.781  15.237   4.383 -0.2196 -0.0504  0.0546
19401W        W34532   2.899   4.082  11.678 -0.2843  0.2874  0.3355
19402W        W34533  16.322  11.850  12.125  0.1662 -0.0567 -0.0740
19403W        W34534   9.627   7.876  10.755 -0.1690  0.2961  0.2637
19404W        W34535   1.875   4.821  14.333  0.0561 -0.0268 -0.4202
19405W        W34536  11.611   3.730   2.877  0.0332 -0.3745 -0.0209
19406W        W34537  17.016   9.020  11.349 -0.0096  0.1566 -0.2136
19407W        W34538   1.545  12.691   4.315 -0.0802  0.0095  0.0312
19408W        W34539  13.143   3.759   0.283 -0.2997  0.0998 -0.1934
19409W        W34540  13.095  17.067  15.453 -0.1782  0.0527 -0.1335
19410W        W34541   5.408   4.370   4.770  0.1413 -0.0585 -0.1719
19411W        W34542   6.587   4.102  12.838  0.0308 -0.2741  0.1010
19412W        W34543  13.835   7.696  14.005  0.1502 -0.0775  0.1062
19413W        W34544   9.487   6.700  12.054 -0.4043 -0.1123  0.1297
19414W        W34545   6.225  10.971   4.683 -0.3348  0.0582  0.0667
19415W        W34546   1.346  11.711  12.380  0.2667  0.1287  0.0402
19416W        W34547   7.591   9.938  10.635  0.0696  0.1337 -0.0247
19417W        W34548   0.681   5.000   5.039 -0.0160 -0.0921  0.0197
19418W        W34549   1.502   3.289   2.270  0.1489  0.1162 -0.3105
19419W        W34550  11.917   1.042   2.190 -0.0624 -0.1258  0.0920
19420W        W34551  13.528   5.173   4.209 -0.1969 -0.3578  0.0911
19421W        W34552  13.271   5.226  12.197  0.0021  0.0562 -0.0840
19422W        W34553   5.888   2.058   3.737  0.3318 -0.0168  0.0228
19423W        W34554  13.722  10.045   2.579  0.0142 -0.1069  0.3798
19424W        W34555   2.273   2.993   0.497  0.1066 -0.4038 -0.0360
19425W        W34556  11.977  16.417   4.721 -0.1065  0.1267  0.2467
19426W        W34557  16.642   6.822  11.420 -0.0029 -0.0203 -0.0500
19427W        W34558   6.488  10.758   5.385  0.2590  0.1072 -0.2661
19428W        W34559  12.594  17.871  12.333  0.0789 -0.4187 -0.0573
19429W        W34560  16.261  14.835  12.536 -0.0426 -0.0748  0.2359
19430W        W34561  16.890   0.911  16.106  0.5202  0.0375  0.0593
19431W        W34562  17.059   0.322   0.591 -0.1768  0.0282  0.0443
19432W        W34563  11.025   6.514  10.518 -0.2632  0.1941  0.0119
19433W        W34564   0.859   1.012  11.763 -0.0072 -0.0831  0.0991
19434W        W34565  13.171  12.884  13.898 -0.2285  0.0064 -0.0447
19435W        W34566   4.987  17.442   1.782 -0.0905  0.1205 -0.0428
19436W        W34567  15.788   3.197   2.681  0.2789  0.0010 -0.0127
19437W        W34568  14.228  10.468   0.976 -0.2940  0.2440 -0.5091
19438W        W34569   2.015  11.207   4.014 -0.0597 -0.2011 -0.1007
19439W        W34570   9.474  16.522   0.380  0.1174 -0.1511  0.1336
19440W        W34571  11.934   1.917   6.194  0.1031  0.2218  0.0255
19441W        W34572  12.767   2.767   3.023 -0.0129  0.1424  0.1778
19442W        W34573   9.552  16.009  12.158  0.0338  0.0300 -0.1800
19443W        W34574   4.874  18.022  13.845  0.1275  0.0460  0.1788
19444W        W34575  18.136  12.221   3.018 -0.1781 -0.1660 -0.0439
19445W        W34576   9.663   3.243   1.726  0.3959 -0.0440  0.2026
19446W        W34577  13.277   6.682  11.565 -0.0602 -0.3390  0.2170
19447W        W34578   4.231  11.672   2.744  0.0194  0.2347  0.2061
19448W        W34579  15.209   0.369  14.117  0.0771 -0.2123  0.2140
19449W        W34580   2.922   8.146   1.241  0.1442 -0.2822 -0.0440
19450W        W34581   5.864  14.645  10.116 -0.0979 -0.0412  0.1943
19451W        W34582  12.199  12.174   3.563 -0.3022 -0.3274  0.1854
19452W        W34583   2.327  17.763  16.208  0.1713  0.1802 -0.1723
19453W        W34584  17.519   9.352  11.994  0.0581  0.0125 -0.1541
19454W        W34585   7.240   1.646   3.437 -0.1186 -0.1278  0.0554
19455W        W34586   7.284   4.186   3.728  0.0838  0.3216  0.1577
19456W        W34587   6.161   2.365   1.464  0.1152 -0.0348  0.0150
19457W        W34588   2.939  12.818   4.620 -0.1265 -0.0820  0.4714
19458W        W34589   4.702   6.371  11.013  0.1141  0.1520  0.0725
19459W        W34590   6.830   0.833  15.791 -0.2235 -0.2662 -0.0351
19460W        W34591   9.830   4.958   1.701  0.1373 -0.1906 -0.2953
19461W        W34592   7.817   6.877   1.829 -0.0391 -0.1205  0.1355
19462W        W34593   5.391   5.751  15.072 -0.3975 -0.1565 -0.1687
19463W        W34594   5.572   9.623   5.144  0.0650  0.0989  0.1616
19464W        W34595  11.666   8.851  15.293 -0.0061 -0.1625 -0.0622
19465W        W34596   3.433  15.645  12.772  0.2027  0.0406  0.0268
19466W        W34597   2.488  11.251  11.566 -0.1687 -0.0674  0.5704
19467W        W34598   8.925  15.944  11.332  0.1054 -0.0181  0.0698
19468W        W34599  14.803   8.904  15.081 -0.0964  0.2524  0.1303
19469W        W34600   4.552   3.444   2.967  0.1521  0.0328  0.0258
19470W        W34601   5.818  16.235   5.083 -0.1108 -0.1215 -0.1531
19471W        W34602  10.865   7.752  12.699  0.2336  0.0531 -0.1465
19472W        W34603   6.284  11.513  14.196  0.2914  0.4013 -0.0087
19473W        W34604   7.645  15.802  14.130  0.1339  0.1146 -0.0984
19474W        W34605  15.071  17.384  13.618  0.2966 -0.2426 -0.2589
19475W        W34606   6.403  10.851  11.308 -0.1332 -0.2005 -0.2317
19476W        W34607  11.343   9.213   3.390 -0.3729  0.1740  0.0172
19477W        W34608  17.611   2.089  11.688 -0.0573 -0.1651 -0.3042
19478W        W34609   2.270   2.958   1.038  0.2874 -0.2915 -0.1506
19479W        W34610  16.429   7.569  12.100 -0.1331 -0.0549 -0.1352
19480W        W34611   3.856  13.028   2.337 -0.0783  0.0411 -0.0240
19481W        W34612  16.542   9.106  14.914 -0.1115  0.0342 -0.0131
19482W        W34613  12.003   9.269   2.936 -0.0282 -0.3258  0.4443
19483W        W34614  13.045   9.291   4.526 -0.1926 -0.0114  0.0054
19484W        W34615   2.577   8.282   5.634  0.1298  0.0644 -0.0584
19485W        W34616  14.249  15.996  11.730 -0.0136  0.0688  0.1057
19486W        W34617   9.438   6.749  16.134 -0.1197  0.0557 -0.3476
19487W        W34618   5.437   2.100  12.488  0.1748 -0.0379  0.2139
19488W        W34619   8.906   6.896   4.961 -0.3022  0.0563 -0.3249
19489W        W34620  15.418  17.485   4.817  0.1063 -0.0369 -0.1305
19490W        W34621   8.496   2.695  12.201 -0.0617  0.1262 -0.2631
19491W        W34622  14.499  16.941   2.784  0.0697 -0.2575 -0.0682
19492W        W34623   5.444  14.278  12.873  0.1325  0.1858 -0.0696
19493W        W34624  11.874  14.017  12.627  0.2286 -0.0916 -0.2761
19494W        W34625  10.603  12.484   5.339  0.0066 -0.1115  0.1490
19495W        W34626   0.330   4.645  16.062 -0.4400 -0.1107  0.4325
19496W        W34627   7.069   7.458   4.831 -0.1764 -0.0950  0.1894
19497W        W34628   3.925  17.483   3.721 -0.0116 -0.2816  0.2286
19498W        W34629   5.571   3.368   0.996 -0.0518  0.0314  0.1804
19499W        W34630   2.135  10.947   3.035  0.1288  0.0896  0.1287
19500W        W34631   8.637   6.582  15.938  0.4220  0.3731  0.0915
19501W        W34632  17.606  15.566  12.674  0.0464  0.0201 -0.0488
19502W        W34633   6.182   1.084   4.817  0.0804 -0.2157 -0.3100
19503W        W34634   0.866   8.159   4.389  0.2701 -0.0216  0.2396
19504W        W34635   5.426   8.353  12.454 -0.3070  0.0262 -0.2099
19505W        W34636  12.486   9.045  15.376 -0.0639 -0.0358  0.2336
19506W        W34637  14.954   2.090   3.625  0.3818 -0.2033 -0.1368
19507W        W34638   8.243   4.253   1.383 -0.0128 -0.0479 -0.1725
19508W        W34639   8.634  16.379  13.759  0.2165  0.0643 -0.0201
19509W        W34640  16.252  11.086   1.555 -0.3068 -0.2718  0.2570
19510W        W34641   1.724  11.906  10.192  0.2458 -0.1460 -0.2934
19511W        W34642  17.241   6.038   1.076 -0.0456 -0.2702  0.0988
19512W        W34643  12.165  10.607   2.770  0.3729  0.0624 -0.0009
19513W        W34644   8.500   1.298  12.394  0.0628 -0.0220 -0.1843
19514W        W34645  13.861   5.937  11.023 -0.1571  0.0252  0.0984
19515W        W34646   6.825   5.435   2.438  0.0810  0.0554  0.0687
19516W        W34647   7.606   7.341  16.167 -0.1938  0.4268 -0.0048
19517W        W34648   0.924   5.094  13.107  0.1762  0.0556  0.1244
19518W        W34649   6.200   6.012   4.365  0.0267 -0.1763  0.0173
19519W        W34650  14.482  16.928   4.715 -0.0402 -0.0938 -0.3935
19520W        W34651   9.300   7.531  13.424 -0.4399 -0.1274 -0.0457
19521W        W34652  18.029  14.598   1.889  0.1634 -0.0817 -0.0122
19522W        W34653  15.936  13.014  12.142  0.1188 -0.3182 -0.2589
19523W        W34654  13.675   7.937  12.001  0.1025  0.1606 -0.0086
19524W        W34655   5.305   7.745  15.719 -0.4488 -0.0559 -0.0267
19525W        W34656   7.588  13.297   4.196 -0.1197  0.0742 -0.0219
19526W        W34657   5.238  17.465   4.773  0.1303 -0.0602 -0.0197
19527W        W34658  14.186  13.018   4.649 -0.1395  0.2031  0.0184
19528W        W34659  11.744  17.468  14.639 -0.1393  0.1120 -0.1638
19529W        W34660   9.780   5.882  12.474 -0.0284 -0.1578 -0.0425
19530W        W34661   9.246  10.340   2.328 -0.0148  0.0072 -0.0009
19531W        W34662   6.173   9.998   2.891 -0.1530  0.0044 -0.1442
19532W        W34663   0.390   4.560   3.095  0.2678 -0.2212 -0.0924
19533W        W34664  17.921  11.501  15.702  0.0254  0.0269 -0.1467
19534W        W34665   1.035   7.176  15.534 -0.1671 -0.2598  0.0269
19535W        W34666  16.030  16.430  12.763  0.0459 -0.0902  0.0989
19536W        W34667  16.769  12.223   4.230  0.0541 -0.0170 -0.0791
19537W        W34668   7.759   1.523  15.782 -0.2207 -0.1941  0.0812
19538W        W34669   4.169  13.611  11.768  0.2287 -0.0675  0.2064
19539W        W34670   0.944  17.800  15.717 -0.1153 -0.0461  0.1235
19540W        W34671   2.208  14.365  14.819  0.0822 -0.0731  0.0517
19541W        W34672   8.202  17.585   3.934 -0.1811 -0.0124  0.2162
19542W        W34673   4.534   9.332   4.420  0.0263 -0.1231 -0.3229
19543W        W34674   8.118   3.923  10.999  0.1094  0.1472 -0.3244
19544W        W34675   3.046  10.069   2.051 -0.0505 -0.0219 -0.1523
19545W        W34676   4.613  15.065   3.544  0.2833  0.1895  0.3448
19546W        W34677   8.342   2.585  12.670 -0.1262  0.2625  0.0061
19547W        W34678   6.162  14.437  14.382 -0.3593  0.3030 -0.3323
19548W        W34679  16.265  11.563   0.374 -0.1377  0.0057 -0.0239
19549W        W34680   3.074   4.071  10.958  0.3312 -0.2430  0.1363
19550W        W34681   4.200   8.316   5.214  0.2466 -0.0811  0.1891
19551W        W34682   3.714   7.272  12.420  0.2070  0.0734 -0.2740
19552W        W34683  14.689   4.715  13.336 -0.3306  0.3656 -0.1835
19553W        W34684  15.267  17.016   4.884 -0.1248  0.0021 -0.0335
19554W        W34685   6.933  15.465  16.114  0.3530 -0.1168 -0.0038
19555W        W34686  11.674   3.412  14.176 -0.1125 -0.1275 -0.0651
19556W        W34687  12.030   8.826   5.185  0.0035 -0.0144  0.1783
19557W        W34688  15.198  10.136  13.731 -0.0997  0.2013  0.0839
19558W        W34689  14.337   4.106  11.490 -0.0933 -0.4531 -0.1363
19559W        W34690   0.839  15.433   2.554 -0.0866 -0.4488 -0.3108
19560W        W34691  13.666  11.607  11.879 -0.0167  0.1360 -0.1543
19561W        W34692   7.640  12.537   5.195 -0.0645 -0.1254  0.2817
19562W        W34693  11.505  12.371   0.432  0.0744  0.0438  0.2532
19563W        W34694   7.490  12.624  11.446 -0.1239  0.0136 -0.0190
19564W        W34695   2.337  18.153   1.394  0.1710 -0.0867  0.0387
19565W        W34696  15.185   5.749   0.237  0.2655 -0.1716  0.2151
19566W        W34697   9.029   3.350  14.917 -0.4419  0.0559 -0.1290
19567W        W34698   7.893   2.249  13.781  0.2759  0.1502  0.3649
19568W        W34699   8.433  14.086   2.748 -0.2692 -0.1616 -0.3367
19569W        W34700   4.375   2.577  13.743 -0.0484 -0.1035 -0.0031
19570W        W34701   1.595   2.326  12.272  0.0842  0.0654 -0.2870
19571W        W34702   9.505   0.776  16.169 -0.1330 -0.1119  0.4338
19572W        W34703  17.621  17.349  15.382  0.0288  0.1595 -0.1768
19573W        W34704  11.369   1.288   2.260  0.0078  0.1532  0.1623
19574W        W34705  13.747   6.575  14.281 -0.0508 -0.2413  0.1230
19575W        W34706  17.166  11.942  15.547 -0.3863  0.2231  0.3039
19576W        W34707   6.979   7.955   0.638  0.0200  0.0026  0.3018
19577W        W34708  12.632   9.180  11.219  0.0944 -0.1889 -0.1825
19578W        W34709   1.004  11.685  11.306 -0.5526 -0.0449  0.0204
19579W        W34710   0.448   6.435   3.398  0.1276  0.0063  0.3215
19580W        W34711   3.073  12.985   1.816  0.3764 -0.2620 -0.1090
19581W        W34712   0.500  13.404   1.638 -0.4305 -0.0735  0.1531
19582W        W34713  18.145   6.001  15.526  0.0235 -0.2163  0.1101
19583W        W34714  17.702  13.058  11.800  0.1831  0.4927  0.1307
19584W        W34715   4.892  14.005   4.010  0.0456 -0.0566  0.2763
19585W        W34716  15.333   0.053   2.529  0.1378 -0.0956 -0.2147
19586W        W34717   3.794   7.347   0.929 -0.3939  0.1611  0.1510
19587W        W34718  14.795   5.316  12.997 -0.3363  0.3896  0.1848
19588W        W34719  16.301  17.489  12.258  0.0876  0.1182 -0.2786
19589W        W34720   9.620   7.804  13.177 -0.3323  0.0633  0.1899
19590W        W34721  15.708   5.523   4.810 -0.0472 -0.2219  0.0264
19591W        W34722  12.213  17.052  14.258 -0.2742 -0.0745  0.0287
19592W        W34723   9.798   0.041  12.895  0.1001 -0.0408  0.0316
19593W        W34724  17.933   1.240  13.024  0.3187  0.1244 -0.1128
19594W        W34725   0.094   8.766   4.164 -0.0787  0.0664 -0.1016
19595W        W34726   5.136   7.312  15.402 -0.2524  0.0535  0.0938
19596W        W34727  15.958   5.780  13.848 -0.0312  0.1965  0.1311
19597W        W34728  14.298   4.717  14.967 -0.0712  0.1555  0.0245
19598W        W34729  13.564  13.130  14.914 -0.0068 -0.2522  0.0544
19599W        W34730  12.651  13.335  14.478 -0.0261  0.0525 -0.1214
19600W        W34731  11.277  16.757  14.678 -0.0250 -0.2351  0.0980
19601W        W34732  11.211   8.245  14.053 -0.0215  0.0464  0.0751
19602W        W34733  12.246   8.056   4.883 -0.3055  0.2157 -0.3433
19603W        W34734   9.715  16.355   5.325  0.1405 -0.1385  0.2961
19604W        W34735   8.595  10.167  15.245 -0.0150  0.0714 -0.2050
19605W        W34736  17.269   4.880   1.917 -0.0650 -0.3486  0.1290
19606W        W34737  10.413   4.782  14.710 -0.0444  0.2848  0.1164
19607W        W34738  17.734   7.739  13.062  0.1157  0.1934 -0.0246
19608W        W34739  10.693   7.200   5.240  0.3159 -0.1393  0.0168
19609W        W34740   0.803  15.911  11.205 -0.0805  0.0470 -0.1078
19610W        W34741   6.810   7.030  14.784  0.1154 -0.0156  0.1952
19611W        W34742   9.092  14.189  13.254 -0.1785 -0.2823 -0.1985
19612W        W34743   6.562  16.013   4.306  0.0244  0.0159  0.3108
19613W        W34744   9.771   6.524  11.643 -0.1770 -0.1854  0.0025
19614W        W34745   5.273  13.726  12.042  0.3461 -0.0013  0.1687
19615W        W34746   4.124   9.473   3.007 -0.0494  0.0933 -0.1925
19616W        W34747   5.568  12.207   3.195 -0.0811  0.1720 -0.3043
19617W        W34748   2.106  18.149  15.778 -0.0921  0.3877 -0.2031
19618W        W34749  10.657   2.624   1.891  0.0109 -0.1113  0.0796
19619W        W34750   2.837  14.890   4.118  0.1764  0.0567  0.1193
19620W        W34751   9.156  10.749  16.025 -0.4967 -0.0848 -0.0232
19621W        W34752  15.433   4.587  13.578 -0.0799 -0.2366 -0.1162
19622W        W34753  16.089   3.106   1.631 -0.0335  0.2137  0.0650
19623W        W34754   4.330   1.443   5.986  0.0082 -0.0782 -0.1681
19624W        W34755   1.749  17.392   4.129  0.0604  0.0382 -0.1740
19625W        W34756   4.866   6.919  13.457 -0.5945  0.3186 -0.1803
19626W        W34757   2.071   8.368  11.426  0.1551 -0.0383 -0.0829
19627W        W34758   0.115   1.723  15.256  0.0565 -0.4062 -0.1290
19628W        W34759  15.982   9.521  13.790  0.3930 -0.0774  0.0345
19629W        W34760  14.591   7.146   2.452 -0.0352 -0.0170 -0.1967
19630W        W34761  11.251   9.286  11.154  0.0600 -0.1737 -0.0751
19631W        W34762  11.439  14.000   0.108 -0.3490  0.1008  0.0727
19632W        W34763   3.808   0.734   0.550  0.0805  0.1382 -0.1042
19633W        W34764   5.804  17.742  14.122  0.1580  0.2166 -0.0230
19634W        W34765  16.528  10.457   3.070  0.5678 -0.1630 -0.1887
19635W        W34766   4.284   9.133  12.381 -0.1935 -0.0176 -0.0860
19636W        W34767   1.224   2.202   6.039  0.1387 -0.0996 -0.1301
19637W        W34768   4.737  16.473   3.773  0.0449  0.0268 -0.1067
19638W        W34769   9.463  13.619   0.691 -0.1184 -0.0370 -0.2485
19639W        W34770   2.304   1.894  11.338 -0.0631  0.1918  0.0373
19640W        W34771  13.561   6.214  15.755 -0.0684 -0.0845  0.2538
19641W        W34772   0.270   1.089   1.336  0.1360  0.0990  0.1114
19642W        W34773  14.425  17.398   2.664 -0.0290 -0.3429  0.0499
19643W        W34774  15.398   7.657  14.711  0.2854 -0.3010  0.0027
19644W        W34775  16.073  10.154   0.570  0.1356  0.0779 -0.0861
19645W        W34776   0.861   9.129  14.915 -0.0863 -0.0132  0.1029
19646W        W34777   7.973   8.435  14.155  0.1740 -0.5059 -0.0258
19647W        W34778   5.057  14.432  13.191  0.0886  0.0624 -0.1922
19648W        W34779   7.014   8.623   3.489 -0.2075  0.0729 -0.2091
19649W        W34780  17.751   7.568  14.079 -0.2468 -0.0007 -0.1784
19650W        W34781   5.844   8.404  15.182  0.0067  0.0955  0.0306
19651W        W34782  14.548   2.494   1.804 -0.4856 -0.0674 -0.2288
19652W        W34783  10.857   6.020   3.199  0.2392  0.0573  0.0219
19653W        W34784   4.093  13.009   0.582 -0.0053  0.0422 -0.0949
19654W        W34785   2.925   7.660  12.733 -0.1831 -0.0938 -0.1696
19655W        W34786   3.649  13.349  15.273  0.1138  0.1754 -0.0412
19656W        W34787   9.686  13.032  12.934  0.2242 -0.0095 -0.0883
19657W        W34788   5.014  15.365   1.703  0.1912  0.3793  0.1231
19658W        W34789   9.469  15.946  14.050 -0.1280  0.2219  0.2835
19659W        W34790   3.759   1.905   2.010 -0.3915 -0.0118 -0.0869
19660W        W34791   9.769  17.429   2.990 -0.0039 -0.1630  0.0056
19661W        W34792   2.810  11.484   2.688 -0.1250  0.4281  0.2413
19662W        W34793  12.241  17.229   2.853 -0.2221 -0.0612  0.1449
19663W        W34794  10.019  13.958  15.274 -0.3253 -0.0698  0.0001
19664W        W34795   8.553   5.887   1.936  0.0321  0.1649 -0.2073
19665W        W34796   0.688   2.529  15.118 -0.2921 -0.1697  0.0337
19666W        W34797  15.501   6.817  14.237 -0.2628 -0.2803 -0.0283
19667W        W34798  10.333   7.182   3.351 -0.0404  0.1038 -0.2233
19668W        W34799   3.709   4.718   4.140  0.3124 -0.2270 -0.0754
19669W        W34800  17.902   4.837  15.269  0.1235  0.0934  0.1676
19670W        W34801  14.094  13.092  14.873 -0.1001  0.0631 -0.0684
19671W        W34802  11.634  10.079  13.443  0.0103 -0.0133 -0.2494
19672W        W34803   7.655   6.454  12.991 -0.1248 -0.1199  0.2685
19673W        W34804  14.005  17.900   4.660 -0.1120 -0.1732  0.1557
19674W        W34805  12.366   7.725   2.466 -0.0122  0.0597  0.2399
19675W        W34806  17.150   3.864   4.795  0.1837 -0.0790 -0.2974
19676W        W34807   6.966   6.373   0.638 -0.2612 -0.1165 -0.2771
19677W        W34808   2.541   4.557  16.015  0.2216  0.2279 -0.0661
19678W        W34809   0.574  15.525   0.841  0.0512 -0.1452 -0.1445
19679W        W34810   7.098   3.406  12.565 -0.0099 -0.1698  0.2021
19680W        W34811  11.324   7.424   3.114 -0.1376 -0.0228  0.0567
19681W        W34812  11.316   5.811  11.178  0.2318  0.0854  0.5307
19682W        W34813   3.681   4.578  15.539  0.0945 -0.0596  0.3514
19683W        W34814   9.788   2.930   2.274  0.3416 -0.0522 -0.0101
19684W        W34815  17.433  13.835   7.009 -0.2447 -0.1458  0.0927
19685W        W34816  13.836  11.798  11.109 -0.0159 -0.1347 -0.1310
19686W        W34817  16.948   7.632  13.726 -0.0743  0.0786  0.1461
19687W        W34818   1.516  16.638   4.800  0.1184 -0.3246 -0.0869
19688W        W34819  16.514  12.715   0.508  0.2045 -0.1025  0.0652
19689W        W34820  10.595  11.426   1.439 -0.0014 -0.2152  0.1337
19690W        W34821  15.066  13.676   0.870  0.0897 -0.1003 -0.2587
19691W        W34822  12.736   8.321  13.962  0.0028  0.3042  0.0052
19692W        W34823   6.312   5.315   2.513  0.1075 -0.0365 -0.0455
19693W        W34824   7.169  15.853   3.705  0.0694  0.1747  0.1828
19694W        W34825  15.093   8.877   1.965  0.2893 -0.3169 -0.0513
19695W        W34826   0.066   0.008   5.440  0.0021  0.2474 -0.1194
19696W        W34827  16.683   7.573   2.130 -0.0680  0.0633 -0.3263
19697W        W34828   1.070  11.344  14.223  0.0890 -0.3083 -0.0062
19698W        W34829  11.541   6.712   3.735 -0.4482  0.0035  0.0245
19699W        W34830  16.534  12.989  12.540  0.0073  0.2684  0.0581
19700W        W34831  14.711   6.172   3.410 -0.0395  0.2793 -0.2486
19701W        W34832   0.395  14.355   3.811  0.2086 -0.1346  0.1340
19702W        W34833  14.527  14.984   3.134  0.1234 -0.4402  0.2568
19703W        W34834   3.957   1.873  11.908 -0.0071  0.0120  0.0653
19704W        W34835  11.170  13.029   5.648 -0.3738 -0.1453 -0.2796
19705W        W34836   7.598   5.088   1.211  0.0161 -0.1832 -0.0479
19706W        W34837  12.622  15.998   0.468 -0.3358 -0.1353 -0.2160
19707W        W34838   4.112   9.708  13.152  0.0097  0.2204 -0.0923
19708W        W34839  14.575   6.615   1.288 -0.1514 -0.1038 -0.0538
19709W        W34840   4.044   7.901  13.100 -0.0758  0.2661  0.0604
19710W        W34841   4.444   8.680   1.526 -0.1451  0.0333  0.0404
19711W        W34842   7.807  13.756  15.556 -0.0409 -0.0821  0.2560
19712W        W34843  10.369  16.069   3.185 -0.1314  0.1415 -0.3543
19713W        W34844  15.664  10.552  12.397  0.0981  0.3018 -0.0225
19714W        W34845  17.863   9.248   2.303  0.0704 -0.1879  0.0030
19715W        W34846  13.327  16.021   1.641 -0.1368 -0.0177  0.4622
19716W        W34847  11.229  13.900  13.687 -0.0195  0.0559  0.0992
19717W        W34848   5.751  14.866  15.661  0.0112 -0.1612 -0.1271
19718W        W34849   6.770  12.924  11.079  0.0544  0.0919 -0.1460
19719W        W34850   9.043   2.308  13.571 -0.0662  0.2072  0.1073
19720W        W34851   8.128   0.105   0.751 -0.1787  0.0189  0.0781
19721W        W34852   7.723   1.914  11.149  0.4775  0.1828  0.2825
19722W        W34853   6.419   4.513  11.563  0.3837  0.2162  0.1349
19723W        W34854  12.576   0.437   4.659 -0.2361 -0.0707 -0.1009
19724W        W34855  15.715   8.167  15.396 -0.0908 -0.2123  0.0261
19725W        W34856   3.901   1.717  12.467 -0.0249  0.1895  0.0301
19726W        W34857   8.824   4.059   2.046  0.0758 -0.2222 -0.0312
19727W        W34858   6.183   9.577   2.491  0.1149 -0.2753  0.0614
19728W        W34859  16.071  13.559   6.465  0.1952 -0.1733  0.2029
19729W        W34860   5.447  14.931  16.120  0.2531 -0.2212  0.1226
19730W        W34861   5.732  15.040  14.350 -0.0105  0.1021 -0.3083
19731W        W34862  14.281   9.282   1.395  0.0295 -0.1759  0.2036
19732W        W34863   4.095  15.912  12.905  0.0249  0.1698  0.2998
19733W        W34864   6.131   3.231   1.102  0.1399 -0.0485  0.0222
19734W        W34865  15.534  13.017  14.584  0.2235 -0.5119  0.0173
19735W        W34866  11.886  17.616  15.934 -0.0502 -0.2245  0.2026
19736W        W34867  13.714  11.993  14.732  0.1032 -0.1643  0.0578
19737W        W34868   1.397   0.672   3.404  0.3164  0.2385 -0.1562
19738W        W34869   0.612   2.048  13.247 -0.1372 -0.1132 -0.1382
19739W        W34870  10.607  11.449   3.896 -0.0839  0.1389 -0.1333
19740W        W34871  11.629   2.443  14.413 -0.2501 -0.1541 -0.1532
19741W        W34872   1.154   2.583   3.420 -0.2555  0.0352 -0.7176
19742W        W34873  10.122  11.461  11.174 -0.0569 -0.0201  0.2954
19743W        W34874   6.837   1.410   3.625 -0.1620  0.1085 -0.3105
19744W        W34875   1.405  14.831   0.059  0.0981  0.0588 -0.0131
19745W        W34876   8.404  17.704   1.675  0.0250  0.2007 -0.2864
19746W        W34877  13.848  15.621   1.995 -0.1888 -0.3662 -0.1508
19747W        W34878   4.993  10.000  13.214 -0.0287 -0.1753 -0.1321
19748W        W34879   3.839  15.845  15.976  0.0362  0.1645 -0.0795
19749W        W34880   7.033   4.641   5.953 -0.0362  0.0585 -0.1478
19750W        W34881  10.292  10.844   2.232  0.2037 -0.1724 -0.0684
19751W        W34882  13.002   0.112   3.963 -0.2090 -0.0711 -0.1146
19752W        W34883  14.637  17.700  12.404 -0.1084  0.1668  0.0034
19753W        W34884   3.528  12.024  11.582 -0.0744 -0.1148 -0.2065
19754W        W34885   2.139  11.700   4.909  0.2895  0.0338 -0.2046
19755W        W34886   7.137   9.999   2.771 -0.3908  0.0072  0.0647
19756W        W34887  14.696  14.060   5.162  0.2876 -0.0680 -0.2906
19757W        W34888  15.092   2.519   2.748 -0.0260  0.2754  0.0710
19758W        W34889   4.203   4.938  12.675  0.0733  0.0374 -0.1182
19759W        W34890   5.428   2.258  12.023 -0.3609 -0.0356 -0.0230
19760W        W34891   4.271  11.203  15.160 -0.1047  0.2094  0.0142
19761W        W34892   5.447   4.335  12.213 -0.1329  0.0330 -0.1106
19762W        W34893   7.567   4.142   4.089  0.1280 -0.2559 -0.0285
19763W        W34894  15.067  16.554   4.139  0.0172 -0.0728  0.1680
19764W        W34895  17.965  16.010  14.311 -0.1182 -0.0421  0.0322
19765W        W34896  11.503   9.002  14.508 -0.4665  0.0663  0.2594
19766W        W34897  13.876   4.155  12.570  0.0063 -0.2676 -0.0670
19767W        W34898   6.429   9.346   1.026 -0.2707  0.0301 -0.0792
19768W        W34899  14.506   3.523  12.085  0.0774  0.5030 -0.6669
19769W        W34900  13.916   8.309  12.994  0.1164 -0.0228  0.3216
19770W        W34901  15.888   3.243  15.593 -0.0507 -0.1970  0.0185
19771W        W34902  12.815   5.165   4.667  0.1020 -0.1121  0.3700
19772W        W34903   2.038  10.562  13.758 -0.0298 -0.0464  0.1553
19773W        W34904   0.456  13.066  14.478  0.0973  0.0597 -0.2015
19774W        W34905  15.682   1.552   0.552 -0.1269  0.2551  0.2199
19775W        W34906   6.603   2.807  14.838  0.2169 -0.1730 -0.1053
19776W        W34907   5.128  15.920  11.402  0.1520 -0.5273 -0.3112
19777W        W34908   5.323   7.734  13.107 -0.2875 -0.0505  0.0762
19778W        W34909   7.264   2.901   4.740 -0.0114 -0.0301  0.0103
19779W        W34910  14.484  13.746  12.393 -0.4165 -0.0433  0.2348
19780W        W34911   9.346  15.278   2.381 -0.0560  0.0096 -0.1783
19781W        W34912  12.005  15.631   0.202  0.1389 -0.0596  0.1897
19782W        W34913   8.697  13.351  15.029  0.1065  0.3110 -0.2054
19783W        W34914   5.697  12.085   2.715  0.1308  0.1975  0.1950
19784W        W34915  15.265  13.619  11.866  0.1480 -0.1699  0.0551
19785W        W34916   6.903  17.807   0.705  0.0624  0.0883 -0.1332
19786W        W34917  15.811  16.542   5.569 -0.0481  0.0142  0.1880
19787W        W34918  14.563  14.240  12.075 -0.0611 -0.0935 -0.2085
19788W        W34919   5.544  13.445  11.349 -0.3687 -0.0681 -0.5085
19789W        W34920  14.439  10.607  13.104  0.0936 -0.1714 -0.4195
19790W        W34921   7.585   0.003  13.350 -0.0589  0.3087 -0.2902
19791W        W34922   7.908  15.235  10.423 -0.0327 -0.3354 -0.2635
19792W        W34923  18.033  11.617   2.373 -0.1157  0.0208 -0.1598
19793W        W34924  10.425   4.944   0.755  0.2407  0.0011  0.0891
19794W        W34925  17.815   9.634  10.999 -0.2011 -0.0813 -0.1647
19795W        W34926   8.634  11.636  13.416 -0.2158 -0.1437  0.0161
19796W        W34927   4.083   3.966  11.429  0.3045 -0.0411 -0.0180
19797W        W34928   1.384   9.692  15.446 -0.0549 -0.1762 -0.0551
19798W        W34929  16.042  10.477   3.910  0.3234  0.0900  0.2351
19799W        W34930  13.707   4.988  12.156 -0.1173  0.1929  0.0970
19800W        W34931   7.076   3.506  13.459  0.1227  0.1073  0.2894
19801W        W34932  15.096  10.059   0.348  0.0493  0.0059 -0.1985
19802W        W34933  13.330   7.838   5.075 -0.1824 -0.2443 -0.0059
19803W        W34934   0.143   1.221   2.758  0.3531  0.2303  0.2068
19804W        W34935   9.403   9.445   0.331 -0.0639 -0.1953 -0.1694
19805W        W34936  15.827   6.592  12.228 -0.2099  0.2243 -0.1321
19806W        W34937   9.145   1.697   1.300  0.0376  0.0500 -0.0662
19807W        W34938   7.297   8.006   2.291  0.0589 -0.0555 -0.0110
19808W        W34939   5.114   3.991   2.394 -0.0824 -0.1147 -0.0893
19809W        W34940   6.100  11.995  13.201  0.1040  0.2009  0.2514
19810W        W34941   3.262   9.654   2.286 -0.2232 -0.0119  0.0446
19811W        W34942   7.639  14.188  14.202  0.2455  0.2470  0.2297
19812W        W34943  15.226  17.409  11.762  0.1261 -0.2184  0.0113
19813W        W34944  11.920   7.747  16.011 -0.0938 -0.1741  0.0742
19814W        W34945   2.049  12.399  15.419 -0.0974  0.0147 -0.1830
19815W        W34946   1.565   6.414   3.471  0.0058  0.0314 -0.0038
19816W        W34947   2.814   8.862   4.873  0.0787  0.1933 -0.0833
19817W        W34948  10.785   5.898   1.157 -0.2848  0.1402  0.0467
19818W        W34949  12.477  13.678   3.522  0.2834 -0.0756 -0.0601
19819W        W34950  18.110  16.470   6.038  0.4918 -0.2694  0.0654
19820W        W34951   2.765  18.064  12.965  0.0199 -0.3298 -0.1973
19821W        W34952   8.970  15.734  14.035 -0.0880  0.0302 -0.1622
19822W        W34953   6.906  11.669   3.603  0.0439  0.1521 -0.0006
19823W        W34954   1.460  12.879  10.423 -0.1206 -0.2030  0.0335
19824W        W34955   0.375   0.942   2.348 -0.0722 -0.1580  0.0678
19825W        W34956  12.832   7.678  12.627  0.0251  0.0683 -0.1738
19826W        W34957  17.166   4.569  13.145  0.0357 -0.1778 -0.0409
19827W        W34958  10.266   4.302   3.265  0.1869 -0.3899  0.1461
19828W        W34959   8.943   0.995  14.832 -0.0785  0.1405  0.2028
19829W        W34960  16.862   3.287  15.322 -0.0026  0.3161 -0.1451
19830W        W34961  16.207  16.846   0.721  0.1046  0.1057  0.1699
19831W        W34962  11.136   9.309   2.005  0.0494 -0.0406  0.0930
19832W        W34963   3.821  14.142   3.034 -0.1376 -0.2463  0.1775
19833W        W34964   2.244   0.091  14.445 -0.1757 -0.2550  0.0887
19834W        W34965  17.152  10.603   2.396  0.1201 -0.1104  0.0239
19835W        W34966  16.919   5.174   0.165 -0.0931  0.1691  0.0548
19836W        W34967   4.629   9.112   1.482  0.0563  0.1052 -0.1403
19837W        W34968   0.794  12.800  11.331  0.1478 -0.0186  0.1241
19838W        W34969  10.862  11.923   2.361  0.3265  0.0304  0.2339
19839W        W34970   5.588   1.943   0.968  0.1401  0.1556 -0.1588
19840W        W34971  17.211   1.243   1.277 -0.0076 -0.1615  0.2723
19841W        W34972   4.319   4.443  14.653  0.0672  0.1001  0.0048
19842W        W34973  13.423   0.306  14.066  0.1279  0.1872  0.0553
19843W        W34974  15.976   4.904   3.225 -0.1555  0.0876 -0.0574
19844W        W34975  14.478  11.387   1.396  0.1798  0.1684  0.4081
19845W        W34976   4.189   4.806  15.554 -0.0064  0.2900 -0.2405
19846W        W34977   5.632  12.100   1.783  0.1139 -0.1858  0.0279
19847W        W34978   6.572   0.590   5.590  0.0113 -0.4949  0.1514
19848W        W34979   6.629   8.011  14.463  0.1820  0.1851  0.0941
19849W        W34980   2.389  16.100  14.280  0.0433  0.0351  0.3066
19850W        W34981   9.753   7.518  11.691  0.0799 -0.0365 -0.1174
19851W        W34982   8.418  14.341  15.101 -0.1269  0.1132  0.0828
19852W        W34983  10.981   1.805   1.005 -0.0578  0.1367 -0.1724
19853W        W34984   8.549   6.990   4.595  0.0381 -0.0469  0.1267
19854W        W34985   3.076   4.398  13.061 -0.3206  0.1665 -0.1632
19855W        W34986   4.063  15.709   1.407  0.0311 -0.0192 -0.1860
19856W        W34987   8.288  16.201  12.784  0.1288  0.0744  0.1075
19857W        W34988  13.682   4.451   4.371 -0.1735  0.2404 -0.1538
19858W        W34989  15.858  15.212   1.475  0.0795  0.3965 -0.1321
19859W        W34990  13.164   6.420   2.641 -0.0175  0.0070  0.3022
19860W        W34991   8.938   9.951   5.138 -0.5181  0.3102 -0.0573
19861W        W34992  16.999   7.280   0.896  0.0850 -0.2400 -0.1375
19862W        W34993   7.494   2.082  10.156 -0.3087 -0.2558 -0.1566
19863W        W34994   8.642   4.452   4.650 -0.0446  0.0914  0.1397
19864W        W34995   2.716  17.548  10.928  0.0732  0.0385  0.3063
19865W        W34996   3.460   2.311  15.759 -0.0916 -0.1904 -0.1954
19866W        W34997   6.054  10.198   1.590 -0.1918 -0.0338  0.1222
19867W        W34998  14.643   2.896  16.039 -0.0473  0.2352 -0.0550
19868W        W34999   7.354   2.066  16.137  0.1117  0.1495 -0.1174
19869W        W35000   0.654  14.209   4.666  0.0706  0.0231 -0.1404
19870W        W35001   4.906   7.619  10.265  0.1276 -0.1249  0.1709
19871W        W35002   4.508  14.829   5.286 -0.0153 -0.1397  0.2759
19872W        W35003  14.681  11.507  13.144 -0.1905 -0.1060 -0.0390
19873W        W35004   2.467   1.496   4.435  0.4957 -0.2013 -0.0522
19874W        W35005   8.985  15.550   0.074  0.0365 -0.3041 -0.1469
19875W        W35006  12.930   1.742  13.789 -0.1146  0.4588  0.0103
19876W        W35007   2.124   2.895  10.145 -0.0981  0.2271  0.0554
19877W        W35008   2.465  17.502   2.686 -0.3741  0.1261 -0.1004
19878W        W35009  17.043  16.802   3.659  0.0606  0.0243 -0.0324
19879W        W35010   2.378  18.150   5.245 -0.1190  0.2316  0.0112
19880W        W35011   3.635   7.255   4.616 -0.2024 -0.2245 -0.0973
19881W        W35012  15.591   5.381  14.825  0.2160 -0.0541  0.1299
19882W        W35013   3.824   0.422  10.315 -0.3859  0.3033 -0.1600
19883W        W35014  13.779  13.060  12.172 -0.1014  0.0213 -0.3290
19884W        W35015   8.616   5.680  14.189  0.0765 -0.0381  0.1022
19885W        W35016  13.938  13.344   5.163 -0.0344  0.1164 -0.1745
19886W        W35017   7.455  14.090  11.638 -0.1047  0.0711  0.0572
19887W        W35018   8.374  11.855   1.812  0.0576  0.0178  0.1733
19888W        W35019   3.319  13.859  15.307 -0.3411 -0.3691  0.1417
19889W        W35020   8.841   6.819  11.482 -0.0449 -0.2402 -0.3453
19890W        W35021  10.216  17.065  12.880  0.1548  0.0558  0.1068
19891W        W35022   6.706  12.889  13.746 -0.2882  0.0677 -0.0204
19892W        W35023   7.864   2.318   3.012  0.1009 -0.0398 -0.0562
19893W        W35024  10.945   5.577   3.692  0.0779  0.0676 -0.3502
19894W        W35025  13.309   6.203   3.609  0.0736  0.2519 -0.1212
19895W        W35026   9.129   1.800   5.020 -0.0952  0.3814 -0.0059
19896W        W35027  11.855   6.527   1.478 -0.2063  0.0929 -0.0240
19897W        W35028  13.637   4.191  10.841  0.2408 -0.0947 -0.1261
19898W        W35029   8.053  14.496  14.329 -0.0930 -0.1049  0.0963
19899W        W35030  13.561   8.681  14.558  0.0727 -0.0266  0.1012
19900W        W35031  13.763  14.513   0.065 -0.3053 -0.0724 -0.0376
19901W        W35032  10.508  14.939  14.426 -0.0009  0.3369  0.1210
19902W        W35033   5.980   5.138  14.065  0.3745 -0.1123  0.1066
19903W        W35034  17.292  16.832  12.754 -0.1612 -0.0532  0.2045
19904W        W35035   3.384  13.490   0.153 -0.0575  0.3696  0.2879
19905W        W35036  13.872  15.076   4.367  0.1644 -0.1291  0.0378
19906W        W35037   8.066   6.145   0.139 -0.1511  0.2357 -0.1933
19907W        W35038   0.924  12.814  13.650 -0.0742  0.0461 -0.1634
19908W        W35039   5.257   5.437  14.291  0.1636 -0.0858  0.0192
19909W        W35040   7.388  15.273  10.810  0.1755 -0.2263  0.0112
19910W        W35041  12.768  15.978  15.057  0.0921  0.1519 -0.0435
19911W        W35042  13.476  14.014  11.204  0.1141  0.2529 -0.0149
19912W        W35043   2.788   8.147  11.641  0.2088  0.0799 -0.1132
19913W        W35044   9.103   0.505  16.028  0.1597  0.0962  0.0314
19914W        W35045   2.164   1.482   0.169  0.0759 -0.2556 -0.1130
19915W        W35046   2.225  11.406   0.333 -0.0473  0.2238 -0.2451
19916W        W35047  10.867   3.046   3.251  0.1417  0.2573  0.3049
19917W        W35048   1.689  13.627   3.005  0.1165 -0.3202 -0.1163
19918W        W35049   2.695  14.904  15.955 -0.0034 -0.1557  0.2770
19919W        W35050   8.925   9.562  11.255 -0.1429 -0.2368  0.0045
19920W        W35051  14.171  10.447   0.385  0.3610  0.0284  0.0629
19921W        W35052   4.934  11.759   3.270 -0.1731 -0.1096  0.1978
19922W        W35053   2.104   8.855   2.749  0.0087  0.1001 -0.2194
19923W        W35054  17.129  13.875   4.151 -0.0598 -0.0689  0.2477
19924W        W35055  16.101   7.928  14.042  0.0827  0.0724 -0.3451
19925W        W35056   7.182   4.064   2.070 -0.1102  0.1603 -0.0933
19926W        W35057  16.717  12.056   6.195  0.3010 -0.0383  0.2449
19927W        W35058   8.166   1.920  15.957  0.1064  0.2743  0.3295
19928W        W35059  15.264   8.873  13.527  0.0536  0.2392  0.0003
19929W        W35060   4.469  11.924   4.400 -0.2291 -0.0881  0.2221
19930W        W35061  17.528   3.295   3.208 -0.0663  0.0710 -0.0270
19931W        W35062   3.887  12.856  11.094 -0.3699 -0.0175 -0.2010
19932W        W35063  14.230   1.683   2.026 -0.1642  0.0621  0.0943
19933W        W35064  13.347  10.205   1.445  0.2003 -0.0699  0.1901
19934W        W35065  17.789  16.788   4.776 -0.0711  0.0622  0.1094
19935W        W35066   3.888   0.848   5.201  0.0166 -0.1174 -0.0699
19936W        W35067  15.495  17.839   5.210  0.4243 -0.1844  0.1765
19937W        W35068  12.958  16.611  15.701  0.1788 -0.0358 -0.1858
19938W        W35069  12.032   4.767  11.887  0.0079 -0.1272 -0.3320
19939W        W35070   0.090  16.228  15.610 -0.1102  0.1453  0.3390
19940W        W35071  15.747  16.342   4.637  0.0136  0.4025  0.3982
19941W        W35072  17.556   5.228   5.342  0.2503  0.1651 -0.0040
19942W        W35073   2.948  10.462   1.152 -0.1367  0.0916 -0.2324
19943W        W35074   0.837   7.645   4.086 -0.2512  0.0822 -0.0143
19944W        W35075  13.658  10.974  16.020 -0.0305 -0.2252  0.1773
19945W        W35076   9.936  11.772  13.277 -0.4167 -0.1859  0.0273
19946W        W35077   5.069   8.555  11.038 -0.1044 -0.1701  0.1832
19947W        W35078   9.806   9.783  10.792 -0.2859  0.0179 -0.1945
19948W        W35079   4.560  17.346   2.806 -0.0661 -0.0564 -0.1023
19949W        W35080   3.212  14.837   6.107  0.2656  0.0349  0.0549
19950W        W35081   7.838  11.703  16.154 -0.1750 -0.3092 -0.1539
19951W        W35082  11.759  18.082   3.045  0.0489 -0.1734  0.1305
19952W        W35083   6.667   0.979   3.987 -0.1803 -0.1593 -0.0560
19953W        W35084   1.895  16.875  14.386  0.1076  0.0849  0.1381
19954W        W35085   4.811   7.085  12.892 -0.0681  0.0295  0.1240
19955W        W35086   5.216  10.862   4.060  0.0037  0.1744 -0.0496
19956W        W35087  11.297  12.906   3.160  0.0598  0.2813 -0.0679
19957W        W35088   3.931   4.655  14.347  0.2028 -0.3213 -0.0980
19958W        W35089  16.944  14.535  14.993 -0.1140  0.2207 -0.0908
19959W        W35090  15.922  15.109   3.521 -0.0444 -0.2695  0.2702
19960W        W35091   2.786   3.016  14.497 -0.3558  0.1616 -0.1144
19961W        W35092   5.113  17.561  12.972 -0.2567 -0.1747 -0.2073
19962W        W35093  10.378  12.325  13.760 -0.1219  0.0082  0.2644
19963W        W35094  14.559   8.174  16.225 -0.0888  0.3511  0.2186
19964W        W35095  10.942  17.921  15.038  0.2857  0.1163  0.1661
19965W        W35096   6.246   4.726   0.735 -0.1477 -0.0306 -0.1274
19966W        W35097   2.048  14.098   5.810  0.0239  0.0962 -0.2253
19967W        W35098   3.395  17.832   3.211  0.2577  0.0228 -0.1290
19968W        W35099  14.873   7.778  14.719 -0.1533  0.3996 -0.0591
19969W        W35100   4.090   3.238  16.234  0.0984 -0.1248 -0.0776
19970W        W35101   1.848   3.474   4.552 -0.2468  0.1685 -0.0408
19971W        W35102   9.602  16.907  13.546 -0.0655 -0.0197  0.0252
19972W        W35103  13.037   0.779  13.849 -0.1386  0.0835  0.1774
19973W        W35104   4.940  13.871   1.814 -0.2231 -0.0830  0.0870
19974W        W35105   1.624   4.630  10.922 -0.0069  0.1567  0.1441
19975W        W35106   9.155   1.247   2.811  0.2001 -0.0428 -0.1882
19976W        W35107   3.672  15.830   6.251 -0.0630  0.1013  0.0933
19977W        W35108  14.559   0.865   1.883  0.2523  0.1566 -0.3924
19978W        W35109  18.130   1.172  12.589  0.0046 -0.1791 -0.2248
19979W        W35110  10.324  14.377   4.019 -0.1944 -0.4103  0.3388
19980W        W35111  12.129  11.856  13.588  0.2457  0.0821  0.1428
19981W        W35112   1.983   1.733   4.682  0.0541 -0.0685  0.1610
19982W        W35113  11.941  12.946  14.877  0.2296 -0.2782  0.2402
19983W        W35114  13.332  12.323  13.834 -0.0265  0.4144 -0.0301
19984W        W35115  11.963   3.642   4.477 -0.0387 -0.0748 -0.1606
19985W        W35116   7.687  15.594   1.815  0.3144 -0.0945  0.0298
19986W        W35117  15.466  15.026  11.808  0.1296  0.1310  0.1492
19987W        W35118  13.637   8.382   2.853  0.1106 -0.1289  0.0577
19988W        W35119   9.901  10.991  11.144  0.0859  0.0500  0.0467
19989W        W35120  10.825   9.323   5.556 -0.1944 -0.0183 -0.0411
19990W        W35121   0.012   0.171  11.946  0.2303 -0.0542 -0.0027
19991W        W35122   1.653   7.995  11.652 -0.1379  0.0061 -0.0811
19992W        W35123  16.318   0.854  12.721  0.7811 -0.2948  0.1237
19993W        W35124  10.942  17.335   0.431  0.2626 -0.0155  0.2250
19994W        W35125   0.028   1.395  14.308  0.0851  0.2833  0.0701
19995W        W35126   9.923   6.827  13.521  0.1792 -0.0089 -0.1201
19996W        W35127   2.902  14.519  13.247  0.1067  0.0846  0.0465
19997W        W35128  13.690  12.963  13.201 -0.1480  0.3309  0.0846
19998W        W35129   8.526   5.688  16.179 -0.2521  0.1304  0.1295
19999W        W35130   8.862  15.302   3.338 -0.1183 -0.0995  0.0776
20000W        W35131   7.338  12.031  12.733  0.2145  0.1052 -0.1670
20001W        W35132   0.855   6.757   4.639 -0.0369  0.0586  0.0618
20002W        W35133  15.948  11.591   1.816  0.1159  0.0637  0.2003
20003W        W35134   4.302  10.560   2.271  0.2118 -0.2538 -0.0462
20004W        W35135   9.645  17.474   3.471  0.3475  0.0576 -0.0094
20005W        W35136  11.602   6.129  12.405  0.1208 -0.2007  0.0974
20006W        W35137  14.441   5.755  14.937 -0.1566  0.1089  0.1069
20007W        W35138  13.791  14.330   2.034 -0.3509 -0.6340  0.4706
20008W        W35139  14.635  14.414  14.909 -0.0922  0.1477 -0.1039
20009W        W35140  17.170  16.927   2.347  0.1836 -0.1883 -0.0717
20010W        W35141   4.255   1.753  10.875  0.0613  0.0210 -0.0671
20011W        W35142  12.580   4.861   1.503  0.4079 -0.1672 -0.1966
20012W        W35143  12.086  12.830  11.344  0.0009  0.1618  0.0574
20013W        W35144  13.042  11.633   4.010  0.0874 -0.0511  0.0402
20014W        W35145  10.228   5.797  12.048  0.3382 -0.0333 -0.1705
20015W        W35146   6.579  11.072  14.118 -0.1840  0.0635 -0.0569
20016W        W35147   2.658  16.760  13.742  0.0486  0.0019  0.2155
20017W        W35148  16.278   4.138  12.867 -0.0981 -0.1275 -0.0303
20018W        W35149   6.142   0.407  14.253 -0.1100  0.3431  0.0471
20019W        W35150   8.250   9.924  13.334  0.1515 -0.1436  0.1629
20020W        W35151   6.953  14.379  15.392 -0.0154  0.0213 -0.0835
20021W        W35152   1.075   4.148  14.532 -0.3338  0.0637  0.1382
20022W        W35153  12.500   4.068   2.728  0.0078  0.1531  0.1836
20023W        W35154  18.171   4.153   5.741  0.3442  0.3067  0.2103
20024W        W35155  13.454  17.371  13.108 -0.0303  0.2968 -0.0185
20025W        W35156   7.079   5.754   1.756 -0.2359  0.3477  0.1980
20026W        W35157   7.177  11.163  15.610  0.1827  0.1723  0.4059
20027W        W35158   5.028  14.883  12.929 -0.1616  0.0838 -0.3182
20028W        W35159  16.479   8.308  14.209  0.0887 -0.2072 -0.0981
20029W        W35160  13.026   0.689   1.451 -0.2615 -0.4804 -0.1538
20030W        W35161   7.354   0.174   1.330  0.0362  0.2933 -0.3503
20031W        W35162   5.517  15.814   5.146  0.1693 -0.1890 -0.0076
20032W        W35163  16.765   2.399   4.289  0.0002 -0.5665 -0.0572
20033W        W35164  15.905   2.839   1.024 -0.0594 -0.0168  0.0255
20034W        W35165   3.300  10.724  11.445  0.2527  0.1484  0.0220
20035W        W35166   4.792  16.325  11.558 -0.0939  0.0370 -0.0835
20036W        W35167   3.145   7.759  11.739  0.0856 -0.0309  0.1801
20037W        W35168   4.068   2.912   1.475 -0.0223  0.2925 -0.0858
20038W        W35169   9.759   9.632   2.267  0.1764  0.0413 -0.1248
20039W        W35170  13.710   5.740  15.724 -0.2946 -0.2137 -0.1450
20040W        W35171   9.111  13.538   4.782  0.1349  0.0994  0.0163
20041W        W35172   8.405   6.268  13.889  0.0262  0.0684  0.3015
20042W        W35173   4.675   6.256  12.447  0.1586  0.0301 -0.2414
20043W        W35174   0.143   0.863   0.829 -0.0533  0.2093 -0.1782
20044W        W35175  17.528  17.417   0.850 -0.1267 -0.2651 -0.0130
20045W        W35176  18.071   0.173   4.070  0.0994 -0.1090  0.0572
20046W        W35177  15.483   1.237   3.847 -0.3909  0.0716  0.1319
20047W        W35178   8.918  12.077  15.642  0.1861  0.1353  0.1411
20048W        W35179  10.016   0.650   3.196  0.0962  0.0187 -0.3205
20049W        W35180   4.931   5.469   4.320 -0.0513 -0.0333 -0.2407
20050W        W35181  14.106   9.775   4.533  0.0215 -0.0550 -0.0146
20051W        W35182  15.347   6.951   0.068 -0.0848 -0.0692  0.0467
20052W        W35183  10.030   0.163   5.442 -0.1976  0.1185 -0.0529
20053W        W35184  17.759  13.439   1.606  0.1138 -0.1816  0.1464
20054W        W35185   9.434  14.268   3.665  0.1673  0.0576 -0.0809
20055W        W35186   5.867   7.840   3.210 -0.1038  0.1988  0.2231
20056W        W35187   7.958  15.079   3.976 -0.0135  0.3626 -0.1357
20057W        W35188   4.384   9.128  11.785  0.0202  0.0678 -0.0557
20058W        W35189   6.562  10.590  13.815 -0.0710  0.2369 -0.0077
20059W        W35190   5.990   5.370  12.640  0.0909 -0.1550 -0.0882
20060W        W35191   7.979  16.256   2.087 -0.1677 -0.0284 -0.2189
20061W        W35192   9.218  11.905  14.562  0.3269 -0.0414  0.2183
20062W        W35193   7.351  17.505  15.105  0.1793 -0.0550  0.2282
20063W        W35194   1.281  11.224   2.264 -0.3034 -0.0451 -0.0456
20064W        W35195  11.007   7.926   2.557  0.1693 -0.2563  0.1342
20065W        W35196   1.902  15.353  12.729 -0.0940  0.2329 -0.1550
20066W        W35197   9.287   4.182  13.225  0.0035  0.1636  0.0858
20067W        W35198  14.836  15.882   4.170  0.1872  0.4266 -0.2244
20068W        W35199  14.940  11.166   3.224 -0.0018 -0.1411  0.0056
20069W        W35200   2.331   0.405   1.763 -0.0727 -0.1740 -0.0590
20070W        W35201  14.656  17.666   0.753  0.0081  0.1543  0.1925
20071W        W35202  17.395  17.214  12.228  0.0797  0.0527 -0.3938
20072W        W35203  15.264  13.498  15.678 -0.2530 -0.1061  0.1444
20073W        W35204  17.688  13.013   1.326  0.2603 -0.2341  0.2960
20074W        W35205   4.037   8.555  10.881  0.1166  0.3526 -0.2254
20075W        W35206   3.839   4.972  13.011  0.3127 -0.1376 -0.2335
20076W        W35207   1.783   8.761   1.756 -0.1838  0.2059  0.4189
20077W        W35208   9.766   3.578  11.563 -0.1102 -0.1753 -0.0091
20078W        W35209  15.673  11.826  13.880  0.0667  0.0027  0.3922
20079W        W35210  13.323   5.524   3.881 -0.3149 -0.1250 -0.0240
20080W        W35211   6.127  10.833   2.145  0.0758 -0.0440 -0.0561
20081W        W35212   9.607   4.113  13.608 -0.1613 -0.1268 -0.0845
20082W        W35213  14.651  12.842   2.039  0.4113  0.1350 -0.1588
20083W        W35214  15.999  16.276   4.116 -0.0852 -0.0707 -0.1333
20084W        W35215  15.186   6.601   0.488  0.2682 -0.0379  0.0239
20085W        W35216  12.698  12.508   0.128 -0.2444  0.0557 -0.1427
20086W        W35217   9.006   9.220  15.600 -0.0977  0.1056  0.2630
20087W        W35218   2.824  15.938  15.150  0.1720 -0.0865  0.1561
20088W        W35219   5.947   3.911   2.924 -0.2690  0.0114  0.1639
20089W        W35220   9.446  15.927   3.480 -0.2391  0.0946 -0.2463
20090W        W35221  16.572  17.115   5.038  0.0253 -0.0796  0.0442
20091W        W35222  16.075   5.307   0.633 -0.0315 -0.3578  0.1309
20092W        W35223  10.594  10.135   4.259 -0.6033  0.0011  0.1535
20093W        W35224   3.293   3.757  11.301  0.0291  0.0355  0.0085
20094W        W35225   3.693  17.020   0.856  0.0689  0.1345  0.1038
20095W        W35226   0.366   7.346   2.944  0.0916 -0.0103  0.0627
20096W        W35227  14.492  12.310   1.389 -0.3136  0.0603 -0.3498
20097W        W35228  10.983  10.144   2.512 -0.2068 -0.2799  0.2903
20098W        W35229   1.436   7.133  13.668 -0.0955  0.0454  0.0450
20099W        W35230   3.867  10.589  12.609 -0.0702  0.0346  0.0414
20100W        W35231  14.293   0.351  14.171 -0.0950  0.2279  0.0046
20101W        W35232  13.496  15.789  13.497  0.1817  0.2133  0.2529
20102W        W35233  14.330  14.652  14.556  0.2515 -0.1128 -0.2035
20103W        W35234  11.183   7.170  15.809  0.2758 -0.0888 -0.0918
20104W        W35235   0.628  13.652   4.663  0.1520 -0.2879 -0.1281
20105W        W35236   2.770  12.018  12.806  0.1786 -0.0370  0.0614
20106W        W35237   6.468  14.843  14.275 -0.0276  0.0437 -0.2426
20107W        W35238   2.956  16.637   1.673  0.0928  0.2931  0.4601
20108W        W35239   6.695   2.692  13.146 -0.3370 -0.1879 -0.1995
20109W        W35240   0.297  11.097   3.183 -0.0940  0.0899 -0.1502
20110W        W35241   1.525   1.584  12.939 -0.0784 -0.2105  0.1637
20111W        W35242   8.095   8.813  15.690  0.0065  0.0535 -0.0499
20112W        W35243   7.801  11.057  11.939  0.0811 -0.1097  0.1599
20113W        W35244   5.163  17.363   0.724 -0.1644 -0.1386  0.0551
20114W        W35245   4.531   9.637   3.368  0.0210 -0.1979  0.2520
20115W        W35246   2.012  13.785   4.863 -0.0341 -0.0391  0.1205
20116W        W35247   5.611   7.666  14.215  0.1288  0.3333 -0.2833
20117W        W35248  12.330   4.014   4.413  0.1255 -0.1605  0.2808
20118W        W35249  11.451  11.558  11.364  0.3406  0.1505 -0.1594
20119W        W35250  16.100  11.002   4.047  0.0474 -0.0391 -0.0063
20120W        W35251   1.669   6.566   0.766  0.0882  0.0369 -0.0208
20121W        W35252   0.891   1.591   0.891 -0.0113  0.1299  0.0117
20122W        W35253  15.493   0.568  15.353  0.3149  0.0168  0.4478
20123W        W35254  17.459   0.592  13.729  0.5039 -0.2442 -0.0728
20124W        W35255   5.741   6.697  12.515  0.1199 -0.2907  0.0706
20125W        W35256  14.980   6.625  12.403  0.0158 -0.0980 -0.0528
20126W        W35257  17.221   2.298  13.938  0.0632 -0.3158 -0.1132
20127W        W35258   9.516   9.131  12.953 -0.0815  0.0398  0.1124
20128W        W35259   8.319  15.174  10.679  0.0563 -0.1229  0.1108
20129W        W35260  18.091   3.482  16.120  0.0233  0.0687 -0.0196
20130W        W35261   5.688   8.127  10.327 -0.2089  0.1492 -0.4405
20131W        W35262  12.343   1.362   2.167 -0.0551 -0.1512 -0.2853
20132W        W35263   5.378   2.241  16.173 -0.0064 -0.0981 -0.2222
20133W        W35264   0.857  15.364   3.793 -0.4161  0.0674 -0.1075
20134W        W35265  11.866  15.097   4.889 -0.1220 -0.1871  0.1608
20135W        W35266  13.254   4.699   4.197  0.3314 -0.1217 -0.0648
20136W        W35267   3.705  16.440   3.393 -0.3336  0.0745  0.5395
20137W        W35268  14.519   7.962   4.227  0.4911  0.1918  0.0037
20138W        W35269  17.105   8.179  11.676  0.0331 -0.0769  0.1182
20139W        W35270  10.589  10.052   6.177  0.2057  0.0503  0.1752
20140W        W35271   6.526  17.738   4.161  0.3126 -0.0015  0.1257
20141W        W35272   0.780   0.059  14.464 -0.0946 -0.1112 -0.0276
20142W        W35273  16.839   5.995  11.271 -0.2072 -0.0960 -0.0947
20143W        W35274  10.906   2.994   1.077 -0.2656  0.1374  0.1441
20144W        W35275  11.444   4.431   4.385  0.0531 -0.1900  0.0265
20145W        W35276  13.585  16.028  12.588  0.0358 -0.1393  0.0511
20146W        W35277   0.014  15.892   1.619 -0.0446  0.0536 -0.0259
20147W        W35278   4.973   1.880   4.942  0.1165  0.1428 -0.0209
20148W        W35279   6.257  14.988   3.875  0.1140  0.2442  0.2818
20149W        W35280   0.564   8.492   0.004 -0.0351  0.0793  0.0084
20150W        W35281  18.105   9.510   4.114 -0.3470 -0.0351 -0.1881
20151W        W35282   3.361   0.308  16.102 -0.1840  0.2393 -0.2393
20152W        W35283   7.968   7.044   0.163 -0.4106 -0.1056 -0.1284
20153W        W35284   8.373   2.928   4.776 -0.0512 -0.0233 -0.0748
20154W        W35285  14.802  12.815  15.837 -0.1422 -0.0016 -0.0802
20155W        W35286  16.531   5.041  13.848 -0.0711 -0.1117  0.5144
20156W        W35287   9.640   4.021  11.783  0.0409  0.0289 -0.0843
20157W        W35288   8.974  11.674   1.009  0.0911 -0.2239  0.0068
20158W        W35289  15.941   0.460  10.830 -0.0016  0.3166  0.0412
20159W        W35290   3.024   0.197   0.302  0.0766  0.1664 -0.0134
20160W        W35291   4.809   5.992   5.610  0.0349  0.0610 -0.1743
20161W        W35292   7.043   7.953  15.788 -0.1939  0.1612 -0.1994
20162W        W35293  15.195   2.338  11.415 -0.2461 -0.0097  0.0988
20163W        W35294   7.834  12.071   2.493  0.0041 -0.3632 -0.0860
20164W        W35295  11.963   9.532   4.555  0.1123  0.0161 -0.0665
20165W        W35296  13.472  16.254   6.180  0.0069  0.1300  0.2699
20166W        W35297  13.649  16.098  15.744  0.2489 -0.0761  0.0703
20167W        W35298  15.675   7.443  10.958 -0.1848 -0.2663  0.1485
20168W        W35299  17.263  15.499   5.490  0.0755 -0.2297  0.0652
20169W        W35300   5.194   4.067  10.842 -0.2768  0.1716  0.0772
20170W        W35301  14.775  12.103  11.061  0.0997  0.1586  0.1885
20171W        W35302   1.928   2.806   3.083  0.1573 -0.1886  0.2129
20172W        W35303   7.490  12.830   0.369 -0.1042  0.2688  0.0939
20173W        W35304  15.658  15.515   0.507  0.3335  0.1744  0.2091
20174W        W35305  17.618   5.224  13.397  0.0477 -0.3495 -0.0045
20175W        W35306   7.650  18.119  13.874 -0.2015  0.0081 -0.2436
20176W        W35307   8.671  11.804  14.472  0.0826 -0.0769  0.1128
20177W        W35308  12.391  15.277  15.567 -0.3509  0.0147 -0.1041
20178W        W35309  17.854  12.567  10.244 -0.3552  0.1912  0.1098
20179W        W35310  10.026  14.847   1.064  0.2136  0.0717  0.0472
20180W        W35311   4.496   6.865   1.350 -0.0037 -0.0058 -0.0668
20181W        W35312  13.570   0.461   2.748  0.3289 -0.0469 -0.1464
20182W        W35313   9.354   3.479  11.233  0.1422  0.0975 -0.1294
20183W        W35314  14.606   4.794   4.111  0.1192 -0.0016  0.1243
20184W        W35315  17.820  17.379  14.547  0.1554  0.3169  0.0947
20185W        W35316   4.820  15.373   0.864 -0.2194  0.0774  0.0702
20186W        W35317  15.215  11.704   1.235  0.3046  0.0648  0.1586
20187W        W35318   3.005  14.686   1.170  0.0829  0.1804 -0.1190
20188W        W35319  10.772   4.262  16.054  0.1326 -0.1654  0.1441
20189W        W35320   4.331  10.088   1.538  0.0669  0.1207 -0.2540
20190W        W35321   4.261   1.434  12.196 -0.1783 -0.1447  0.0539
20191W        W35322   7.180  17.565  14.234  0.0739 -0.0059 -0.0619
20192W        W35323  11.292   3.983   6.200 -0.0657 -0.1847 -0.2051
20193W        W35324   3.073   3.739  15.754 -0.1478 -0.0009 -0.0962
20194W        W35325  11.654   5.946  13.617  0.4475 -0.2660 -0.0611
20195W        W35326   0.968  15.800   1.399  0.0446  0.2904 -0.1383
20196W        W35327  13.761  12.515   0.846 -0.1340 -0.0203  0.1328
20197W        W35328  16.384   7.617  15.897  0.0459  0.3474  0.1885
20198W        W35329  14.440   4.184   5.005 -0.2491  0.5200 -0.0180
20199W        W35330   6.025   8.797  10.954 -0.0909  0.1602 -0.0171
20200W        W35331  14.175  13.972   0.454 -0.0810  0.1155  0.2682
20201W        W35332  10.234   8.234  11.464  0.5868 -0.0594 -0.1799
20202W        W35333  17.799   8.900  15.582 -0.1725  0.0991  0.2019
20203W        W35334  17.242   7.274   4.169 -0.4736 -0.0687 -0.2393
20204W        W35335   8.824   3.573   5.679  0.2146  0.0443  0.4545
20205W        W35336  14.626   3.064   4.067  0.0777 -0.0047  0.0573
20206W        W35337  15.371  13.157   4.031 -0.0859 -0.1290  0.1611
20207W        W35338  11.614   9.084   5.367  0.1675 -0.1018  0.2855
20208W        W35339  13.335  13.012  11.402  0.0011 -0.1470  0.1246
20209W        W35340   4.192   4.534   3.026 -0.1290  0.0705 -0.2414
20210W        W35341  11.211   7.506  10.867  0.1062  0.3147  0.0613
20211W        W35342   7.862  13.373   4.742  0.0808  0.0915  0.4319
20212W        W35343  14.392  13.096   0.559 -0.3581  0.2239 -0.0360
20213W        W35344   8.743  13.678  12.348 -0.2362  0.0770 -0.0287
20214W        W35345   0.557  17.170   0.195  0.2541 -0.0938  0.0690
20215W        W35346  17.366  10.938  11.700 -0.0939 -0.0932  0.1405
20216W        W35347   4.996  18.059  10.675 -0.3607  0.0917 -0.0221
20217W        W35348   2.306   9.280  11.085 -0.2976 -0.3014  0.1829
20218W        W35349  11.095  12.951   2.407  0.1684  0.0237  0.0291
20219W        W35350  10.331   6.979   5.903 -0.0939  0.0958 -0.3686
20220W        W35351  16.002  16.298  13.905  0.1644  0.1486  0.1071
20221W        W35352  13.973  12.258   1.291 -0.1223  0.1694 -0.1762
20222W        W35353   7.858   1.189  15.413  0.2012 -0.0205  0.1119
20223W        W35354   7.910  16.831   0.477 -0.0803 -0.0633 -0.3084
20224W        W35355   7.321  17.271  16.128 -0.2344  0.0021  0.0396
20225W        W35356   7.816   7.087  11.227 -0.3188 -0.0257 -0.0745
20226W        W35357  15.450  16.095   5.511  0.2584  0.0964  0.2029
20227W        W35358  16.860  14.131  10.685 -0.0783 -0.0685  0.0485
20228W        W35359  17.947   0.279   5.133  0.0194 -0.0205  0.2561
20229W        W35360  12.161  12.018   3.017 -0.0663 -0.1667 -0.3552
20230W        W35361   7.462  13.980  14.971 -0.2099 -0.1068 -0.0328
20231W        W35362  17.787   6.303   3.756 -0.0276  0.3419  0.1433
20232W        W35363   1.090   2.920   4.445 -0.1621 -0.2174  0.3003
20233W        W35364   7.104  12.307   4.274  0.0873 -0.0997 -0.2111
20234W        W35365   7.176   6.018  10.858  0.1407  0.0961 -0.0827
20235W        W35366  16.896   5.048   5.312 -0.0135 -0.2356  0.1694
20236W        W35367   9.916   6.052  14.854 -0.1488 -0.3679  0.1072
20237W        W35368  17.685   7.814   4.221  0.1062 -0.1966 -0.2338
20238W        W35369   8.009  13.884  14.507 -0.2348 -0.1417  0.3012
20239W        W35370  13.098   1.632   1.229  0.0829  0.0209 -0.0769
20240W        W35371   5.283   8.822  12.170 -0.1303  0.0612  0.0855
20241W        W35372  16.145   4.191  15.926 -0.2534 -0.0860 -0.0348
20242W        W35373   3.179  12.606  13.773  0.2174 -0.0856 -0.1859
20243W        W35374   8.081   0.834  12.422 -0.4058  0.0899 -0.1631
20244W        W35375   9.997  13.694   1.413  0.1249 -0.0345  0.0611
20245W        W35376   3.841   9.396  15.795  0.1065 -0.3472 -0.1123
20246W        W35377   2.712   8.314  11.181 -0.4045 -0.1623 -0.1102
20247W        W35378   3.552  11.620  13.369  0.3852 -0.0378  0.1690
20248W        W35379   9.543  17.428  14.898 -0.1325 -0.0816  0.0906
20249W        W35380  17.574   4.361   5.418 -0.1362  0.1675  0.1567
20250W        W35381   4.558  17.655  14.052  0.0541  0.0297  0.3527
20251W        W35382   7.891   2.445  14.614  0.1530 -0.1134 -0.1130
20252W        W35383   3.576   4.948  11.130 -0.4130  0.3055  0.1200
20253W        W35384   9.999   3.996   6.035  0.2332  0.0402  0.1196
20254W        W35385  10.812  11.018  14.625  0.1320  0.0661 -0.1021
20255W        W35386   2.609   1.180   2.795 -0.0265  0.1372  0.0493
20256W        W35387  16.580  17.059   2.446  0.1756 -0.1132  0.1283
20257W        W35388   2.636  10.883  11.218  0.1179 -0.1291  0.0405
20258W        W35389  12.653   8.501   1.811  0.2444  0.3044 -0.2490
20259W        W35390  14.665  13.585   1.360  0.0516  0.2170 -0.2911
20260W        W35391  16.214  12.690   5.562 -0.2183 -0.0250 -0.0862
20261W        W35392   7.737   0.256   0.400  0.0762 -0.1911 -0.2574
20262W        W35393  10.337  12.890   0.504  0.2159  0.1288 -0.0473
20263W        W35394  14.001   2.506  10.276 -0.0393 -0.2186  0.0985
20264W        W35395   1.418   5.657   2.968 -0.1743  0.1605  0.2513
20265W        W35396  15.314  15.922  15.997 -0.0807  0.0211  0.1430
20266W        W35397   8.296   0.792   3.064 -0.1744 -0.3610  0.0196
20267W        W35398   4.786   1.094  11.541 -0.2226  0.1669  0.4118
20268W        W35399  16.794   3.098  14.000  0.3004  0.2537 -0.0022
20269W        W35400   1.317  11.545  14.745 -0.1440  0.1305 -0.4138
20270W        W35401  15.869   7.415  11.652  0.0380  0.0670 -0.1232
20271W        W35402   3.542   8.624  10.798  0.1552  0.2618  0.2117
20272W        W35403  14.761  10.817   5.477  0.2716  0.3222  0.2468
20273W        W35404  11.689   7.102  13.290 -0.0686 -0.2516 -0.0131
20274W        W35405  14.455   0.216  11.074 -0.0183  0.4507 -0.1846
20275W        W35406   3.821   9.876  11.414 -0.1841  0.2883  0.2661
20276W        W35407  15.072   1.108   3.335 -0.1347 -0.0490  0.1725
20277W        W35408   6.169   8.821   0.504  0.2103  0.0189 -0.2083
20278W        W35409  10.398  12.123  13.211  0.1770  0.2613  0.3321
20279W        W35410   7.782   3.472   4.065  0.0163  0.2521  0.0127
20280W        W35411   3.421  16.069  15.743  0.1314 -0.0999 -0.0933
20281W        W35412  14.286  10.381  12.321  0.2553  0.4162 -0.1213
20282W        W35413  11.756  15.050  14.761  0.0874 -0.2874  0.0319
20283W        W35414   5.164  16.426  11.972  0.2506 -0.2761 -0.1213
20284W        W35415   8.655  14.093   9.768  0.2313 -0.2310  0.0775
20285W        W35416  10.979   2.629   3.442  0.0533 -0.4206 -0.2622
20286W        W35417  10.146  14.840  12.964 -0.1533  0.1144 -0.1749
20287W        W35418   0.286   3.583   2.252  0.0591  0.1243 -0.2508
20288W        W35419  11.251   6.362  12.613  0.1241 -0.0156 -0.2658
20289W        W35420   0.902  16.328   2.388 -0.1560 -0.0365  0.0346
20290W        W35421  15.869  16.701  16.013 -0.0894 -0.3105 -0.1733
20291W        W35422   1.213   4.509   2.897  0.0786  0.1110 -0.0846
20292W        W35423   0.618   0.815  14.013 -0.1636 -0.0928  0.0842
20293W        W35424   8.706  10.231  12.511 -0.0864 -0.0893  0.1421
20294W        W35425  12.206   1.801   3.177 -0.0376 -0.2272 -0.1903
20295W        W35426   6.046   4.810   4.256  0.0817 -0.1823  0.0777
20296W        W35427   7.603  15.982  11.013 -0.3521  0.3516 -0.1088
20297W        W35428  14.957  17.286  15.752 -0.1177  0.0815  0.0728
20298W        W35429  10.864  10.493  14.933  0.1479  0.0250  0.0126
20299W        W35430   8.649   5.526  14.823  0.3418 -0.2429  0.1082
20300W        W35431   2.446   4.315   2.693  0.1857  0.1208  0.0223
20301W        W35432   6.508   3.761   4.942 -0.0960  0.0529 -0.1748
20302W        W35433  10.852   3.540  15.367 -0.0386  0.2291  0.1143
20303W        W35434   9.246   2.117   4.676  0.1437 -0.0126  0.3516
20304W        W35435   8.854  16.031   3.723 -0.0262  0.0451 -0.1824
20305W        W35436   6.413  11.870   1.366 -0.0880  0.0579  0.1512
20306W        W35437  14.380   1.859   0.559 -0.0845  0.3195  0.1630
20307W        W35438  17.031   7.115   4.968  0.1212 -0.2395  0.0778
20308W        W35439  17.492  11.699  11.240 -0.1489  0.0812  0.1299
20309W        W35440   0.645   4.052   5.018 -0.2000 -0.2300 -0.0926
20310W        W35441   1.696  11.230   3.313  0.1020 -0.1595 -0.1375
20311W        W35442   8.161  16.206   1.026  0.1682 -0.1407 -0.1440
20312W        W35443  15.610  13.972  15.075  0.0030  0.4014  0.2152
20313W        W35444   0.470  13.896   5.864  0.1394 -0.0950 -0.3914
20314W        W35445  13.355   0.819   3.809  0.0064  0.0883  0.2285
20315W        W35446  12.121  16.165  14.364 -0.0587  0.2303  0.0756
20316W        W35447  13.863  16.044   1.751  0.0589 -0.0800  0.2727
20317W        W35448  10.500   4.831   4.481 -0.0316 -0.2773  0.1207
20318W        W35449  10.640  12.427  11.402 -0.0493 -0.0446  0.3240
20319W        W35450  15.970  15.267   5.448  0.0010  0.1376  0.0197
20320W        W35451  14.848   7.653   5.058 -0.1618  0.0247 -0.0582
20321W        W35452  12.994   4.508  12.518  0.1016  0.1540 -0.1653
20322W        W35453   7.841   7.639  13.766 -0.0480  0.0695 -0.1806
20323W        W35454   0.886   2.341   2.054 -0.1731 -0.1065 -0.3069
20324W        W35455  13.735   7.267  12.712  0.0864 -0.0751  0.0831
20325W        W35456   1.934  12.602  11.340  0.0441  0.0692 -0.3258
20326W        W35457   5.253  16.656  12.892 -0.2658  0.0173 -0.0066
20327W        W35458  14.380   9.253  10.502 -0.2292  0.0161 -0.3041
20328W        W35459  16.437   2.095   0.970 -0.2239  0.5808 -0.1733
20329W        W35460   3.784   5.135   1.069  0.2060  0.3015 -0.1320
20330W        W35461  17.901   1.968   2.841  0.2860  0.4012  0.0219
20331W        W35462  13.410   7.179  11.311  0.1449  0.0553 -0.0378
20332W        W35463   7.928   2.164   4.320 -0.1141  0.1170 -0.0072
20333W        W35464  17.700  12.576   1.882  0.1174 -0.0582 -0.1634
20334W        W35465   8.858  17.981  11.443  0.1798  0.0530 -0.4619
20335W        W35466  17.019  11.296   3.961 -0.0480  0.1170 -0.1693
20336W        W35467  14.944   3.707   3.006  0.0785  0.3457 -0.0745
20337W        W35468   4.245  11.572   4.832 -0.1195  0.0858 -0.2887
20338W        W35469   0.051   7.216  11.169 -0.0137 -0.0077 -0.1338
20339W        W35470   9.705  14.700   1.483 -0.0072 -0.4304 -0.2603
20340W        W35471  10.640  10.168   2.910 -0.0580  0.0337 -0.2287
20341W        W35472  17.694  14.158  12.539  0.1303 -0.2375  0.1424
20342W        W35473   3.858  17.959  12.373  0.1787 -0.5376 -0.2359
20343W        W35474   0.991   5.976   1.481 -0.0128  0.1416 -0.2129
20344W        W35475   5.324   1.105   5.119  0.0008 -0.2898 -0.0479
20345W        W35476  16.909   3.315  15.833 -0.2717  0.1222 -0.0511
20346W        W35477   8.681  16.352  15.143 -0.2086  0.2921  0.2308
20347W        W35478   6.695  10.749  12.330 -0.0759 -0.0339  0.0504
20348W        W35479   1.871  16.212  13.051  0.0508  0.2134 -0.1603
20349W        W35480   6.429   6.869   0.735  0.0260 -0.1563  0.2231
20350W        W35481  10.305   9.236   2.472  0.1985  0.2522  0.4056
20351W        W35482   4.158   8.097   0.947  0.1324  0.1920  0.1719
20352W        W35483   9.235  16.213  16.226 -0.2964  0.3736 -0.4012
20353W        W35484   3.333  16.551  12.681 -0.0770  0.2298 -0.1615
20354W        W35485   8.334   5.531   3.202 -0.0076 -0.3014  0.0097
20355W        W35486   9.192   6.996   3.951  0.0801  0.1233 -0.1631
20356W        W35487   9.612  11.865  13.706 -0.2823  0.0036 -0.0104
20357W        W35488   2.330  17.074   2.846  0.0243  0.0864  0.1323
20358W        W35489   6.611   7.146   3.459 -0.1580  0.0874 -0.1922
20359W        W35490  17.377  16.429   0.163  0.1236 -0.0171 -0.1940
20360W        W35491   1.593   7.008  15.464 -0.1080 -0.1988 -0.0274
20361W        W35492   0.071   7.703   2.365 -0.0130  0.0664 -0.1983
20362W        W35493   9.857  11.415  16.058  0.0861 -0.0344  0.2154
20363W        W35494   9.308   3.681  15.795  0.1530  0.1912  0.0167
20364W        W35495  12.713   1.886  13.293 -0.2204 -0.0586  0.0406
20365W        W35496   4.413   3.304   5.268  0.0365  0.1204 -0.2371
20366W        W35497  16.761  10.806   5.271 -0.0643 -0.2768 -0.0454
20367W        W35498   6.170   5.617  14.006  0.3421 -0.0810 -0.0104
20368W        W35499   5.410   9.213   2.036 -0.0590  0.1501 -0.0340
20369W        W35500   4.239   8.004  15.531  0.3539  0.1279  0.0191
20370W        W35501  10.894   2.368  12.745 -0.0102  0.0957  0.1164
20371W        W35502   0.623   2.006   5.790  0.3689  0.2045  0.1348
20372W        W35503  11.843   0.877   0.808  0.2325  0.0260  0.2075
20373W        W35504   2.300   6.094   0.876 -0.3299  0.0919 -0.2381
20374W        W35505   0.832  16.764   2.161 -0.2789  0.1893  0.1095
20375W        W35506   9.859  11.252  11.615 -0.0262  0.0003 -0.1372
20376W        W35507  15.643   2.282  11.621 -0.0880  0.1147  0.1147
20377W        W35508   5.743   1.561   0.568 -0.0517  0.0506  0.0519
20378W        W35509  17.161   6.142   5.780 -0.3239  0.0217  0.2061
20379W        W35510   4.458   1.135  12.546 -0.0396 -0.0843  0.0645
20380W        W35511  11.760   1.043   5.607 -0.0473  0.1311  0.2127
20381W        W35512  14.558  10.153  15.321 -0.4521  0.1607 -0.2235
20382W        W35513  15.867   7.479  13.972 -0.0346  0.0320 -0.0381
20383W        W35514  12.998  15.138   2.695  0.1316  0.0487  0.1466
20384W        W35515  12.923  13.419   3.727  0.1668 -0.0112 -0.2292
20385W        W35516   3.374   1.880   0.914  0.1119  0.0476 -0.1256
20386W        W35517   2.618  16.737   3.343 -0.1870  0.0680  0.1026
20387W        W35518   1.171  14.208   4.851  0.0304 -0.1540  0.0629
20388W        W35519  12.300  16.326  11.353 -0.0636 -0.0971 -0.2000
20389W        W35520   6.412  14.186  10.580  0.1241  0.0717  0.0162
20390W        W35521  11.035   8.022   0.192  0.1345 -0.0161  0.1396
20391W        W35522  11.925   8.189   2.331  0.0495  0.0956  0.1581
20392W        W35523   0.534   4.715   5.903  0.1726 -0.0778 -0.3487
20393W        W35524   7.003   7.665   5.304  0.1113 -0.1216  0.0654
20394W        W35525  10.571  10.684   4.555  0.0177  0.0702  0.3192
20395W        W35526   4.600   3.921   0.054 -0.1325 -0.2262 -0.0811
20396W        W35527   0.806   5.310   1.563  0.0941  0.0526 -0.2435
20397W        W35528   1.851   8.313  10.963 -0.1271  0.0234 -0.0061
20398W        W35529   0.405  11.475   4.790  0.1226 -0.1549  0.0103
20399W        W35530   7.178  15.091   5.467  0.0549  0.0482  0.0874
20400W        W35531   1.318   3.366  14.364  0.0576 -0.0114  0.2510
20401W        W35532  11.536   4.387   5.711  0.1040  0.0120  0.1518
20402W        W35533   9.951  11.307  14.688  0.1509  0.1536  0.0925
20403W        W35534   8.207   0.612   2.571  0.1083 -0.1154 -0.4039
20404W        W35535   7.293  12.980  12.333 -0.0429 -0.0274  0.0796
20405W        W35536  16.330  11.463  14.419  0.1458  0.1359  0.1382
20406W        W35537   8.957   7.090   5.891 -0.1502  0.0783 -0.2255
20407W        W35538  15.755   6.315   2.128 -0.1502 -0.0843  0.1221
20408W        W35539   0.524   2.541   4.974  0.0525  0.1505 -0.4465
20409W        W35540   0.462   2.621   1.860  0.0574 -0.1484 -0.2829
20410W        W35541   5.496   8.287   4.765 -0.1093 -0.0140 -0.0721
20411W        W35542  12.587   5.850  11.485  0.5115 -0.0777 -0.0991
20412W        W35543  18.182  16.341   5.439  0.1682  0.3374  0.0023
20413W        W35544   3.116   3.423  10.004 -0.3166 -0.3117  0.0716
20414W        W35545   9.703  17.244   5.335  0.0031  0.3481  0.1238
20415W        W35546   7.617  15.308  12.505  0.2117  0.1589 -0.1940
20416W        W35547   8.947   3.154   3.994 -0.0626 -0.0607  0.2869
20417W        W35548  13.166   6.412  15.501  0.1469 -0.3051  0.2709
20418W        W35549  12.237  12.852  10.530  0.2114  0.0005 -0.0723
20419W        W35550  17.937  12.051   0.536 -0.1031  0.0361 -0.0197
20420W        W35551   6.425   9.040  13.024  0.1391 -0.0138 -0.1825
20421W        W35552   7.365  16.430  10.838 -0.0715 -0.1494 -0.1206
20422W        W35553   1.989   3.363   9.945 -0.1519 -0.2227 -0.2145
20423W        W35554   9.337   9.944   0.209 -0.1357  0.1839 -0.0874
20424W        W35555   0.273  17.160  13.099  0.2067  0.2653 -0.1439
20425W        W35556   1.319  10.993   1.812  0.1286  0.0277 -0.0514
20426W        W35557  10.778   4.481  13.809 -0.1909 -0.0422  0.1185
20427W        W35558  16.513   6.559  14.934 -0.0827 -0.1342  0.1771
20428W        W35559  16.337  17.631   5.142 -0.0366  0.2802  0.0261
20429W        W35560   1.533  14.458  13.346  0.2234  0.1100 -0.0249
20430W        W35561   5.385   6.550  15.028  0.2857  0.3357  0.2341
20431W        W35562   4.719  11.268   2.604  0.2980  0.3793  0.2109
20432W        W35563   7.161  10.939  12.577 -0.0287  0.0779 -0.0051
20433W        W35564  16.898  16.219   0.817 -0.0401 -0.1196 -0.0103
20434W        W35565  11.550  15.619   4.275 -0.0965 -0.0418  0.1100
20435W        W35566   2.802  17.165   4.944  0.2236 -0.0211 -0.0631
20436W        W35567   7.105  14.026  10.502 -0.2332 -0.1768 -0.0977
20437W        W35568   8.862   7.357  14.752  0.0100 -0.1445  0.0827
20438W        W35569   9.222   0.074  15.060 -0.1289 -0.3359 -0.2540
20439W        W35570  14.583   1.398   4.288  0.2854 -0.0613 -0.0848
20440W        W35571   5.917  14.067  11.566 -0.1656  0.4797 -0.0719
20441W        W35572   3.430  13.609   4.453 -0.1463  0.0942  0.2570
20442W        W35573  13.624   6.127  13.116  0.1346  0.1736  0.1095
20443W        W35574  14.182  14.719   3.500  0.1060  0.2776  0.0263
20444W        W35575   7.826  11.838   1.710 -0.0987  0.0933 -0.3947
20445W        W35576   8.235   6.552   1.714 -0.0707 -0.0386 -0.1215
20446W        W35577   8.709   1.407  13.905  0.0143  0.2380  0.1531
20447W        W35578   7.677   5.853   0.969  0.0999 -0.0828  0.0917
20448W        W35579  16.159  12.540   0.075  0.0722 -0.1191 -0.2822
20449W        W35580   8.467   8.652  11.546 -0.1599 -0.0220 -0.2025
20450W        W35581   4.695   4.123   4.797  0.1957 -0.1750  0.0546
20451W        W35582   1.062  11.859   0.664  0.1037 -0.3338 -0.2235
20452W        W35583   6.396   8.559   2.410 -0.2729 -0.0502  0.1945
20453W        W35584  17.818  13.938  11.524 -0.0631  0.0311 -0.1357
20454W        W35585   1.532   2.585   0.461  0.3077  0.6028 -0.2941
20455W        W35586  15.587   2.860  11.444 -0.0593 -0.1213 -0.2308
20456W        W35587   7.469  16.142  13.003  0.0519  0.0846 -0.1663
20457W        W35588   0.967   4.834  15.270  0.4064  0.1547  0.2605
20458W        W35589  14.076   9.300  11.856 -0.0961 -0.1380  0.0394
20459W        W35590   7.873  15.860  15.120 -0.2275  0.2217  0.1407
20460W        W35591  13.947  12.154  14.260  0.3508 -0.1521 -0.0027
20461W        W35592  13.220   2.350  11.866  0.3423 -0.3323 -0.1357
20462W        W35593   0.822   0.648  13.545  0.2049 -0.0293  0.2005
20463W        W35594  13.320  14.421   2.171 -0.4651  0.0390  0.0943
20464W        W35595   6.317   6.247   4.742  0.0423 -0.2318  0.3858
20465W        W35596   0.558  15.307   4.986  0.3687 -0.1756 -0.1091
20466W        W35597   5.840   5.855   2.655  0.0641  0.3810  0.4146
20467W        W35598  13.157  14.745  13.979 -0.0107  0.0617  0.1066
20468W        W35599  17.817  10.234  12.905  0.2566  0.0067  0.1604
20469W        W35600  10.693  17.698  15.441  0.1011  0.1149 -0.1188
20470W        W35601   4.024   2.871  12.152  0.5935  0.0279  0.0162
20471W        W35602  12.551   0.946  13.994 -0.0691 -0.0575 -0.0381
20472W        W35603  11.379   3.499   4.542  0.1698 -0.1968  0.0253
20473W        W35604   2.409  10.968   2.630  0.4469  0.1545  0.1751
20474W        W35605   8.476  17.211  11.254 -0.0618  0.1028  0.0895
20475W        W35606  12.896   1.838  14.634 -0.2390  0.0394 -0.1400
20476W        W35607   9.631  16.173  14.841  0.1220  0.1567 -0.2232
20477W        W35608  16.669  16.290   6.754  0.1396 -0.4383  0.1574
20478W        W35609   8.922   2.533   4.863  0.4406  0.0314 -0.0002
20479W        W35610  12.469  15.032   3.286 -0.0194  0.1503  0.2146
20480W        W35611  10.364   9.351  13.107 -0.0948 -0.0535  0.0045
20481W        W35612   6.551  16.782   4.907  0.2880 -0.0665  0.0863
20482W        W35613   6.460  15.782   0.296  0.0391 -0.0320  0.1716
20483W        W35614   6.516   3.141  13.053 -0.0584 -0.2530 -0.1016
20484W        W35615  14.443   2.927  12.927  0.0542 -0.1136  0.1426
20485W        W35616   9.200   7.758  16.200 -0.2011 -0.0136 -0.0384
20486W        W35617   1.082  15.679   0.952 -0.1740  0.0887 -0.1196
20487W        W35618   2.739  16.592  15.082 -0.0851 -0.0493 -0.1402
20488W        W35619  14.239   7.860   5.792 -0.2981 -0.1785  0.3059
20489W        W35620  11.372  10.787   4.103 -0.2426  0.0095  0.1143
20490W        W35621  14.040   8.187   1.499 -0.1388 -0.0220  0.1946
20491W        W35622   4.708   5.775  11.671  0.1031 -0.0638 -0.0698
20492W        W35623   5.051   3.955   4.120  0.0107  0.0261  0.0328
20493W        W35624   5.745   0.631   4.078 -0.0590 -0.2883  0.0223
20494W        W35625   6.122   8.255  13.582 -0.0251  0.3168  0.0484
20495W        W35626   9.806  15.619  13.841  0.1063  0.1474 -0.2869
20496W        W35627   2.819  10.198  13.912  0.0921 -0.2779  0.0954
20497W        W35628   7.900   0.703   1.436 -0.0043  0.0023  0.0611
20498W        W35629   7.405  18.040  11.044  0.0610  0.2669 -0.0419
20499W        W35630   3.285   8.708  13.413  0.1731 -0.3688  0.2682
20500W        W35631   7.101   9.172   2.419 -0.0436  0.0980  0.5176
20501W        W35632  17.109   1.407   2.375 -0.0062 -0.0378 -0.0002
20502W        W35633  11.079   9.589   2.530  0.0537  0.2349 -0.3628
20503W        W35634  11.554  14.975  11.607 -0.0871  0.0030  0.1380
20504W        W35635   3.221   9.560   0.663 -0.1558 -0.1800 -0.0115
20505W        W35636  16.394   6.363  14.365 -0.0566  0.0633  0.1982
20506W        W35637   0.055   1.726  10.136 -0.0987 -0.1578 -0.3191
20507W        W35638   6.967   0.429  14.797 -0.1609 -0.3124  0.2226
20508W        W35639   5.149   1.135  12.036 -0.1065  0.2297 -0.1333
20509W        W35640   1.554  10.875  16.095  0.0196 -0.2696 -0.1457
20510W        W35641   2.353  13.877  15.037  0.3244  0.2766 -0.3141
20511W        W35642   5.274   1.074   1.716 -0.0644  0.0700 -0.1626
20512W        W35643   5.333   0.179   2.911  0.0534  0.3741  0.2181
20513W        W35644   2.857  12.827   2.273  0.0384 -0.0260 -0.0475
20514W        W35645   9.305  17.962  13.340  0.1288 -0.0877  0.1301
20515W        W35646  16.995   5.534  12.058  0.0445  0.2339  0.1783
20516W        W35647  13.551   2.430  12.295 -0.2167  0.2772 -0.0744
20517W        W35648  11.050   7.364   5.655  0.0254  0.2326  0.0592
20518W        W35649  14.571   9.575   1.015 -0.3306  0.0411 -0.1017
20519W        W35650   0.926   8.082  10.997 -0.2862 -0.0893 -0.0432
20520W        W35651   9.081   3.068   1.647  0.1110  0.0241  0.2397
20521W        W35652   3.639   3.208  12.717 -0.2255 -0.0622  0.1317
20522W        W35653   8.562   1.450  15.826 -0.2422  0.1955  0.0076
20523W        W35654  12.182  18.103   0.629  0.0870 -0.0204  0.0537
20524W        W35655   6.159  14.586   3.492  0.0850 -0.0239 -0.0702
20525W        W35656   7.815  12.260  10.510 -0.2706 -0.3743  0.2771
20526W        W35657   2.512   9.055  12.414  0.3058 -0.2781  0.0263
20527W        W35658  14.855   3.351   3.353 -0.2017 -0.0302  0.1926
20528W        W35659  10.335   3.813   1.979 -0.1304  0.1627  0.0444
20529W        W35660   8.782   8.754   2.006 -0.3291  0.0991  0.0540
20530W        W35661  12.066   9.119   5.640 -0.3269  0.2962  0.0682
20531W        W35662   8.849  11.267   2.104 -0.0853  0.1713  0.2671
20532W        W35663   4.425  13.748   1.603  0.0696 -0.1374 -0.2598
20533W        W35664   5.708  11.307  10.146 -0.2471 -0.0590  0.0858
20534W        W35665   9.388   7.210   0.521  0.1549  0.0874 -0.0178
20535W        W35666   3.291   8.066  14.444 -0.2268 -0.1771 -0.0676
20536W        W35667  14.120  17.909  13.136 -0.1184  0.1016 -0.1374
20537W        W35668  15.856  11.638  14.355 -0.1466 -0.0507 -0.2247
20538W        W35669   4.423  13.034   2.773 -0.0558  0.1420 -0.2795
20539W        W35670  15.285   7.801   0.681  0.0311  0.0499  0.0431
20540W        W35671   4.947   3.434  14.011  0.0091  0.0562 -0.1248
20541W        W35672  10.265   8.046   5.696  0.0343 -0.0510  0.2445
20542W        W35673  14.953  16.212  11.296 -0.2273  0.0783 -0.1285
20543W        W35674  11.027  11.679   1.418 -0.3492  0.2089  0.2975
20544W        W35675   6.719   7.899  11.344  0.0633 -0.0661 -0.0452
20545W        W35676   0.513  13.955  14.470  0.1139  0.0548 -0.3339
20546W        W35677   9.470   4.360   2.932 -0.1338 -0.2851 -0.2495
20547W        W35678   0.213  12.504   5.502 -0.0122  0.1136 -0.2673
20548W        W35679   0.514   0.156   1.163 -0.1372 -0.0378  0.1887
20549W        W35680  10.693  15.348  12.249 -0.1412  0.1397  0.1108
20550W        W35681  15.406   3.002   2.428  0.3529 -0.1287  0.3071
20551W        W35682  12.372   8.471   1.343 -0.1797 -0.3776  0.1466
20552W        W35683   3.830  11.761  11.937 -0.6172  0.1108 -0.1851
20553W        W35684  11.530  13.636  12.821  0.1814 -0.0018  0.0783
20554W        W35685   6.511   2.912  10.853  0.2948 -0.0970  0.1411
20555W        W35686   6.723  12.390  13.691 -0.0637  0.0159  0.0476
20556W        W35687   8.723   5.082  12.273 -0.1156  0.1290 -0.0766
20557W        W35688   2.799   9.535   0.351  0.1337 -0.1767  0.0933
20558W        W35689   3.450  12.513   3.891  0.0748 -0.2230 -0.1470
20559W        W35690  16.686  15.561  15.655  0.1914 -0.0125 -0.4318
20560W        W35691  17.752  13.383   2.183 -0.0924 -0.3905  0.2120
20561W        W35692   7.130  13.737  10.955 -0.1648  0.2046  0.0552
20562W        W35693  15.614   1.763   4.281 -0.1172 -0.1469 -0.3396
20563W        W35694   1.776  10.341  10.932  0.1920  0.0510 -0.1235
20564W        W35695  10.091   3.491   3.002 -0.3281 -0.0513 -0.1067
20565W        W35696  17.388  14.471   4.712 -0.3729 -0.1352  0.0099
20566W        W35697  14.917   3.263   0.733  0.3073 -0.1635  0.1192
20567W        W35698  11.547  13.190   2.731  0.0424  0.1066  0.0216
20568W        W35699  17.007  17.456  11.883 -0.0451 -0.0361  0.1715
20569W        W35700   9.021   7.070   1.811  0.1057  0.0741  0.0782
20570W        W35701  11.684   0.832  11.306 -0.1895  0.1903  0.0108
20571W        W35702  14.275   8.982   3.308  0.0748  0.0826  0.0888
20572W        W35703   1.463  16.061  14.702 -0.2836 -0.2782 -0.0509
20573W        W35704  15.099   0.813   3.782 -0.0494 -0.2259 -0.0273
20574W        W35705   0.281  14.966  14.600  0.1151  0.0657  0.0125
20575W        W35706   0.382  13.151  11.345 -0.4518 -0.0693  0.1834
20576W        W35707   7.672   6.042  13.243 -0.1061  0.1361  0.1181
20577W        W35708   2.959  13.174  13.829  0.3089 -0.2315  0.1367
20578W        W35709   8.889  12.578  15.935 -0.1400  0.2326  0.2597
20579W        W35710  12.492   9.980  13.593 -0.2286  0.2117 -0.0383
20580W        W35711  13.178   4.264   2.181 -0.1183  0.1534 -0.0914
20581W        W35712   4.711  13.517  12.991 -0.1345 -0.2477  0.1033
20582W        W35713   3.702  13.572  13.852  0.1931 -0.1037 -0.2518
20583W        W35714  10.686   6.657  14.630 -0.1166 -0.0069  0.1578
20584W        W35715  15.523   2.301   1.873 -0.3543 -0.2756  0.0178
20585W        W35716   9.680   3.166  16.231  0.0309  0.1003 -0.0490
20586W        W35717   4.520  10.380  11.033  0.0023 -0.1631 -0.2446
20587W        W35718   5.862   2.471  11.643 -0.1045 -0.0264  0.1197
20588W        W35719  13.654   8.178  12.551  0.3005 -0.1171 -0.0356
20589W        W35720  13.182  11.923   1.888 -0.4648 -0.1150 -0.2586
20590W        W35721   2.215  16.969  11.833 -0.1545 -0.1436  0.1742
20591W        W35722  17.367   5.454  12.902  0.1032 -0.0535 -0.1888
20592W        W35723  13.556   2.903  15.238 -0.1115  0.3933 -0.2843
20593W        W35724   4.688  14.215  12.301 -0.2680  0.3343  0.0133
20594W        W35725   4.522   7.759   0.108 -0.0484  0.0142 -0.4188
20595W        W35726  18.041  16.097   3.125  0.3815  0.1072  0.1146
20596W        W35727  10.359   1.723  11.387  0.0378  0.0191 -0.1415
20597W        W35728   6.830   1.962   5.190  0.0715 -0.5683  0.1118
20598W        W35729  12.204  12.994  15.803  0.0114  0.2362 -0.0226
20599W        W35730  17.487  17.470  16.041  0.0582 -0.4640 -0.2125
20600W        W35731   7.994  15.766   4.414  0.0485  0.2556  0.2140
20601W        W35732  14.766   6.896  15.532  0.1572 -0.0216  0.1567
20602W        W35733   6.110  17.208   1.010  0.1115 -0.1834 -0.0990
20603W        W35734   7.674   2.001   2.663  0.0272 -0.0688 -0.3458
20604W        W35735  18.184   2.362  13.051 -0.0941 -0.0361 -0.2356
20605W        W35736  10.982  16.738  14.224  0.2061 -0.1265 -0.3746
20606W        W35737  14.513  16.204   5.790  0.0338 -0.4354 -0.0199
20607W        W35738   9.797   6.331   5.200  0.1173 -0.0522 -0.1105
20608W        W35739  18.068  17.837   2.392  0.0164 -0.0578 -0.1985
20609W        W35740   1.872   0.521   0.903  0.3263 -0.0464 -0.0167
20610W        W35741   9.717   3.422  15.675  0.0965  0.2169  0.0613
20611W        W35742  10.020  12.724   0.905 -0.2264 -0.2264  0.1111
20612W        W35743  10.461  15.101   0.880 -0.3056 -0.3903  0.1612
20613W        W35744  12.310   4.841   1.071 -0.1083  0.0437  0.2830
20614W        W35745  13.142   2.823   2.656 -0.1881 -0.1187 -0.1138
20615W        W35746   4.505   5.005   5.080 -0.4533  0.0902 -0.1646
20616W        W35747   2.587   8.031  15.250  0.0217  0.1704 -0.4426
20617W        W35748   1.536  12.481   5.251 -0.1496 -0.2489 -0.2777
20618W        W35749  11.887  16.266   2.136 -0.0145 -0.1231  0.2640
20619W        W35750  14.144  14.769   1.885  0.0134  0.0084  0.1371
20620W        W35751  11.808  11.901  11.231  0.0368  0.0918 -0.1128
20621W        W35752  11.569   1.310  12.977  0.2249  0.0989 -0.3267
20622W        W35753  16.593   8.642   3.685  0.1184 -0.0534 -0.0960
20623W        W35754   4.658  12.382  15.223 -0.2409 -0.0876 -0.1022
20624W        W35755  10.703  13.705  15.894 -0.2866  0.0546  0.0499
20625W        W35756   3.203   6.061   2.061  0.1383  0.1977  0.2206
20626W        W35757  18.092   6.876  14.699  0.0704  0.1553  0.1166
20627W        W35758   7.139   8.150   4.516 -0.1717  0.2276  0.2622
20628W        W35759   0.775   4.198   2.916 -0.0125 -0.2109  0.1759
20629W        W35760   5.380   9.446   4.037  0.1300  0.0629 -0.2247
20630W        W35761   9.000   2.860   3.568 -0.0868  0.0834 -0.2417
20631W        W35762   6.180   3.754  12.408 -0.4017  0.2937  0.0404
20632W        W35763   1.338  12.279  15.259 -0.2812 -0.0411 -0.3640
20633W        W35764   3.973   6.315  16.144  0.0211  0.1429  0.0823
20634W        W35765  10.751   8.518  14.210  0.0545 -0.1534 -0.2520
20635W        W35766   8.216  11.993  11.744 -0.1823 -0.2671 -0.0219
20636W        W35767  13.148  15.106  13.590 -0.0315 -0.6273  0.0513
20637W        W35768   0.345   4.054  14.999  0.1754 -0.1247 -0.1693
20638W        W35769  13.437   1.244   2.042 -0.1143 -0.0041 -0.3237
20639W        W35770   7.272  11.401  11.313  0.1250 -0.0600 -0.1040
20640W        W35771   8.525   6.714  14.186  0.0035 -0.2096 -0.0078
20641W        W35772   5.025   2.648  12.114  0.3759  0.3516 -0.2583
20642W        W35773   4.095   0.630   1.456 -0.1292  0.0140 -0.1238
20643W        W35774   4.615  12.698   4.182  0.1005 -0.0851  0.1008
20644W        W35775   1.742  13.751  13.557 -0.1162 -0.0478  0.1193
20645W        W35776   1.066  12.891  10.907  0.1394 -0.1361  0.0519
20646W        W35777   3.841   1.179  12.100 -0.1307 -0.1915 -0.0678
20647W        W35778   2.998  11.650   3.212  0.2317  0.2226  0.2068
20648W        W35779   1.400   2.705  16.223  0.1318  0.0839 -0.2674
20649W        W35780   1.247   1.899  14.705  0.4113 -0.0164 -0.0240
20650W        W35781   1.297   0.437  13.540  0.2348 -0.2096 -0.1152
20651W        W35782   5.812   7.938   4.613  0.2624  0.1842  0.3854
20652W        W35783  13.080   9.044   5.570  0.2887  0.0377 -0.1548
20653W        W35784   0.566  17.733  15.333 -0.2321  0.0358  0.0207
20654W        W35785   1.125  13.819   3.344  0.1086 -0.0125  0.0034
20655W        W35786  14.522   4.055   2.954  0.1319  0.0610  0.0378
20656W        W35787   4.403   0.430   0.135 -0.0629 -0.0201  0.1349
20657W        W35788   0.007  17.564   0.324 -0.1861 -0.2113 -0.1223
20658W        W35789   3.113  15.161  12.118  0.1932  0.1468  0.2251
20659W        W35790   6.132  14.646  15.952  0.0950 -0.0775 -0.3977
20660W        W35791   4.585   4.485  14.217  0.1677 -0.1260  0.0646
20661W        W35792   6.356  13.588   4.650  0.1154 -0.0098 -0.0335
20662W        W35793  15.699  13.263  13.065 -0.2618 -0.1524 -0.2460
20663W        W35794  18.122  14.477   4.052 -0.1737 -0.0147 -0.1561
20664W        W35795  14.778  16.873   5.976  0.2743  0.1670  0.1625
20665W        W35796   9.582   5.931   4.893  0.0796 -0.1634  0.0534
20666W        W35797   7.226  13.345  13.758  0.0189  0.0100  0.0091
20667W        W35798  11.109   1.236  13.374  0.0469 -0.0654 -0.3152
20668W        W35799   3.906   0.554  14.571 -0.0853 -0.0023  0.0524
20669W        W35800   5.859   4.117  15.761  0.0448  0.2485 -0.2120
20670W        W35801   1.786  16.209   1.184 -0.2347  0.1034 -0.2022
20671W        W35802   1.623   0.052   2.077 -0.1740  0.0423  0.2856
20672W        W35803   3.636  18.167   1.178  0.1544 -0.1236 -0.0759
20673W        W35804   9.458   0.480   5.304 -0.1446  0.0418 -0.0546
20674W        W35805  11.347   1.752   4.703  0.0932  0.2381 -0.0799
20675W        W35806   1.871  13.435  12.747  0.0913  0.1232  0.0576
20676W        W35807   5.944  14.020   3.777 -0.1359  0.1692 -0.3522
20677W        W35808  14.395  17.926  13.562 -0.1370 -0.0677  0.2881
20678W        W35809  17.693   3.193   5.009 -0.4336 -0.1298  0.0029
20679W        W35810   7.286   3.065   1.877  0.0712  0.0511 -0.1933
20680W        W35811  12.285   0.100   0.130 -0.0973  0.0874  0.0356
20681W        W35812   0.086   3.733   0.769 -0.0307 -0.1958 -0.2379
20682W        W35813  15.291  14.587   0.037 -0.0886 -0.2998 -0.1018
20683W        W35814  14.236  10.278  14.484 -0.1945  0.2128 -0.2937
20684W        W35815   0.491   4.074  14.504  0.2337 -0.0890 -0.0102
20685W        W35816  11.615  15.244   2.992  0.4873 -0.2574 -0.2183
20686W        W35817   6.668  12.943   0.395 -0.3623  0.1232 -0.2819
20687W        W35818  16.887   8.959   4.951  0.2186 -0.2411 -0.1174
20688W        W35819   1.759  12.822  12.504  0.2163 -0.2082  0.2808
20689W        W35820   6.512   5.820  12.623 -0.1151  0.0596 -0.0032
20690W        W35821  16.325   2.963   2.055  0.1895  0.0973 -0.1124
20691W        W35822   0.528   4.292  15.825  0.2031  0.0069 -0.2109
20692W        W35823  17.451  12.276   0.602 -0.1623 -0.0759 -0.0438
20693W        W35824  12.497   0.009   1.135  0.0759 -0.1742 -0.0341
20694W        W35825   5.523   2.167   4.607 -0.1333 -0.0443 -0.0899
20695W        W35826  15.776   9.678   5.192 -0.0812 -0.1192 -0.1456
20696W        W35827  13.506   8.634  15.659  0.4063  0.1924 -0.1040
20697W        W35828  13.646  17.745   5.063 -0.0876  0.1232 -0.2428
20698W        W35829  10.359  10.658  13.133  0.1232 -0.0836 -0.1516
20699W        W35830  15.378   6.298  12.254  0.4265 -0.3228 -0.2370
20700W        W35831   1.255   2.793  14.937 -0.3113  0.1722  0.1070
20701W        W35832   1.792   8.587   4.628  0.1959  0.1772 -0.0803
20702W        W35833   5.156   1.425  11.630 -0.0047  0.1790 -0.2459
20703W        W35834   0.505   0.872   2.886  0.0200 -0.0616 -0.2453
20704W        W35835  15.326   9.857   4.270 -0.0354 -0.0663 -0.1583
20705W        W35836   8.549  12.402   3.934 -0.0371 -0.1071  0.1485
20706W        W35837   3.998  16.206   0.676 -0.0179  0.1977  0.4397
20707W        W35838   8.552  12.101  10.891 -0.2549  0.0083  0.0548
20708W        W35839  14.452  12.193   2.351  0.2564 -0.3083  0.0377
20709W        W35840  11.515   8.668   5.105  0.1288  0.3215  0.0227
20710W        W35841   9.947  12.321   3.951  0.3045  0.1659 -0.3862
20711W        W35842   2.204   3.558  15.952 -0.0686 -0.2035 -0.0983
20712W        W35843   0.311  10.493  13.323 -0.2218 -0.0665  0.0080
20713W        W35844   3.268   1.251  13.225 -0.1019  0.2552 -0.0794
20714W        W35845   3.042   7.376   3.982 -0.1337 -0.2603 -0.3946
20715W        W35846  11.993   1.422  14.946  0.1507  0.1893 -0.0025
20716W        W35847  17.993  12.892   3.617 -0.1377 -0.1721  0.1796
20717W        W35848   9.485   6.242  16.106  0.2030  0.0364 -0.0670
20718W        W35849   8.888  10.873   0.371  0.0635  0.1541 -0.1410
20719W        W35850   8.067   9.512  10.839 -0.5670 -0.0741 -0.0098
20720W        W35851  15.597  16.706   2.062 -0.1437 -0.2261 -0.0320
20721W        W35852   6.610  17.499   2.090  0.0877  0.0794 -0.0817
20722W        W35853  11.274  12.508   1.618 -0.0427  0.0013  0.0027
20723W        W35854   2.173   5.688  11.740  0.2423  0.0010 -0.0309
20724W        W35855  12.792   8.092  15.813  0.1027  0.0312 -0.1687
20725W        W35856   2.949  12.668   5.133  0.3449 -0.2012  0.0740
20726W        W35857   8.834  13.310  14.108 -0.1308  0.0203 -0.1213
20727W        W35858  17.518  11.982  16.038 -0.0619  0.0686  0.2287
20728W        W35859   2.824  10.857  15.305  0.0826 -0.5385  0.1866
20729W        W35860   1.719   7.981  14.090  0.1803  0.2392 -0.0682
20730W        W35861  18.036   7.522  14.550 -0.0428 -0.2110  0.3149
20731W        W35862   9.705  17.642  15.287  0.0296  0.1770  0.1618
20732W        W35863   5.035   3.715  16.008 -0.1304 -0.3319  0.2461
20733W        W35864  16.224   7.032   0.903  0.2508 -0.0003 -0.0662
20734W        W35865  13.484  12.848   1.643  0.0652  0.0333 -0.1777
20735W        W35866   7.409   3.813   1.698 -0.0023  0.1257 -0.0508
20736W        W35867  17.950   4.114   5.181 -0.1083 -0.0375 -0.1750
20737W        W35868   0.893   5.551  12.470 -0.0839  0.1481  0.0176
20738W        W35869   0.976  12.540  14.971  0.0673 -0.3915  0.0791
20739W        W35870   0.055  13.910   3.867 -0.0077  0.1581  0.1996
20740W        W35871  17.538  16.080  13.954  0.0549 -0.0580  0.1481
20741W        W35872  10.572   9.345   2.034 -0.0919  0.2739 -0.1835
20742W        W35873   5.857   7.530   0.265 -0.0228 -0.1043 -0.0874
20743W        W35874  12.570   2.922  11.408 -0.1671 -0.0022  0.1059
20744W        W35875  16.502  14.077   4.629 -0.0678  0.0813  0.0576
20745W        W35876   5.636  11.639   2.999  0.1052  0.0425  0.2543
20746W        W35877  15.391  17.650   6.084 -0.1611 -0.2777 -0.2622
20747W        W35878  12.970  18.069   2.346 -0.3685  0.1373  0.0120
20748W        W35879   3.726   4.995   2.437  0.1349 -0.0634  0.2288
20749W        W35880  12.810   9.636  10.479 -0.0429  0.1048 -0.4205
20750W        W35881   4.433  15.903   2.418  0.0167  0.0134  0.2065
20751W        W35882  15.044   1.489   2.975  0.0698  0.0037 -0.1881
20752W        W35883  13.266   1.222   4.911 -0.4306 -0.2156 -0.0431
20753W        W35884   6.358   1.074   2.336  0.0770 -0.0296  0.1242
20754W        W35885  12.611  10.776  11.365 -0.3101  0.1628 -0.2796
20755W        W35886   6.546  12.486   3.188  0.1029 -0.1363 -0.0627
20756W        W35887  12.137  11.084  11.735 -0.1539  0.4225 -0.1208
20757W        W35888  12.739   4.953   0.519  0.3734 -0.0138  0.1179
20758W        W35889  15.495   8.074   0.191  0.0471 -0.0299  0.0526
20759W        W35890   4.475   1.616   1.998  0.1228  0.0242  0.2545
20760W        W35891   7.557  17.161   0.673  0.0077  0.2146 -0.2464
20761W        W35892   6.057   3.752  13.693  0.1298 -0.2497  0.2229
20762W        W35893  12.249   4.528   4.557 -0.1344  0.4488  0.0991
20763W        W35894  10.903   1.817  15.030  0.0179  0.0250  0.3981
20764W        W35895   6.405   6.403   1.588  0.1269 -0.1220 -0.0635
20765W        W35896   1.000  17.201  13.475 -0.1364  0.1072 -0.1308
20766W        W35897  14.215   5.763   0.711 -0.2371  0.1114 -0.1665
20767W        W35898  10.404  10.552   1.513 -0.0702  0.0973  0.5342
20768W        W35899   8.559   7.923   5.075  0.0394 -0.0868 -0.2768
20769W        W35900  12.557  11.341   3.510  0.1783  0.0216 -0.1701
20770W        W35901  15.122  12.258   3.841 -0.0975 -0.1200 -0.2804
20771W        W35902  16.218   0.581   1.129  0.1079  0.3484  0.1166
20772W        W35903   3.976  14.307   0.245  0.1983  0.1146 -0.0702
20773W        W35904  14.753  10.897   4.937  0.2881  0.2032  0.0292
20774W        W35905   7.462  14.184  15.453 -0.2610 -0.2167  0.0686
20775W        W35906   7.338   8.147   2.849 -0.0461  0.2908 -0.3261
20776W        W35907  15.486   3.253   0.324  0.0981 -0.2202 -0.2379
20777W        W35908  13.324  14.630  11.191 -0.2881 -0.2296  0.0633
20778W        W35909  10.956  13.345   0.627  0.0179  0.0598  0.1240
20779W        W35910   2.133  16.894   3.306  0.3615  0.0999 -0.5920
20780W        W35911   7.365  14.708  15.428  0.2060 -0.0559 -0.0150
20781W        W35912   6.408  16.610   0.814 -0.1768  0.0793 -0.2820
20782W        W35913  17.282  17.683  13.335  0.1020  0.3953  0.2446
20783W        W35914  15.380   1.567  10.777  0.0270  0.0454 -0.0316
20784W        W35915   5.585   5.057  14.423 -0.1845  0.1358  0.0851
20785W        W35916  14.426  12.219  11.343  0.1506  0.1465 -0.2806
20786W        W35917   0.901  17.866  10.928 -0.3087  0.0472  0.0817
20787W        W35918   3.592   0.175   2.387 -0.0023  0.1104  0.2835
20788W        W35919  10.629  11.750  15.042 -0.0424 -0.3171 -0.3159
20789W        W35920  17.113  14.406  16.018 -0.2452 -0.1351  0.1584
20790W        W35921  13.428   3.266   1.371 -0.2874  0.1927  0.0149
20791W        W35922  12.907  14.049   0.266 -0.2134 -0.1845  0.0400
20792W        W35923   8.266  15.490  16.101  0.1210 -0.1608 -0.1500
20793W        W35924   5.913   2.059  12.319  0.2175  0.0739 -0.2271
20794W        W35925  16.502   7.794   0.374 -0.2924 -0.1321  0.1432
20795W        W35926  17.829   9.712  15.673  0.0560 -0.2522 -0.1379
20796W        W35927  12.286   4.917  12.353  0.1391  0.0150 -0.3850
20797W        W35928   5.788  13.054   3.533  0.0417  0.2315 -0.1730
20798W        W35929  10.472   0.941  10.381  0.0321 -0.5352 -0.1733
20799W        W35930   7.348  12.319   2.378  0.1608  0.1791 -0.1809
20800W        W35931  16.535  18.109  15.502  0.0182 -0.0112  0.1362
20801W        W35932   3.439  17.951   4.860  0.3271 -0.2414 -0.0392
20802W        W35933   7.858  17.241  10.685  0.0317 -0.0738  0.1324
20803W        W35934   5.576   3.740  13.877 -0.2264 -0.0246  0.1107
20804W        W35935  17.512   3.551   5.388 -0.1307 -0.1896 -0.0162
20805W        W35936   4.994   8.581   1.226 -0.1700 -0.2777  0.0490
20806W        W35937   6.262  15.599   0.712  0.2054 -0.0157  0.1708
20807W        W35938   9.907   7.658   5.650 -0.1102  0.0041 -0.0994
20808W        W35939  10.308  10.573   0.255  0.0846 -0.1087 -0.1801
20809W        W35940   6.207   6.580   4.316  0.0706  0.2542 -0.1623
20810W        W35941   5.173   0.424   4.520 -0.1589  0.1473 -0.1309
20811W        W35942   3.223   2.716  15.184 -0.0689  0.0658 -0.1707
20812W        W35943  10.453  12.699   3.015  0.1883 -0.4605 -0.0084
20813W        W35944   6.668   2.200  11.970  0.2386  0.1767  0.1097
20814W        W35945   8.241   6.989   0.585  0.1166 -0.2510 -0.0388
20815W        W35946   1.986   6.171   5.008  0.1860  0.0873  0.1074
20816W        W35947   8.967   4.522   0.248 -0.0784 -0.2220  0.1818
20817W        W35948  10.913   8.385  10.886  0.1856 -0.0088  0.2096
20818W        W35949  11.157  10.646  12.603 -0.0531  0.1108  0.0579
20819W        W35950  17.013  12.062  11.472  0.0380  0.0481  0.0142
20820W        W35951   3.170   3.921  13.248 -0.2489  0.0602 -0.0841
20821W        W35952   4.873   2.493  13.615  0.0760  0.2433 -0.1839
20822W        W35953  15.972  14.393  15.724  0.3350 -0.1339  0.0642
20823W        W35954   6.626   6.010  11.634 -0.2991  0.0548 -0.4826
20824W        W35955   5.343   0.692  10.781 -0.0766 -0.1054 -0.0354
20825W        W35956  13.745   3.540   2.615 -0.0171 -0.0870  0.0507
20826W        W35957   8.724  11.872  11.565 -0.2846 -0.0530 -0.1473
20827W        W35958  16.650  17.079  13.381  0.1668  0.1514  0.0670
20828W        W35959   7.373   0.459   5.071 -0.1946  0.2623 -0.1176
20829W        W35960   6.872   2.378  15.488  0.4738  0.0882  0.0211
20830W        W35961   9.041   4.224  15.996  0.0719 -0.0544 -0.1227
20831W        W35962  15.564   8.585   0.345  0.1011 -0.1070  0.1754
20832W        W35963   1.380  10.463  12.125  0.0587  0.0138  0.2983
20833W        W35964   2.518   0.907  14.274  0.1010 -0.1008  0.1256
20834W        W35965   5.707  13.512   1.877  0.1479  0.0262  0.0414
20835W        W35966  15.547   7.325   1.953  0.2865  0.1324 -0.1945
20836W        W35967  16.926  15.929   4.397  0.1699 -0.0701  0.1722
20837W        W35968  10.646   3.378  14.166 -0.1074 -0.0749 -0.0592
20838W        W35969  13.101   0.285   0.018  0.3082  0.0331  0.0895
20839W        W35970   5.295   8.076  16.105  0.2065  0.0689 -0.3327
20840W        W35971  17.285   7.341  13.950 -0.0274 -0.2770 -0.1770
20841W        W35972  17.539  15.638   1.119  0.0290 -0.0982 -0.0567
20842W        W35973   1.118   2.048   4.569 -0.2524  0.1252 -0.0511
20843W        W35974   9.322   4.651  14.648  0.0659 -0.1404  0.0664
20844W        W35975   5.492  11.013   3.684 -0.0720 -0.1048 -0.0801
20845W        W35976   0.735  16.020   0.640  0.1609 -0.1083  0.0470
20846W        W35977  14.329   6.516  12.617  0.1605  0.2368  0.1272
20847W        W35978   0.943   8.151  15.244 -0.2824  0.0398  0.0037
20848W        W35979  13.241   2.835   3.184  0.3939  0.0730 -0.2529
20849W        W35980  10.082   8.044  10.656 -0.1101 -0.0376  0.0217
20850W        W35981  15.263  11.090  15.389 -0.4153  0.2817  0.0291
20851W        W35982   9.942  11.365   3.111 -0.0385 -0.3640 -0.2947
20852W        W35983  14.554   2.041  10.796  0.2129  0.0005  0.3167
20853W        W35984   3.623   6.792   0.846 -0.0562 -0.1190  0.0080
20854W        W35985  15.740   4.066   5.765  0.5265  0.0075  0.1069
20855W        W35986  16.301   1.976   2.208  0.1719 -0.0755  0.1624
20856W        W35987  12.357  11.692   1.824 -0.1698  0.0014  0.1853
20857W        W35988   2.845   8.967  11.852  0.1224 -0.0822  0.2953
20858W        W35989   9.887   4.796  15.726  0.2894 -0.0564 -0.1166
20859W        W35990  17.868   7.315  13.334  0.3153  0.2394  0.0011
20860W        W35991   0.104   4.645  15.562 -0.0416 -0.1533 -0.1930
20861W        W35992  16.403  10.664  10.842 -0.1446 -0.1236  0.1108
20862W        W35993  14.990   4.032   5.032 -0.0256 -0.1325 -0.1348
20863W        W35994   2.107   1.655  11.703  0.0127 -0.1866 -0.0855
20864W        W35995   6.337   3.220  15.740  0.4143 -0.0878  0.2243
20865W        W35996  16.635   5.256   4.312 -0.0383  0.1284 -0.1154
20866W        W35997   4.854   5.086  12.932 -0.1492 -0.0851  0.2662
20867W        W35998  10.774   0.038  13.951 -0.1397  0.4308  0.1414
20868W        W35999  16.520  14.261  15.168  0.3370  0.0873 -0.1193
20869W        W36000   8.883  10.616  11.014  0.3666  0.1029 -0.0867
20870W        W36001  13.284  11.874   1.297  0.1821 -0.0869 -0.1131
20871W        W36002  16.335   1.486   0.540  0.1799  0.2190 -0.0901
20872W        W36003  11.477   9.700  15.011 -0.2973  0.0214  0.1366
20873W        W36004   2.059  12.247   5.223  0.1811 -0.2411  0.1809
20874W        W36005   5.469   7.421  10.811  0.0072 -0.1960  0.2706
20875W        W36006   8.833   0.805   1.093 -0.4044 -0.1494  0.0609
20876W        W36007  15.871   5.580  11.244  0.1713 -0.2513 -0.1748
20877W        W36008   0.622   9.130   4.611  0.3518 -0.0456  0.1860
20878W        W36009   3.020  16.712   4.671 -0.0562 -0.0852  0.2021
20879W        W36010  15.930  15.671  12.982  0.0676  0.0320 -0.0791
20880W        W36011  10.259  12.830   0.013  0.1330 -0.0863  0.0372
20881W        W36012  14.959   5.457  14.235 -0.2274 -0.1186 -0.0547
20882W        W36013  14.592  13.019  14.382  0.1749  0.3742 -0.1664
20883W        W36014   4.951   2.090   3.323  0.0083  0.1550 -0.1571
20884W        W36015   1.372   5.060   5.267  0.1168  0.0452 -0.3242
20885W        W36016   8.221  13.385   3.561  0.0647 -0.0261  0.2251
20886W        W36017  14.245   1.320  13.946 -0.0865 -0.0842  0.0500
20887W        W36018   8.976   1.849  11.818 -0.1208 -0.2112  0.0700
20888W        W36019   2.096   1.833   1.406 -0.0234 -0.1631 -0.0181
20889W        W36020   2.671   4.848   2.811  0.1010  0.1191 -0.2833
20890W        W36021   2.258   1.510  14.964 -0.0176  0.0073  0.0640
20891W        W36022  15.820   3.161   2.116 -0.1039 -0.0684  0.3096
20892W        W36023   8.425  17.811   0.296  0.1032  0.4486 -0.2131
20893W        W36024   6.686   7.317   0.585 -0.2166 -0.1885 -0.0766
20894W        W36025   3.708  14.238   4.912 -0.0381 -0.0126 -0.0494
20895W        W36026  14.767   6.147   1.432  0.1725  0.1604 -0.2277
20896W        W36027  16.421   3.201  15.614 -0.5100 -0.1467 -0.0462
20897W        W36028  10.792   8.605  15.128 -0.3720  0.0526  0.4321
20898W        W36029  14.677   7.628   4.626  0.2620  0.0911 -0.0097
20899W        W36030   4.339   1.121  11.393 -0.1571  0.2659 -0.0391
20900W        W36031   4.311   9.102   5.691  0.1215  0.0294 -0.1554
20901W        W36032   6.015   9.283   0.677  0.0845  0.0028  0.2571
20902W        W36033  16.722  11.586  14.696  0.0853 -0.1758  0.0107
20903W        W36034  17.953   5.846  11.238 -0.1957  0.1366 -0.2622
20904W        W36035   8.414  14.923  11.192 -0.1361 -0.0885  0.1287
20905W        W36036   0.947   5.536  15.317  0.0401 -0.0240 -0.0103
20906W        W36037   1.735  10.860   0.673  0.0305 -0.0829  0.3059
20907W        W36038   9.583   4.746  15.101 -0.2605  0.1813 -0.0067
20908W        W36039   1.718  10.326  14.836  0.2542  0.4651  0.0229
20909W        W36040  10.589  12.751  11.031 -0.1819 -0.1507 -0.1884
20910W        W36041   3.038   0.482  14.748  0.0154  0.0386 -0.1948
20911W        W36042  14.614   1.626  12.365 -0.0793 -0.2055 -0.1228
20912W        W36043  16.801  14.579   1.352 -0.1669 -0.2788  0.2246
20913W        W36044   6.075   2.177  11.344  0.2949 -0.0425  0.0246
20914W        W36045   2.575   0.911  11.123  0.0572 -0.3040 -0.0734
20915W        W36046   0.958   7.554  11.241 -0.2346 -0.0711 -0.0532
20916W        W36047  15.816  18.111   2.370  0.2311  0.1026  0.0279
20917W        W36048  11.931   6.897  12.915 -0.1211 -0.0383  0.1040
20918W        W36049  11.435   2.432   3.613  0.0891 -0.0848 -0.1280
20919W        W36050  10.219   0.967   1.647 -0.2623 -0.0693  0.4154
20920W        W36051   3.509  10.396   4.595 -0.2120 -0.1500  0.1353
20921W        W36052   9.678  10.295   0.240 -0.0537 -0.1043  0.1817
20922W        W36053  16.877  16.713   6.439  0.0842  0.0735 -0.0921
20923W        W36054  15.128  12.296  13.455 -0.1362 -0.1654  0.1699
20924W        W36055   1.871  17.711  10.931 -0.1807  0.2376  0.1103
20925W        W36056  16.859  13.054   4.425  0.1756  0.0183 -0.0635
20926W        W36057  15.029  14.617  12.053 -0.0724  0.0545  0.1011
20927W        W36058  17.463   0.884   4.336 -0.0155  0.2620 -0.0920
20928W        W36059  12.670   5.459  11.924  0.1938 -0.1104 -0.1236
20929W        W36060  17.467   0.358  11.249  0.1724  0.1089 -0.2812
20930W        W36061  17.409   6.450   2.980  0.1243  0.2424  0.2412
20931W        W36062   1.233   1.159   2.241 -0.1563  0.0492  0.0462
20932W        W36063   2.334   8.021   3.440  0.3171  0.1793 -0.1962
20933W        W36064  17.051   4.618   1.534 -0.1227 -0.0371  0.0125
20934W        W36065  14.312  17.584   1.238  0.3143  0.2946 -0.1007
20935W        W36066  17.860   0.559  11.522  0.2088  0.1263 -0.0562
20936W        W36067  15.500  14.415   0.459 -0.0277 -0.2401  0.0903
20937W        W36068  16.588   6.581   4.288  0.0132 -0.2236  0.1290
20938W        W36069   8.295   1.012   1.197  0.0292  0.1030 -0.0073
20939W        W36070  10.546   4.098   1.343 -0.0880  0.0834 -0.0611
20940W        W36071  17.798  17.588   4.538 -0.1836  0.0224  0.1583
20941W        W36072  10.638   4.915  11.688  0.1582  0.1632 -0.0626
20942W        W36073   5.804   4.849  12.806 -0.1747  0.2045 -0.1359
20943W        W36074   5.325  15.639   2.019  0.1880 -0.2069  0.0343
20944W        W36075  17.817  17.181   5.544 -0.0193  0.2486  0.1476
20945W        W36076   3.234  16.275  11.551 -0.3540  0.0611 -0.1228
20946W        W36077  17.817   8.583   1.242 -0.0118  0.3365  0.1760
20947W        W36078  16.243  10.590   1.783 -0.2329 -0.2738  0.2329
20948W        W36079   2.071  12.658  14.931  0.4006 -0.2612 -0.2450
20949W        W36080   3.639   4.588   4.623  0.0039  0.1461 -0.1435
20950W        W36081   0.059  12.272   1.098 -0.1104 -0.1298  0.4105
20951W        W36082  13.129  13.874  15.972 -0.1132 -0.1572 -0.3980
20952W        W36083   5.127  17.890  14.768 -0.0968  0.2244 -0.1502
20953W        W36084  17.096   2.110   5.212  0.3560 -0.0588 -0.0481
20954W        W36085  12.741   6.427  15.781 -0.1263 -0.0970  0.0876
20955W        W36086  15.748   9.584   3.736 -0.2068 -0.2296  0.0245
20956W        W36087   7.757   5.294  10.285  0.0852  0.4510  0.1611
20957W        W36088  12.768  18.083  16.228 -0.2598 -0.4200 -0.4387
20958W        W36089  17.332   7.814   3.855 -0.0384 -0.0339  0.1127
20959W        W36090   7.026  14.493   0.286  0.0495 -0.0556 -0.0812
20960W        W36091  15.680  15.635   0.033 -0.0132  0.2820 -0.0504
20961W        W36092   0.096  13.098   1.445 -0.0838  0.1456 -0.3046
20962W        W36093   9.347   6.672  13.684  0.2126  0.3946  0.1608
20963W        W36094  16.441   0.629  12.144 -0.0820  0.0295  0.1602
20964W        W36095   5.787   9.294  14.325 -0.3801  0.3246  0.0440
20965W        W36096   8.213  14.148   3.155  0.4007  0.0940 -0.0366
20966W        W36097   2.614   1.071   9.797 -0.1727 -0.1657 -0.1715
20967W        W36098   5.078   4.214   2.892 -0.2779  0.2745 -0.1136
20968W        W36099  10.628  18.105  16.224  0.1880 -0.2772 -0.1392
20969W        W36100   2.848  15.563  12.341 -0.0930  0.0484 -0.0364
20970W        W36101  16.603   6.243   1.669  0.4596 -0.0674 -0.3036
20971W        W36102   9.280   8.747   4.583 -0.1632  0.3585 -0.0820
20972W        W36103   4.572   7.826  10.531  0.0107 -0.3187  0.0563
20973W        W36104  14.973   7.799  11.289  0.4962  0.1322 -0.0191
20974W        W36105  13.957  14.262   3.393 -0.0180  0.1565  0.2248
20975W        W36106   6.469   7.128  12.843  0.1370  0.1298  0.0753
20976W        W36107   1.166  11.643  13.276 -0.0675  0.2572 -0.0252
20977W        W36108   1.150   5.607  11.173 -0.2811  0.0004 -0.2214
20978W        W36109  12.575   2.879   1.797  0.0271 -0.2343 -0.3611
20979W        W36110  17.636  15.612  14.064 -0.1693  0.2834  0.2081
20980W        W36111   2.639   0.250  15.058  0.1640  0.3429 -0.4526
20981W        W36112   5.691   4.351   1.668 -0.0425  0.0413 -0.2974
20982W        W36113   8.327   5.682  13.759 -0.4164 -0.2062  0.2973
20983W        W36114   0.400  12.547   3.731 -0.0223 -0.0146  0.3027
20984W        W36115  11.488  12.617  13.780 -0.2041  0.1020 -0.0508
20985W        W36116   1.215   7.152   1.046  0.0267 -0.0675  0.1808
20986W        W36117  17.662   8.380   2.380  0.1007  0.2241 -0.0012
20987W        W36118  16.213   1.837  14.336  0.0545  0.5033  0.2152
20988W        W36119  11.261  14.820   5.362 -0.1572  0.4294  0.0983
20989W        W36120  15.808  17.221   0.474  0.0113 -0.0507 -0.1833
20990W        W36121   9.361   7.772  11.739  0.0116  0.1031  0.0487
20991W        W36122  15.390   9.820  11.143  0.0601 -0.1924  0.1758
20992W        W36123  10.358  10.225   4.690 -0.1140 -0.3355 -0.2250
20993W        W36124  14.047   2.730   1.951  0.3722  0.0462  0.2680
20994W        W36125   1.354  10.813   6.050 -0.1093 -0.0883  0.0457
20995W        W36126   6.652  11.052   1.814 -0.1527  0.1929  0.4422
20996W        W36127  13.115  15.713  11.887 -0.2186  0.2938  0.0266
20997W        W36128   2.653   2.682   2.681 -0.0846 -0.2081 -0.0312
20998W        W36129   5.640   5.413  16.226 -0.0788  0.0481  0.1058
20999W        W36130  15.337  10.877  12.666  0.1500  0.0568  0.0771
21000W        W36131  11.039  13.346  14.986 -0.3419 -0.0363 -0.0783
21001W        W36132  16.886  13.874   6.262 -0.0343 -0.1416  0.0736
21002W        W36133   7.927   6.929  14.688  0.2062 -0.1635 -0.0716
21003W        W36134   0.233   0.630   4.453  0.1072 -0.0351 -0.2047
21004W        W36135   8.774  14.206   4.359 -0.2406 -0.2765  0.3989
21005W        W36136   7.963  11.700   2.164  0.2856 -0.1361 -0.1113
21006W        W36137   9.169  15.697  11.000 -0.0914  0.0507 -0.2028
21007W        W36138  12.282  17.577   5.436 -0.0580 -0.0073 -0.0850
21008W        W36139  17.314   2.340  14.921 -0.1744  0.2089 -0.0087
21009W        W36140   6.002   0.451   0.122  0.1802  0.1183 -0.0517
21010W        W36141  17.225   6.479  12.113  0.2068  0.1643 -0.0107
21011W        W36142   2.592  10.164   3.074  0.0731 -0.0615 -0.5037
21012W        W36143  15.403   6.256  14.296 -0.3654 -0.0388 -0.1827
21013W        W36144  13.991   4.263  15.154  0.0601 -0.1708  0.1830
21014W        W36145  12.693   3.657  12.379 -0.0417  0.3331  0.0748
21015W        W36146  14.028  17.675  14.674 -0.0717  0.0077 -0.0743
21016W        W36147  17.775   4.417   4.312  0.1490  0.0207  0.0197
21017W        W36148   0.092  10.387  14.681  0.1312  0.0522  0.0634
21018W        W36149   6.890  17.080   2.269 -0.0810  0.1264 -0.2364
21019W        W36150  10.206   4.893   0.182 -0.0504 -0.0504  0.1214
21020W        W36151   0.794   6.008   5.812 -0.2049 -0.0143 -0.4444
21021W        W36152  12.867  13.178   5.069 -0.1346  0.3497 -0.3351
21022W        W36153  10.422  16.433  13.632 -0.1061 -0.1424  0.1821
21023W        W36154  14.205   6.935  14.791 -0.0554 -0.0945  0.1007
21024W        W36155  17.171   1.270  15.839  0.0044 -0.1392  0.2615
21025W        W36156   4.674  17.874  12.813  0.1363  0.1192 -0.0380
21026W        W36157  10.902   7.045   1.563  0.1104  0.0680  0.3126
21027W        W36158  13.716   1.485   1.642 -0.2553 -0.1002  0.0808
21028W        W36159   5.746  12.160  14.833 -0.1511 -0.2140  0.4701
21029W        W36160   8.472   4.385   2.154  0.1323 -0.1174 -0.2385
21030W        W36161   9.531  17.764  12.959 -0.2704  0.0912  0.5020
21031W        W36162   8.451   8.764   5.853  0.0994 -0.1496 -0.1387
21032W        W36163  13.488   2.480  13.332  0.1827  0.2251 -0.1381
21033W        W36164   4.669   7.350  13.818 -0.2255 -0.2896 -0.0278
21034W        W36165  12.622  11.261   1.412  0.2057  0.1886  0.1837
21035W        W36166  13.347   8.752  13.439  0.2506 -0.0482  0.0277
21036W        W36167   9.258  10.271  11.718 -0.2766  0.0542  0.2207
21037W        W36168   6.593  14.273   1.187  0.3642  0.0155 -0.1967
21038W        W36169  15.583   9.289   2.927 -0.1912 -0.0447  0.4357
21039W        W36170   9.768   3.030   3.074  0.0589 -0.2166  0.0648
21040W        W36171  16.708   3.804  15.527 -0.1460 -0.2084 -0.0261
21041W        W36172  14.452   3.042   2.488  0.0432 -0.0154 -0.1307
21042W        W36173   0.964  16.668   1.174  0.1206 -0.2327 -0.0589
21043W        W36174  14.045   7.917   0.589 -0.1934  0.2409 -0.0180
21044W        W36175   5.059  16.251  14.206 -0.1331 -0.1184  0.0458
21045W        W36176   9.982   0.814  16.023  0.0244  0.0167  0.3012
21046W        W36177  17.909   5.693   5.014  0.1731 -0.1847 -0.0098
21047W        W36178   1.292   0.456   4.250  0.0670 -0.1894 -0.2846
21048W        W36179   8.886   7.741  13.700  0.0753  0.1418  0.0179
21049W        W36180   7.752   5.898   3.872  0.0130  0.2003 -0.1236
21050W        W36181   3.831   5.617   2.342  0.3238  0.2547 -0.0545
21051W        W36182   0.853  10.624   4.807  0.2734  0.0848  0.2856
21052W        W36183   9.846  13.636  16.035  0.4535  0.0460 -0.1050
21053W        W36184   4.406   8.819  16.132 -0.2510 -0.0459 -0.0569
21054W        W36185  11.745   6.018   1.437 -0.0379 -0.3159 -0.3507
21055W        W36186   8.474   5.239   2.413  0.2032  0.0738  0.0232
21056W        W36187   6.467   2.447   2.250 -0.1998 -0.0017  0.1133
21057W        W36188  13.787  13.471  16.056 -0.3798 -0.1026 -0.1525
21058W        W36189   2.218   4.775  11.872  0.0546 -0.0801 -0.1547
21059W        W36190   8.471   4.608  14.351 -0.0702 -0.1524  0.1144
21060W        W36191   5.794   9.805   0.555  0.1590  0.1745  0.0826
21061W        W36192  12.678  13.781   2.006  0.3274  0.1236 -0.1964
21062W        W36193   3.003  11.984  15.596  0.0943  0.3174 -0.0911
21063W        W36194   1.038   3.790   4.801  0.2593  0.2603 -0.0430
21064W        W36195  15.526   3.634   5.117 -0.0207 -0.1498 -0.1462
21065W        W36196   9.075  14.900   2.230 -0.1839  0.1428 -0.1251
21066W        W36197   5.118   8.918  13.962 -0.2057 -0.2930  0.1014
21067W        W36198  16.429   0.438   1.639 -0.3175  0.0952  0.2873
21068W        W36199  14.376  15.809   3.824  0.0951 -0.1658 -0.0199
21069W        W36200  16.378  12.049   3.528 -0.1125  0.2388  0.1390
21070W        W36201  12.675  12.983  14.076 -0.1611 -0.3816  0.3889
21071W        W36202   5.236   9.082   1.563 -0.1406 -0.0812  0.1836
21072W        W36203   2.614   6.473   6.117 -0.0059 -0.1871  0.1108
21073W        W36204   7.423   8.249   0.715  0.1079 -0.0847 -0.0459
21074W        W36205  11.738  17.140   0.679  0.1560  0.0543  0.1272
21075W        W36206  13.013   4.695  15.964  0.2329  0.2133  0.0628
21076W        W36207   4.974  16.942   1.711  0.1961  0.1343  0.0906
21077W        W36208   9.501  14.328  13.765 -0.0741 -0.2573 -0.0190
21078W        W36209  12.851   9.184  15.918  0.1973  0.0979 -0.0007
21079W        W36210   4.529   7.751   1.622  0.0506 -0.1961 -0.0977
21080W        W36211   4.829  15.470   0.369  0.0762  0.0213 -0.1048
21081W        W36212  12.081   7.903  12.477  0.2099  0.2613 -0.3273
21082W        W36213   9.614  14.131   0.640 -0.0896  0.0752 -0.0196
21083W        W36214  11.195  17.222   2.740 -0.2450 -0.1048  0.0193
21084W        W36215   2.595   7.762   5.629  0.3895  0.0247  0.3229
21085W        W36216   0.645   8.783   1.017 -0.2247  0.0226  0.1603
21086W        W36217  12.060   3.840   3.980 -0.0979  0.2088  0.0770
21087W        W36218   6.011   9.393  13.126  0.0702 -0.1208  0.4431
21088W        W36219   8.525   4.393  14.803 -0.1420 -0.0244 -0.0575
21089W        W36220  18.006   8.169  12.278 -0.0819 -0.1001  0.2865
21090W        W36221  16.552   8.823   1.711  0.1077  0.1648 -0.0520
21091W        W36222   1.836  14.140  15.743 -0.2121 -0.1992 -0.1745
21092W        W36223   0.226  17.921   3.326 -0.0274 -0.0066 -0.1940
21093W        W36224   0.826   3.542  13.929 -0.2699 -0.2193  0.3536
21094W        W36225  12.792  16.262  11.408 -0.1285 -0.1704  0.0019
21095W        W36226  13.454  10.218  12.200  0.3785 -0.1583  0.1809
21096W        W36227   7.691   1.619   3.857 -0.0044 -0.3913  0.0768
21097W        W36228   6.186   2.176  11.896  0.1549  0.0058  0.0870
21098W        W36229   9.874  12.268   4.694 -0.0975 -0.0841 -0.0219
21099W        W36230  12.523   4.087   3.965  0.1229  0.1126 -0.0732
21100W        W36231  14.573  15.054  13.606 -0.1379  0.3327 -0.1504
21101W        W36232   6.740   8.811   2.704 -0.2296 -0.1009  0.1674
21102W        W36233   5.787  12.624   0.027  0.0584  0.4100 -0.0892
21103W        W36234   3.684  10.757  15.358 -0.0673 -0.1039  0.0588
21104W        W36235   2.661   5.513   4.104  0.0589 -0.0391 -0.0667
21105W        W36236  10.057   3.382  15.001 -0.0300 -0.1460  0.1550
21106W        W36237  17.326   9.845  15.541 -0.0587  0.0274 -0.1067
21107W        W36238   9.487  15.855  13.505 -0.1278 -0.2180 -0.2784
21108W        W36239  14.386  10.570  15.540 -0.1028 -0.2013  0.2527
21109W        W36240  15.085  16.856   0.893  0.0709 -0.0537  0.1270
21110W        W36241   7.402  14.327   4.510  0.2010  0.1641 -0.0859
21111W        W36242  10.217  18.131  13.751 -0.0180  0.0298 -0.4165
21112W        W36243   9.636  11.613   3.471 -0.3010  0.1024  0.3155
21113W        W36244   9.674  14.143   3.283  0.0547 -0.1178  0.0193
21114W        W36245  11.983   8.328  14.455 -0.3169 -0.1757 -0.3239
21115W        W36246   1.321   3.955  14.147 -0.1509  0.0215 -0.0710
21116W        W36247   2.807   5.387   0.925 -0.2682  0.2074 -0.0746
21117W        W36248   8.805  14.334  14.773  0.1303 -0.0549  0.0107
21118W        W36249   8.601   7.184  10.583 -0.1509 -0.0564  0.0849
21119W        W36250   8.377  13.063   2.245  0.0361  0.1216 -0.3249
21120W        W36251  12.399   2.088   3.612 -0.1133 -0.2284 -0.1182
21121W        W36252   9.553   2.199   5.498 -0.1184  0.2932  0.0617
21122W        W36253   4.244  14.252   3.375  0.0787 -0.0437 -0.0205
21123W        W36254  13.313   7.701  11.341  0.2616 -0.2140 -0.2830
21124W        W36255  16.506   2.161  14.583  0.0619  0.1990  0.3471
21125W        W36256   4.740  12.075  13.669  0.0511 -0.3810 -0.2531
21126W        W36257   5.550  15.342   4.963  0.1541 -0.3300  0.3470
21127W        W36258   5.817   5.536  14.335 -0.0429 -0.2949 -0.3072
21128W        W36259   8.841  13.782  13.929  0.2302 -0.1662 -0.1108
21129W        W36260  14.412  13.576   4.562  0.1515  0.2074  0.0142
21130W        W36261  15.647   9.891   2.569  0.0461 -0.1888  0.2985
21131W        W36262  15.742  16.275   6.787 -0.0316  0.1871  0.0217
21132W        W36263   6.076  10.522  14.582 -0.1159  0.2100 -0.2047
21133W        W36264   2.866  16.061   2.776 -0.0274  0.1384  0.0243
21134W        W36265   7.717   9.371   2.248  0.0326  0.1031 -0.4367
21135W        W36266   1.529  10.080   0.981  0.2306  0.1140 -0.0184
21136W        W36267  16.802  13.685   4.675 -0.1459 -0.2763 -0.0726
21137W        W36268   0.149  10.528  12.220  0.1485  0.1046  0.1373
21138W        W36269  12.836  10.117  11.529 -0.0479  0.1939  0.0786
21139W        W36270  14.958  13.193   1.157  0.1352 -0.0779  0.0848
21140W        W36271  13.092   7.134  12.232  0.1621 -0.0289  0.2125
21141W        W36272  15.044   6.602  13.310 -0.0808 -0.0034  0.1092
21142W        W36273   3.718   4.732   2.898 -0.1567  0.0272 -0.0019
21143W        W36274   2.871  18.048  12.125 -0.0380  0.2542  0.1419
21144W        W36275   0.417   4.211  11.186  0.0535  0.0888 -0.1884
21145W        W36276   8.013   6.307   3.989 -0.1856 -0.1690 -0.0356
21146W        W36277  13.496   0.675  15.129 -0.0065 -0.1692 -0.0158
21147W        W36278   1.327  18.048   5.656  0.0738 -0.0956  0.0221
21148W        W36279  13.228  10.676   0.638  0.4524  0.2465 -0.2206
21149W        W36280   5.158   4.562   5.191  0.1269 -0.2454 -0.0432
21150W        W36281  13.161  13.508  14.710 -0.1601 -0.0222  0.0072
21151W        W36282   6.699   8.588   1.770 -0.2719 -0.1432 -0.3671
21152W        W36283   9.267  11.960  12.397  0.0832 -0.2714 -0.1225
21153W        W36284   0.366   7.292   0.521  0.2031 -0.0005  0.0298
21154W        W36285   3.043  17.478   2.907 -0.0002 -0.1247  0.2136
21155W        W36286  10.618   5.434  15.217 -0.0173  0.0762 -0.1905
21156W        W36287  18.160   2.821  11.440  0.0412 -0.0228 -0.3113
21157W        W36288  17.907   2.569   0.520  0.1410 -0.0663  0.3657
21158W        W36289  16.958  11.764   4.091  0.1757 -0.0526 -0.4110
21159W        W36290   6.766  13.098  16.066 -0.3515  0.1800  0.2389
21160W        W36291  13.555   4.923   5.218 -0.0530  0.0312 -0.1815
21161W        W36292   2.550   7.864   1.477 -0.4085 -0.2384 -0.0880
21162W        W36293   6.913  17.468   1.402 -0.2293 -0.0583  0.4148
21163W        W36294   2.298  11.274  15.550 -0.1692 -0.1944  0.2968
21164W        W36295  12.857   4.271   4.285 -0.0051 -0.2935  0.3005
21165W        W36296   2.258   3.028  15.850 -0.0246  0.0829 -0.0139
21166W        W36297   0.837   0.956   3.485  0.1483  0.3180 -0.0271
21167W        W36298   7.810   9.347  16.093  0.1663  0.0597  0.2591
21168W        W36299   7.317   3.142  13.828 -0.0351 -0.2115 -0.3230
21169W        W36300   0.233   8.287   0.442  0.0668 -0.1079  0.2708
21170W        W36301  17.174   7.605  11.935 -0.1197 -0.0493 -0.0171
21171W        W36302   9.513   4.602   1.396  0.0158 -0.1230  0.1673
21172W        W36303   1.369  12.936  14.851 -0.1223 -0.1436 -0.0435
21173W        W36304  10.235  14.040  12.712  0.1987 -0.0185  0.1865
21174W        W36305   1.093   0.328   2.855 -0.2472 -0.0052 -0.0106
21175W        W36306   0.064   2.170   5.177  0.0294 -0.1346  0.2599
21176W        W36307   5.916  11.016  11.756 -0.2166  0.1130  0.1041
21177W        W36308   4.277   4.291   5.336 -0.0690  0.3585 -0.1106
21178W        W36309   7.289  10.473  11.316 -0.0451  0.1290  0.1652
21179W        W36310  12.023  15.835   2.369  0.1504 -0.0414 -0.1420
21180W        W36311   9.849   5.312  15.812 -0.0390  0.1402  0.1912
21181W        W36312   4.727   8.190  15.490  0.1445 -0.2917 -0.0184
21182W        W36313  14.110  10.925   2.896 -0.0307 -0.0526  0.1017
21183W        W36314  14.308   5.429  12.096 -0.1555  0.3582  0.0860
21184W        W36315  11.571  11.253   3.290 -0.0601 -0.0467  0.0987
21185W        W36316   9.429   1.934   0.441 -0.2018 -0.1793 -0.0301
21186W        W36317  15.576   7.347   2.820  0.0122  0.1190 -0.1290
21187W        W36318   4.375  15.994  13.326  0.1088 -0.1875  0.0621
21188W        W36319   9.655   3.694  16.139  0.1959  0.0512  0.1497
21189W        W36320  13.564  15.765  11.726  0.3106  0.0169 -0.1609
21190W        W36321   7.431  17.814   2.934  0.0700  0.0376 -0.0873
21191W        W36322   1.159  17.998   2.988 -0.2271 -0.2443 -0.2255
21192W        W36323  12.170   7.288   1.129  0.0339 -0.0316  0.4160
21193W        W36324   5.479   6.617  15.557 -0.1276 -0.3084  0.4819
21194W        W36325  12.193   4.476  11.136 -0.1075  0.1000 -0.1403
21195W        W36326   7.495   2.798   5.211  0.0459  0.0453 -0.5518
21196W        W36327   9.332  12.865  10.831  0.1253  0.0758  0.0166
21197W        W36328   4.704   2.285  16.123 -0.0747  0.0446 -0.0085
21198W        W36329   2.105   6.883  14.542  0.1437  0.1658  0.0944
21199W        W36330  16.310   7.410   1.209  0.1553 -0.2144  0.0897
21200W        W36331   3.286   7.499   1.788 -0.1691 -0.3147  0.0347
21201W        W36332  16.518  15.783   3.350 -0.1741 -0.0759  0.0826
21202W        W36333  11.815   6.278   4.729  0.0660  0.1000 -0.1794
21203W        W36334  12.381  16.924   1.582  0.2017 -0.3103 -0.0143
21204W        W36335  13.527   4.704   0.560 -0.0797  0.1128 -0.4477
21205W        W36336   0.116   8.370   3.803  0.0115  0.0719  0.4199
21206W        W36337  17.890  11.480  14.717  0.2316 -0.0356 -0.4563
21207W        W36338   3.066   5.238  14.687 -0.0874  0.1093 -0.0227
21208W        W36339  14.544   2.262  14.094 -0.1606 -0.0666 -0.1470
21209W        W36340   5.583   6.987  15.252 -0.0759 -0.1582 -0.1371
21210W        W36341   7.419   4.674  12.642  0.4710 -0.1390 -0.1969
21211W        W36342  11.351  17.903   5.201 -0.1608 -0.0033  0.0339
21212W        W36343  17.983   3.424  11.656 -0.2855 -0.1716 -0.2905
21213W        W36344   5.881  11.063   1.180  0.0713  0.0630 -0.1212
21214W        W36345   0.820  18.178  11.504 -0.3104  0.0565  0.0061
21215W        W36346  17.524   1.205   3.316 -0.0202 -0.0374  0.1818
21216W        W36347   7.456   7.853  13.539 -0.1046 -0.1336 -0.0542
21217W        W36348   0.048  10.095  12.588  0.1681  0.2713  0.2354
21218W        W36349   8.526  16.216   3.409 -0.1164  0.1095  0.0757
21219W        W36350   3.548   3.911   1.536 -0.1093 -0.1512  0.1833
21220W        W36351  12.182  15.637  14.353 -0.3606 -0.0700 -0.3358
21221W        W36352   7.680   4.591  14.723 -0.0448  0.2417  0.0383
21222W        W36353  18.043  12.532   0.630  0.1010 -0.1524  0.2787
21223W        W36354   2.518   7.338   1.281  0.1129  0.1031  0.2539
21224W        W36355   7.344  10.774  13.520  0.2234 -0.0740 -0.0865
21225W        W36356  15.311  15.540  14.459 -0.2171 -0.0253 -0.1090
21226W        W36357   5.279  16.259  13.704  0.3143 -0.1184 -0.4979
21227W        W36358   9.529   4.193  15.806 -0.2201 -0.1784  0.0830
21228W        W36359  14.050   6.403   2.752 -0.0579  0.0004 -0.2304
21229W        W36360   2.145   8.087  13.822  0.0322 -0.3754 -0.3469
21230W        W36361  15.292  17.205   3.477 -0.0026 -0.0428 -0.1810
21231W        W36362   7.455   3.744  14.401 -0.1361 -0.1131 -0.0752
21232W        W36363   1.245  11.738   2.257 -0.1230 -0.1415  0.3240
21233W        W36364   2.193   2.202   1.690 -0.1454  0.1542 -0.0622
21234W        W36365   4.182   6.581   0.816  0.0139 -0.2149 -0.0054
21235W        W36366  16.837  10.500  14.597  0.1218  0.0482  0.0668
21236W        W36367   5.926  10.565  11.465 -0.0466 -0.0743  0.0487
21237W        W36368  11.079   6.540   5.552 -0.0298  0.1102  0.3090
21238W        W36369   9.533   6.363   4.719 -0.2930  0.1406 -0.2770
21239W        W36370   2.106   9.968   0.345  0.0566  0.0526  0.0812
21240W        W36371   0.276   6.574   6.225  0.1019 -0.1578  0.0785
21241W        W36372   3.436   7.682  12.498 -0.1176  0.2984  0.1545
21242W        W36373  12.784  18.046  12.838 -0.0174 -0.1421  0.2059
21243W        W36374  12.577   7.595  14.438 -0.0513 -0.1856 -0.1359
21244W        W36375   0.790   4.882   9.996 -0.3933 -0.0617 -0.0634
21245W        W36376   6.012  14.576   1.685 -0.1079 -0.1822  0.1334
21246W        W36377   3.239  11.250   5.828  0.4175 -0.0384 -0.2537
21247W        W36378   2.797  17.072   3.001 -0.0487  0.0639  0.2621
21248W        W36379   7.702   0.299   1.786  0.1354  0.1264  0.0189
21249W        W36380   7.036  14.619  12.100  0.0247  0.0785 -0.4792
21250W        W36381  12.960   2.474   0.238 -0.0270 -0.1875 -0.0086
21251W        W36382  11.198   1.538   1.434 -0.1335  0.0299 -0.0924
21252W        W36383  14.289  14.379   5.315  0.2544  0.1055 -0.1630
21253W        W36384   9.320  11.032  12.352 -0.0257  0.0721  0.1771
21254W        W36385   8.736   8.758   2.701 -0.0577 -0.1581  0.1165
21255W        W36386  10.707  12.381  15.996  0.0659 -0.1183 -0.2255
21256W        W36387   7.289  12.617   1.511 -0.0002  0.0519 -0.0428
21257W        W36388  11.848  10.301   2.586 -0.1906  0.0484  0.0911
21258W        W36389   3.904   0.597   4.731  0.0344 -0.0288  0.1198
21259W        W36390   7.022   1.539  12.504  0.1120  0.2913 -0.0016
21260W        W36391  11.235   3.305  10.956 -0.1272 -0.1382  0.0473
21261W        W36392  11.276  10.135  16.111 -0.1204  0.1660  0.1954
21262W        W36393  13.441   9.682   3.381 -0.0680  0.1437 -0.1783
21263W        W36394  12.488   5.514   4.045 -0.0085 -0.3984 -0.1083
21264W        W36395  12.262  11.115  10.639 -0.1179 -0.1756  0.1813
21265W        W36396   9.549   1.841  13.682  0.0183  0.2883  0.0275
21266W        W36397   4.691   0.427   2.250 -0.1282 -0.3539  0.2242
21267W        W36398   3.543   3.528  13.399 -0.2415 -0.2045  0.1617
21268W        W36399  10.732  13.078   4.147 -0.3483 -0.0402 -0.0082
21269W        W36400  14.973  14.297  15.944 -0.3441 -0.2619 -0.1028
21270W        W36401   3.009  16.964   0.021  0.0284 -0.1792 -0.0443
21271W        W36402   2.403  17.452   3.182 -0.1062  0.0711  0.2140
21272W        W36403  12.242   2.860  11.859  0.1769 -0.0178  0.2520
21273W        W36404   3.330  14.830  11.454  0.1699 -0.0697  0.2846
21274W        W36405   6.247   9.478   3.774 -0.1720  0.0321  0.3090
21275W        W36406   0.038   5.107   5.668  0.0009 -0.0240 -0.4778
21276W        W36407  16.711   9.411  11.510 -0.1152  0.3985 -0.2278
21277W        W36408   6.531   8.103   0.295 -0.2356  0.0479  0.2038
21278W        W36409  16.961   7.695   4.284 -0.1036  0.0785 -0.0895
21279W        W36410   6.842   6.176   3.303 -0.0450 -0.0471  0.1421
21280W        W36411   1.026   4.602  14.252 -0.0063  0.1819 -0.1212
21281W        W36412   0.803  13.313  11.646 -0.0798  0.0286 -0.0667
21282W        W36413  16.576   7.773  15.388  0.0946  0.2196 -0.0369
21283W        W36414   3.879   6.026  15.390  0.1440  0.0344 -0.1427
21284W        W36415   3.491  12.645  11.724 -0.0163  0.0325 -0.1731
21285W        W36416   2.791   8.836  13.703  0.1486  0.1285 -0.0724
21286W        W36417   4.352  16.379   5.068 -0.4779  0.0096  0.0004
21287W        W36418  14.521   7.479  12.362 -0.2224  0.1450 -0.0324
21288W        W36419   7.294  10.777   1.437  0.2017  0.1605 -0.4085
21289W        W36420   9.219   1.908   2.878 -0.0891 -0.1515  0.2525
21290W        W36421   4.925   3.807   5.979 -0.0950 -0.2936 -0.1171
21291W        W36422   6.247   5.755  11.143 -0.5045  0.0352 -0.1902
21292W        W36423   8.528  13.643   2.014  0.1331 -0.1093  0.1326
21293W        W36424  10.509   5.523   4.032  0.1141  0.0977  0.1627
21294W        W36425  15.632   4.978  12.863  0.2750  0.1597  0.1836
21295W        W36426   9.126  14.591  16.180  0.1638  0.1890 -0.3674
21296W        W36427  10.528   4.032   3.616 -0.3088  0.0906 -0.3141
21297W        W36428  11.883   4.175   4.636 -0.3489  0.0011 -0.1124
21298W        W36429  11.880   4.864  13.196 -0.0468  0.0792 -0.0217
21299W        W36430  15.092   1.698   4.906  0.0830  0.0632  0.0667
21300W        W36431   6.941   7.106   3.870  0.1055 -0.2564  0.3511
21301W        W36432  11.232  14.930  16.107 -0.1789 -0.1203  0.1065
21302W        W36433   5.564  13.470   1.024 -0.3132  0.0160  0.2504
21303W        W36434  15.757  10.705   5.524 -0.0180 -0.2281 -0.1585
21304W        W36435  16.699  10.011  14.328 -0.0766  0.0060  0.6043
21305W        W36436   0.674   0.353  14.998 -0.1578  0.0540  0.0232
21306W        W36437   5.860   6.007  13.313  0.1008  0.1861  0.1242
21307W        W36438   7.851  10.892  11.004  0.2579 -0.0346  0.2640
21308W        W36439   4.846   3.180   1.280 -0.1241  0.2101  0.0082
21309W        W36440   8.318   8.074   1.345  0.1797  0.0803 -0.0252
21310W        W36441   0.320   5.163  13.190 -0.1571  0.0657  0.1004
21311W        W36442   9.815   6.704   6.143  0.3262 -0.1227 -0.0808
21312W        W36443   8.149   5.354  15.229  0.2416  0.1162  0.2235
21313W        W36444  17.560   1.319   5.641  0.1848  0.4099  0.2016
21314W        W36445  17.448   7.228  14.377 -0.3889 -0.0486 -0.3985
21315W        W36446   4.246   9.196  11.040 -0.0098  0.2512 -0.4251
21316W        W36447  15.656   7.977   3.198  0.0218  0.0141 -0.1234
21317W        W36448  14.540   3.494  14.921 -0.3729 -0.1517  0.2013
21318W        W36449  12.962   9.589   3.087  0.0795 -0.2058  0.1656
21319W        W36450  17.354   4.808   5.423 -0.0411  0.1174 -0.1028
21320W        W36451   8.288  14.791   3.329 -0.0751  0.0614 -0.0890
21321W        W36452   2.999   6.063  15.674 -0.1446 -0.2253  0.0299
21322W        W36453   7.460  14.847   5.046  0.2151 -0.1349  0.2154
21323W        W36454   9.390   7.845   1.477 -0.0192 -0.1397  0.1744
21324W        W36455   2.213  10.446   4.500  0.2902  0.3473  0.1759
21325W        W36456   4.092   3.903  15.503 -0.3189  0.2844  0.2598
21326W        W36457   4.071   6.011   0.716 -0.1719 -0.0849 -0.2782
21327W        W36458   6.243   8.588  14.860 -0.0227 -0.1596  0.0985
21328W        W36459   1.802  10.857   2.648 -0.1582 -0.1299  0.0465
21329W        W36460   2.760   7.910  13.278 -0.1252  0.3227  0.1012
21330W        W36461   0.598   4.867  14.786  0.0275  0.1676 -0.0717
21331W        W36462   8.752   6.954  15.578  0.0292  0.3296  0.1535
21332W        W36463   3.163  16.765   2.176  0.0110 -0.3321  0.0587
21333W        W36464  12.552  14.166   4.302 -0.0574 -0.0856  0.1163
21334W        W36465  13.037  16.630   2.407  0.2042  0.0167 -0.0973
21335W        W36466  17.527   7.682  14.685  0.2408 -0.1658 -0.0107
21336W        W36467  15.309   8.262  11.544 -0.0657  0.2228  0.0832
21337W        W36468  15.114  12.241   5.553  0.8440  0.1263  0.1543
21338W        W36469  16.566  17.716   0.721 -0.0207 -0.0412  0.0318
21339W        W36470  17.092   7.281  14.756 -0.0217 -0.2959 -0.3005
21340W        W36471  16.373  16.788  15.456 -0.4542  0.1588 -0.1752
21341W        W36472  10.083  16.987  13.768  0.1801 -0.0159  0.0117
21342W        W36473   8.524   9.513  13.146 -0.0787  0.3181 -0.3079
21343W        W36474   8.433  10.892  10.217 -0.1772 -0.0688 -0.1698
21344W        W36475   3.795   1.187   0.815  0.0991  0.0923 -0.0475
21345W        W36476   2.956   5.023   2.383  0.0371 -0.1614 -0.1383
21346W        W36477   5.484   8.737   6.016  0.1277  0.1060 -0.1502
21347W        W36478   5.840   5.451   2.324  0.0137  0.0596  0.3480
21348W        W36479  13.941  11.265   4.297  0.0745  0.2852  0.0090
21349W        W36480   5.149  13.107  14.830 -0.2260 -0.1785  0.0509
21350W        W36481   5.730   2.688  13.086 -0.0478 -0.1077  0.1241
21351W        W36482   9.866   4.054   5.134  0.0621  0.0143 -0.0362
21352W        W36483  18.116   8.954  13.629  0.0813 -0.0470  0.1120
21353W        W36484  10.794   0.485  10.429 -0.0539  0.0926 -0.0329
21354W        W36485  12.277   5.912  13.587  0.2798  0.0529 -0.0618
21355W        W36486   6.258  12.593  13.481 -0.1311  0.0935 -0.0463
21356W        W36487   3.402   9.017  12.017 -0.2305 -0.0256  0.2122
21357W        W36488  17.174   1.538   3.983  0.0968  0.1569  0.1229
21358W        W36489  16.157  13.449  11.365 -0.4051 -0.2368  0.1888
21359W        W36490  17.315  12.639  14.076 -0.0495 -0.1716 -0.1097
21360W        W36491   7.321  16.826  13.895  0.0547  0.3492  0.3909
21361W        W36492   7.272   2.134   2.438  0.0908  0.0429 -0.1963
21362W        W36493  10.152  17.831  11.662 -0.3495 -0.1318 -0.0004
21363W        W36494   6.924  16.765  15.587  0.1603  0.2752 -0.0774
21364W        W36495  11.393  17.209  11.868  0.2113 -0.0037 -0.2459
21365W        W36496  10.532   8.344   1.910 -0.1972 -0.1889  0.0407
21366W        W36497  11.271   1.096   5.893  0.1764 -0.4631 -0.1964
21367W        W36498  12.305  11.527   5.287  0.2747 -0.3662  0.0713
21368W        W36499  11.092  12.568   0.749  0.0498 -0.0001  0.0972
21369W        W36500  14.384  12.637  14.940  0.2181  0.0412  0.2215
21370W        W36501   4.466  12.688  12.957  0.0860  0.1129  0.0369
21371W        W36502  10.054   9.199  12.177  0.1234  0.1826  0.2746
21372W        W36503  10.498  17.793  13.945 -0.0902  0.0931  0.4148
21373W        W36504   1.041  12.136   3.159 -0.2374 -0.1067  0.0049
21374W        W36505  15.088  16.185  12.727 -0.0824  0.2131 -0.0287
21375W        W36506   6.403   3.742  11.920 -0.3724 -0.2922  0.1296
21376W        W36507  10.984  13.766   5.065 -0.2601 -0.3133 -0.2276
21377W        W36508   2.351  18.010  13.990  0.1487  0.1418  0.0190
21378W        W36509  11.522   5.609   4.292 -0.0013 -0.3831  0.1208
21379W        W36510  14.979  14.237  14.507  0.0750 -0.0215 -0.3047
21380W        W36511  16.284  16.862   1.774  0.1802 -0.1938 -0.1868
21381W        W36512   0.678  13.474  14.661 -0.1199  0.2765 -0.1823
21382W        W36513  13.655   3.890   2.996  0.1772 -0.2701  0.0233
21383W        W36514  16.303  10.617   4.338  0.2653 -0.1045  0.0833
21384W        W36515  10.909   2.926  15.936  0.0985  0.0238 -0.1178
21385W        W36516  16.466  10.005  12.085 -0.2819  0.3164  0.1006
21386W        W36517  14.144   3.575  13.329  0.4047  0.1242 -0.0359
21387W        W36518   8.735  17.762   1.339 -0.1507  0.0667  0.2879
21388W        W36519  15.227   0.639   0.014  0.0060 -0.1780  0.0027
21389W        W36520  15.425   4.849  14.072  0.1764  0.0134  0.0010
21390W        W36521  16.514   6.236  15.721 -0.0892  0.0917 -0.0132
21391W        W36522  10.342   5.368   1.683  0.0422  0.0815  0.2002
21392W        W36523  14.127   1.224  14.862 -0.3059  0.0193  0.0044
21393W        W36524  14.558  10.721   0.222 -0.0294  0.2561  0.2191
21394W        W36525  17.515   1.278  11.495 -0.3736 -0.2065  0.3067
21395W        W36526  15.514   9.307   4.202  0.0445  0.0069  0.0807
21396W        W36527   9.144   5.134   2.239  0.0331 -0.0017 -0.2074
21397W        W36528  13.119   6.383   5.062  0.3172 -0.0023  0.0070
21398W        W36529   0.149   9.711   2.988 -0.0722  0.3964 -0.0070
21399W        W36530   1.806   5.122   1.691  0.6671 -0.2108 -0.0103
21400W        W36531  10.898  18.018   2.556 -0.4159  0.0281  0.4608
21401W        W36532  14.200  16.180  13.725 -0.2445 -0.3211  0.0121
21402W        W36533   0.265  13.530  12.646  0.1389 -0.0894  0.0462
21403W        W36534  12.619  13.893  11.972  0.0696 -0.0162  0.1123
21404W        W36535   9.942   4.570   2.019  0.0144 -0.2766 -0.2367
21405W        W36536   8.929   2.585   0.219  0.3555  0.3302  0.2153
21406W        W36537  10.411  10.563  15.110 -0.0249 -0.1074  0.1012
21407W        W36538   3.010   1.972   5.533 -0.0428 -0.0883  0.3777
21408W        W36539   9.361   3.051   2.062  0.0997  0.3253  0.2692
21409W        W36540  15.055  11.323   4.047  0.1298  0.1886 -0.0875
21410W        W36541   0.750   8.149  11.805 -0.1164  0.0266  0.2006
21411W        W36542   3.867  11.700   3.234 -0.0134  0.1127  0.1728
21412W        W36543   6.612   7.633  15.844  0.1469 -0.4027 -0.2663
21413W        W36544  17.957  17.916  12.120 -0.0684 -0.0655 -0.2876
21414W        W36545   2.867   8.852   1.676 -0.2121 -0.0773 -0.1423
21415W        W36546  13.780  13.627   0.330  0.4029  0.0121  0.0178
21416W        W36547  10.076   8.404  15.347  0.0673 -0.1734  0.2648
21417W        W36548  18.005   9.717   4.786 -0.0105  0.0401  0.2434
21418W        W36549  17.965  14.291  15.512  0.0025  0.0616 -0.2955
21419W        W36550  14.075   3.716  12.311  0.1706 -0.1232 -0.1086
21420W        W36551  14.724  11.591   1.746  0.0448  0.3357  0.2498
21421W        W36552   0.208  13.021   4.053  0.0627  0.0234 -0.3237
21422W        W36553  12.792   2.504   2.429  0.0537  0.0294 -0.0875
21423W        W36554  14.999  14.181  11.794 -0.0133 -0.3282 -0.1994
21424W        W36555  13.668  14.462  10.897 -0.1528 -0.0609  0.0436
21425W        W36556  13.401  14.594   0.579 -0.1289  0.0195  0.3756
21426W        W36557   5.546   5.360  13.889  0.1980 -0.1518  0.0860
21427W        W36558  11.246   0.011  14.157 -0.3782 -0.0264  0.0296
21428W        W36559  14.961   6.346   5.441  0.2811  0.3819  0.0412
21429W        W36560  13.127  10.535   0.153 -0.1870 -0.2130  0.2061
21430W        W36561   8.255  16.239   2.745 -0.2623 -0.1046 -0.0813
21431W        W36562   9.046  12.846  13.962 -0.1568 -0.0500  0.2968
21432W        W36563   2.255  12.010  13.710 -0.0398 -0.3500  0.0278
21433W        W36564   4.641   7.936  12.762  0.2747  0.2117  0.1522
21434W        W36565   1.208  17.956   1.993  0.4916  0.0878 -0.0905
21435W        W36566   7.464   6.295  14.688 -0.1397  0.0027  0.3174
21436W        W36567  16.245   1.014   1.382  0.0045  0.2663 -0.1594
21437W        W36568   4.084   2.233   4.590  0.0022 -0.2758 -0.0380
21438W        W36569   7.749  12.274  11.659 -0.0006 -0.0726 -0.1766
21439W        W36570   4.662  15.808   1.171  0.0080 -0.1267  0.1523
21440W        W36571   3.373  12.136   0.586  0.0532  0.2653  0.1788
21441W        W36572   9.231  11.291   0.295  0.1463 -0.1515 -0.0522
21442W        W36573  11.274  14.953  14.966 -0.0516  0.1726  0.0162
21443W        W36574   7.087   9.167   4.111 -0.1411  0.0020  0.2098
21444W        W36575   0.608   5.711  11.950 -0.0922 -0.0797  0.0454
21445W        W36576   6.649  15.692  15.255  0.0935  0.1338 -0.1456
21446W        W36577  15.703  14.326  11.539 -0.1322 -0.0235  0.0195
21447W        W36578   7.021   7.133  15.572  0.2088  0.2243 -0.0400
21448W        W36579  13.577  10.478   2.290 -0.1300  0.2100 -0.2624
21449W        W36580   2.667   1.243  15.188  0.0515 -0.0486 -0.1815
21450W        W36581   2.334  15.078  11.541  0.1031  0.2532  0.1300
21451W        W36582  10.048   9.597  13.497  0.0497 -0.1083  0.4674
21452W        W36583  14.882  14.484  13.046 -0.1788  0.0720 -0.1852
21453W        W36584   4.699   8.942   4.888  0.1372  0.0167  0.3199
21454W        W36585  14.995   4.322   1.647 -0.1622 -0.2156 -0.2637
21455W        W36586  11.947   8.838  13.582 -0.0514  0.0859 -0.0063
21456W        W36587  14.948  16.264  16.125  0.1537 -0.1262 -0.0808
21457W        W36588   3.486   9.961   4.124  0.1244  0.2334 -0.1572
21458W        W36589   9.182  14.050  12.196  0.0612  0.0435 -0.0497
21459W        W36590  11.140  14.440  15.083 -0.0405  0.0237 -0.0204
21460W        W36591  15.564  12.397  13.145 -0.0050  0.1529  0.1222
21461W        W36592  10.303  15.642  13.484 -0.2374 -0.5475 -0.1107
21462W        W36593   6.888  17.586  13.333 -0.0737  0.0090 -0.3017
21463W        W36594  16.398   6.471  12.270  0.1870 -0.1689  0.0244
21464W        W36595  11.664  15.012  15.738 -0.0932  0.1355 -0.0324
21465W        W36596  14.475  13.350   0.987 -0.1129 -0.3162  0.1207
21466W        W36597  13.298   7.029  14.368  0.1925  0.1598  0.3095
21467W        W36598   8.419  11.513   2.149 -0.1616  0.3842  0.1367
21468W        W36599  16.255  10.087  12.975 -0.3693  0.0982  0.1131
21469W        W36600   3.488   6.542  16.175 -0.2218  0.4446  0.1409
21470W        W36601   1.529  13.308  11.757 -0.0070  0.0810  0.4608
21471W        W36602  11.738  12.164  10.736 -0.2482  0.2759 -0.0692
21472W        W36603  13.589   9.535   6.342  0.2778 -0.2121  0.0631
21473W        W36604   2.918   4.144  14.457 -0.0483 -0.0377 -0.2189
21474W        W36605  17.453  11.299   3.694 -0.0039  0.0765  0.1254
21475W        W36606   7.968   5.435   4.055 -0.2472  0.0213 -0.2916
21476W        W36607  15.347  17.508  15.537 -0.1508  0.2022  0.0938
21477W        W36608  10.939   2.583  15.575  0.0848 -0.2843 -0.1045
21478W        W36609   6.910  16.826  10.632  0.1307  0.1390 -0.0840
21479W        W36610   6.521  14.987  13.129  0.1854 -0.2958 -0.3953
21480W        W36611  11.764  10.541  15.988 -0.2739  0.0519 -0.1293
21481W        W36612   1.037  13.102   4.570  0.0488  0.1514 -0.0459
21482W        W36613  15.826   3.165   3.343  0.3468  0.0661 -0.2674
21483W        W36614   2.573   4.522   0.595 -0.1778  0.1156 -0.0538
21484W        W36615  12.066   3.019  12.623  0.2186  0.0142 -0.1777
21485W        W36616  11.506   4.880   0.657 -0.2748 -0.1711 -0.3033
21486W        W36617  10.804  17.265   3.086  0.1100  0.0619  0.0790
21487W        W36618   8.434  11.520  16.066 -0.0534 -0.1666 -0.0005
21488W        W36619   3.651  16.462   5.404 -0.1129 -0.3713  0.0447
21489W        W36620  14.192  18.161  14.484 -0.0450 -0.1313 -0.2391
21490W        W36621  16.459  17.604   5.662  0.1240 -0.0147  0.0889
21491W        W36622   9.008   7.220  13.638 -0.1864  0.1112  0.0415
21492W        W36623   5.012   5.989   9.922  0.1278  0.0356  0.0323
21493W        W36624   1.982  16.510  15.261  0.0656 -0.1890  0.3197
21494W        W36625  16.978   9.491   0.603  0.1638 -0.0816 -0.0045
21495W        W36626   3.574   4.501   1.212 -0.0660  0.2337  0.1263
21496W        W36627  10.937   4.206   2.890  0.1097  0.0095  0.2211
21497W        W36628   6.437  17.137  15.058  0.1467  0.1779  0.1853
21498W        W36629   3.527  17.479  11.806 -0.0361 -0.0393 -0.2011
21499W        W36630   2.610  13.509  15.168 -0.1378  0.1294  0.1500
21500W        W36631   3.239   8.592   0.422 -0.0461  0.3425  0.1399
21501W        W36632   2.124   9.401  13.637  0.0800  0.2994  0.0308
21502W        W36633  14.869  18.163  12.531 -0.2567 -0.1060  0.4057
21503W        W36634  14.303  17.092   5.388  0.0481  0.1307  0.1364
21504W        W36635   4.894  17.771   4.434 -0.1912 -0.1557 -0.1577
21505W        W36636   5.694   8.904   0.763  0.2265 -0.2897 -0.1079
21506W        W36637  15.527   6.645  14.754  0.0253 -0.2232 -0.1894
21507W        W36638  16.222  16.218  11.462  0.2215 -0.1388 -0.2460
21508W        W36639   5.259   0.642   4.964 -0.0217 -0.1630  0.2421
21509W        W36640  16.399   0.353  11.201 -0.2564  0.1351  0.1161
21510W        W36641   3.607   2.215  11.168  0.0810  0.0441  0.1359
21511W        W36642  14.761  12.576  14.555  0.1150 -0.0276  0.0665
21512W        W36643  14.904   3.215   4.416 -0.2575  0.0448  0.0683
21513W        W36644   8.141  16.399  13.962 -0.4442  0.4103 -0.1725
21514W        W36645  18.088  13.837  11.082  0.0169 -0.1454  0.0401
21515W        W36646   7.920  14.088  12.331  0.1334  0.1697 -0.0249
21516W        W36647  11.268  17.255  15.563  0.0108  0.1225  0.1246
21517W        W36648   4.015  13.622   1.258  0.1138 -0.1371 -0.2235
21518W        W36649   8.615   3.025  12.627  0.1258 -0.0725  0.1865
21519W        W36650  12.629  11.223  12.969  0.0407 -0.0910  0.2457
21520W        W36651  13.855   5.983  16.111 -0.1871  0.1502  0.3229
21521W        W36652   5.761  10.826   4.953 -0.3045 -0.1152 -0.1375
21522W        W36653  15.772  14.042   0.224 -0.0819  0.2472 -0.5431
21523W        W36654   4.685  11.796  12.937 -0.0115  0.0705 -0.1858
21524W        W36655  12.883  16.687  10.284 -0.2333 -0.0990 -0.4718
21525W        W36656   3.801   4.446   5.392  0.0438  0.1460  0.2218
21526W        W36657   4.412   4.439  11.185 -0.0558  0.0693 -0.2304
21527W        W36658  11.008   3.435  12.628 -0.0578 -0.1655 -0.0578
21528W        W36659  10.817   7.341   3.340  0.0598  0.1822  0.3570
21529W        W36660  12.243   4.021  12.766 -0.1051  0.0407 -0.4810
21530W        W36661  11.589   8.766   1.057  0.3549 -0.1436  0.0392
21531W        W36662   7.369   6.819   4.013  0.2959  0.0084  0.0934
21532W        W36663   6.953   9.424  15.965  0.0514 -0.1957 -0.0859
21533W        W36664   8.055   4.374  15.093 -0.0509  0.0858  0.0158
21534W        W36665  15.722   5.885   5.190  0.1398  0.2323 -0.0531
21535W        W36666   8.874  14.779  11.073 -0.0580  0.0025  0.1163
21536W        W36667   4.556   2.339  15.650 -0.0127  0.0672 -0.0065
21537W        W36668   8.100  17.699  13.860  0.1229 -0.1471 -0.0269
21538W        W36669   8.882   8.304  11.022 -0.0009 -0.0024  0.1787
21539W        W36670   2.636  10.446  14.434 -0.3107  0.2236 -0.2185
21540W        W36671  10.452   1.819   3.501  0.0242  0.0507  0.1189
21541W        W36672   3.845  13.001  12.984  0.1755 -0.0151  0.1548
21542W        W36673   1.949   7.071  11.119  0.0968  0.0767 -0.3205
21543W        W36674  16.601   8.503  13.218  0.1082  0.1344 -0.2310
21544W        W36675   6.129  13.942  14.206 -0.1860  0.0800  0.1488
21545W        W36676   8.013  12.172  13.234 -0.4476  0.2172 -0.3911
21546W        W36677   8.671   5.328   5.902  0.1694 -0.0548  0.1056
21547W        W36678   6.117   7.267   4.315  0.3332  0.0433  0.0613
21548W        W36679  10.057  10.269   0.559  0.2548 -0.0337  0.0832
21549W        W36680   5.879  12.958  15.178 -0.1362  0.1482  0.0195
21550W        W36681   7.246  11.312   1.611 -0.1313  0.1773 -0.1913
21551W        W36682   5.050  16.523   4.694 -0.2883 -0.2674  0.0026
21552W        W36683  14.110   2.636   4.822  0.1557  0.0733 -0.1077
21553W        W36684   5.048  12.630   1.295  0.0154 -0.0454  0.1057
21554W        W36685   9.999  13.239   0.101 -0.3004 -0.0549  0.0453
21555W        W36686  12.181   6.857   0.129 -0.0941  0.1767  0.0449
21556W        W36687   8.142   6.175   2.059 -0.0571 -0.0011  0.1902
21557W        W36688   5.030  10.009   3.547 -0.0696 -0.0595  0.3326
21558W        W36689   8.398  13.851  10.562 -0.0510 -0.2289 -0.0844
21559W        W36690   9.975   4.036  14.154 -0.0439  0.1157  0.4169
21560W        W36691   6.296   1.510   2.008 -0.0447  0.0320  0.1264
21561W        W36692  14.981   4.957  14.277  0.1366  0.0742 -0.1054
21562W        W36693   1.460  13.708  12.620 -0.1820  0.2684 -0.3080
21563W        W36694   9.528  16.153   2.053 -0.2861  0.1881 -0.1734
21564W        W36695  13.724   9.132  14.163 -0.1082  0.0660  0.2294
21565W        W36696  15.363  15.994   7.072  0.1638  0.0080  0.0077
21566W        W36697  13.838  16.301  13.405  0.2876  0.2220  0.1417
21567W        W36698   0.067  15.440   5.221 -0.1371  0.1255 -0.1586
21568W        W36699  12.365  13.877  12.452  0.1772  0.2972 -0.0023
21569W        W36700  16.678  13.073  13.768  0.0494 -0.0732  0.2244
21570W        W36701  15.502  10.112   1.313 -0.1391 -0.2115  0.1410
21571W        W36702   5.355  15.780   3.464 -0.0049  0.0150 -0.0293
21572W        W36703   4.792   9.129  10.160 -0.2103  0.0601  0.2405
21573W        W36704  16.337   6.143  11.857 -0.1110 -0.0693 -0.1922
21574W        W36705   1.914  16.216   0.302  0.3433 -0.0038  0.2281
21575W        W36706   3.535  10.040   1.877 -0.1631  0.1338  0.1884
21576W        W36707  16.201   0.839  11.194  0.2097  0.1457 -0.2111
21577W        W36708  11.146   5.022  11.745 -0.0055 -0.1561 -0.1240
21578W        W36709  12.458   5.487  14.883 -0.0192  0.0945  0.1748
21579W        W36710   4.077   0.361  12.805 -0.2057 -0.1531 -0.0391
21580W        W36711  13.305   2.569  12.720 -0.1308  0.1477 -0.3399
21581W        W36712   8.320   5.133   4.924  0.2463 -0.3711 -0.1398
21582W        W36713  16.039   0.526  15.967  0.1632 -0.1627 -0.1858
21583W        W36714  15.222   7.380   1.065  0.2421 -0.0210  0.1669
21584W        W36715  13.090  10.717  14.556 -0.1364 -0.1640 -0.0349
21585W        W36716  14.333  11.666  15.477  0.1162 -0.3526 -0.0407
21586W        W36717   6.366  17.586  14.737  0.0014  0.3065  0.0752
21587W        W36718   9.989   1.865  13.312  0.1586  0.0496 -0.1596
21588W        W36719   6.416  12.066  16.135 -0.0810 -0.0926 -0.0492
21589W        W36720  17.976   5.852   4.495  0.0905 -0.1944  0.4625
21590W        W36721  17.931   5.591   2.551 -0.0803  0.2166 -0.0103
21591W        W36722  14.507  13.979  15.873  0.1995 -0.2198  0.1604
21592W        W36723  17.296  12.141   4.248 -0.3005 -0.0541 -0.1924
21593W        W36724  16.499  10.152   1.694 -0.3821 -0.0798 -0.1152
21594W        W36725   4.608   9.437   0.033 -0.4263  0.1513 -0.0372
21595W        W36726   3.305  10.973   4.149 -0.3342  0.0779 -0.0830
21596W        W36727   0.660   9.477  10.639  0.2192  0.1793 -0.0150
21597W        W36728   3.725   0.540   2.062 -0.3529 -0.4125  0.2885
21598W        W36729  12.333  12.494   0.607 -0.0811  0.1085  0.0037
21599W        W36730  17.892   9.460  13.529  0.2138  0.1781  0.2845
21600W        W36731  18.040   1.111  11.536 -0.0090  0.1448  0.3423
21601W        W36732   1.103   8.056   3.979 -0.1295  0.0202  0.0621
21602W        W36733  15.945  17.709   0.452 -0.0425 -0.2243 -0.2311
21603W        W36734   0.866   2.993   3.588  0.0428 -0.1216  0.1962
21604W        W36735   1.570  15.217   5.038  0.1435  0.2376 -0.1252
21605W        W36736   4.141   9.827   5.133 -0.0182 -0.1950 -0.0387
21606W        W36737  17.261   9.585   3.636  0.1888  0.3261  0.2167
21607W        W36738   1.926  17.163   1.119 -0.0052  0.0312  0.5120
21608W        W36739   0.404   0.417  11.691  0.1037 -0.1043 -0.1251
21609W        W36740  11.443   0.090   4.295  0.2646  0.3220 -0.2017
21610W        W36741   1.984  14.861  14.617 -0.2912  0.1187  0.2185
21611W        W36742   3.789   8.618   5.018 -0.2113 -0.0321 -0.1151
21612W        W36743  16.571   5.842   1.955  0.0650 -0.2103  0.0618
21613W        W36744   1.709   3.385  15.311  0.1022 -0.0698 -0.2741
21614W        W36745  15.723   0.514  14.375 -0.0586  0.0145  0.1846
21615W        W36746  11.226  11.145   5.276 -0.2642 -0.1607  0.2448
21616W        W36747   0.763  12.288   2.736  0.1048 -0.1827 -0.2249
21617W        W36748   4.199   5.478   0.006  0.1298 -0.0569 -0.0283
21618W        W36749   3.289   0.774  13.801  0.1911 -0.1142 -0.2981
21619W        W36750  13.255  10.857  15.096 -0.1647 -0.2205  0.3824
21620W        W36751  10.466  18.037   2.931 -0.1713  0.0066  0.1890
21621W        W36752  12.820  15.806   2.063 -0.0088 -0.1074  0.1474
21622W        W36753  15.225   7.236   2.435  0.0496  0.0603  0.1467
21623W        W36754  18.000  14.262   3.656  0.0264 -0.1111 -0.1203
21624W        W36755  12.443  16.878  12.776  0.0029  0.2525 -0.1757
21625W        W36756  17.792   8.294   0.361 -0.1092 -0.2310  0.0422
21626W        W36757   3.378  18.063  11.727 -0.0517 -0.1134  0.1369
21627W        W36758   9.136  16.372   0.705 -0.2238  0.2564 -0.0302
21628W        W36759   5.686  14.379   0.620  0.1194  0.0077 -0.0425
21629W        W36760   7.688  16.371   1.364 -0.2205  0.1826 -0.3824
21630W        W36761  16.622  12.662   2.251 -0.2847 -0.3457  0.2603
21631W        W36762   0.073   1.226  10.119  0.1202  0.2790 -0.0252
21632W        W36763   0.730   4.859  10.530  0.1196  0.0139  0.1023
21633W        W36764   8.868  15.696  12.695 -0.0011  0.4122  0.2224
21634W        W36765  12.674  13.573  10.996 -0.1691 -0.0043  0.0520
21635W        W36766  12.813   3.396   4.442  0.3025 -0.1027  0.3202
21636W        W36767   7.061   8.672   4.289  0.0530 -0.1425 -0.0472
21637W        W36768   4.664   1.467  11.752  0.0199 -0.4223 -0.0455
21638W        W36769   6.750   1.301  13.324 -0.0615  0.1118  0.0496
21639W        W36770   6.155  12.747  12.587  0.1429  0.1070 -0.1523
21640W        W36771   7.686   6.048   0.489 -0.0908 -0.1213 -0.0497
21641W        W36772  10.600   9.837  10.930 -0.3527 -0.2206  0.1048
21642W        W36773   8.326  16.966  13.933  0.0165  0.0087  0.1347
21643W        W36774  12.444   9.866  11.293  0.1979 -0.0064  0.1506
21644W        W36775   8.431   0.290  13.885  0.0347  0.1366  0.1423
21645W        W36776   2.500   5.774   5.796  0.0131  0.2030  0.2555
21646W        W36777  13.995  11.533   5.640 -0.1168  0.1578 -0.2226
21647W        W36778  17.475   0.566   0.651  0.0387  0.0925 -0.3897
21648W        W36779   9.723   8.812   1.697  0.4021 -0.1585 -0.0675
21649W        W36780   0.990  17.613  13.735  0.0588  0.0133 -0.2750
21650W        W36781  11.523  13.711  13.318  0.0382 -0.0717  0.2386
21651W        W36782   5.099   9.524  12.165 -0.1410 -0.1753  0.0318
21652W        W36783   7.150  14.645   2.434 -0.1137  0.0542 -0.5804
21653W        W36784   4.811  13.329   9.878  0.5513 -0.2393 -0.1079
21654W        W36785  15.730  10.323  11.323 -0.2395 -0.2380  0.1983
21655W        W36786  15.931   8.151   2.248  0.0411 -0.1366 -0.1645
21656W        W36787   1.704  12.279  11.029  0.1110  0.0866  0.0033
21657W        W36788   4.030  17.945   2.563  0.3282  0.0212 -0.2218
21658W        W36789   2.333   2.158  11.733 -0.1162  0.0482  0.0563
21659W        W36790   7.812   5.668  13.951 -0.1205 -0.0030 -0.1821
21660W        W36791   7.950  13.876   1.710 -0.0217 -0.0974  0.0364
21661W        W36792  17.587  12.404   2.869  0.1862 -0.3366 -0.0685
21662W        W36793   0.237  10.883  14.705 -0.3309  0.4391 -0.0937
21663W        W36794   3.899   0.545  13.285 -0.2012  0.0087  0.0535
21664W        W36795  11.161   5.372  14.311  0.0934  0.2555  0.1490
21665W        W36796   7.033   1.769   1.353 -0.1010 -0.1238  0.0168
21666W        W36797   5.723   2.019   1.464  0.6012 -0.3118 -0.1093
21667W        W36798  16.931  11.926  12.892  0.0143  0.2334  0.1765
21668W        W36799  10.349   4.286   1.803 -0.0186 -0.1394  0.1595
21669W        W36800  13.862   2.082   4.761 -0.0120 -0.0855 -0.2687
21670W        W36801  12.778   4.091  12.782  0.0160  0.0134 -0.1188
21671W        W36802   4.649  11.608  11.375 -0.0553  0.2059  0.2484
21672W        W36803   1.228  10.564   3.068  0.3161 -0.0985  0.0610
21673W        W36804  16.081   6.210  11.380 -0.0365 -0.4533  0.3106
21674W        W36805  14.042   0.770  11.276 -0.3225 -0.0158 -0.0660
21675W        W36806   0.620  17.720  12.168  0.2502 -0.0684  0.1476
21676W        W36807  14.300  13.660  14.855  0.1566  0.3138  0.2113
21677W        W36808  15.858   0.570  11.855 -0.2832 -0.3035 -0.2800
21678W        W36809  16.539  15.583   2.000  0.0024 -0.3544  0.3044
21679W        W36810   2.005   9.219   1.905 -0.1729  0.2695 -0.0048
21680W        W36811  17.208   0.362  15.931  0.0157 -0.2928 -0.2666
21681W        W36812   7.175  16.949  13.406  0.1146  0.0658  0.0013
21682W        W36813   7.316   5.933   5.698  0.1224 -0.2926  0.0522
21683W        W36814   0.339   7.500  15.073 -0.0116  0.0648  0.0803
21684W        W36815   9.077   2.475   5.598 -0.0067 -0.0232 -0.1211
21685W        W36816   9.512   1.870   3.665  0.1421 -0.0279  0.0595
21686W        W36817  14.132  12.199   0.724  0.0057 -0.0377 -0.1364
21687W        W36818   9.601  13.884  14.497 -0.2490 -0.4072 -0.3003
21688W        W36819  10.170  13.149  14.822  0.0532  0.0081  0.4004
21689W        W36820   5.735   3.077   4.225 -0.0922  0.2615 -0.0757
21690W        W36821   7.904  10.061   0.075 -0.0158  0.3585 -0.0452
21691W        W36822  17.272   6.389   1.397 -0.0698 -0.4037 -0.0109
21692W        W36823  17.297   5.007   4.999 -0.2372  0.0621  0.0798
21693W        W36824   0.700  16.488  13.580 -0.2470  0.0440  0.3075
21694W        W36825   9.880  14.414   1.906  0.0653 -0.4308  0.0751
21695W        W36826  13.636   6.819   5.009  0.2381  0.2426 -0.1275
21696W        W36827  12.802   2.206  12.919  0.2461 -0.2014 -0.0600
21697W        W36828   8.601   1.715  12.119 -0.2334 -0.0540 -0.1759
21698W        W36829   2.156  16.554   0.942 -0.1225  0.3771  0.1135
21699W        W36830   5.325  16.982  14.782  0.1631  0.2231 -0.0992
21700W        W36831  13.242   9.837  15.607  0.0381 -0.1831  0.1669
21701W        W36832  14.448  13.644  13.376  0.3347 -0.1915  0.1426
21702W        W36833   8.490  15.901  14.067  0.2561  0.1764 -0.0332
21703W        W36834   1.852   5.573  16.188 -0.0325  0.4109 -0.2292
21704W        W36835  14.435   2.130  13.650  0.0965  0.1537  0.0401
21705W        W36836  11.113  10.718  12.058  0.1430 -0.0660  0.5287
21706W        W36837  15.287   0.146   5.072  0.1587 -0.2846 -0.3508
21707W        W36838  13.716  16.762  12.611  0.1566  0.0215  0.0058
21708W        W36839  11.050   0.802   1.905  0.0337  0.0540  0.0181
21709W        W36840   7.821   8.893  12.718  0.0982 -0.0680 -0.2298
21710W        W36841   4.388   1.286  16.193  0.0439  0.1743 -0.0410
21711W        W36842  13.974  13.744  13.348  0.2596 -0.0837  0.1539
21712W        W36843   5.565  17.875  12.805 -0.1304 -0.0174  0.0963
21713W        W36844   3.519   9.300   1.864 -0.0382  0.0580  0.1019
21714W        W36845   9.847  18.087   4.576 -0.0306  0.4042 -0.2571
21715W        W36846   1.892  11.329   1.058 -0.0222  0.5425  0.3195
21716W        W36847   2.062   4.999  15.998 -0.1362 -0.0889 -0.3463
21717W        W36848   4.603  10.231   4.200  0.1130  0.3808  0.1080
21718W        W36849   0.503   3.634   4.932 -0.1237  0.0942 -0.2597
21719W        W36850   9.513   4.045  14.516 -0.0038  0.1131 -0.0799
21720W        W36851   7.722  15.878  14.633 -0.1782  0.2294 -0.0180
21721W        W36852   0.352  12.270  12.687  0.1662  0.0561 -0.1651
21722W        W36853   9.306  12.197   3.923  0.0648 -0.0306  0.1615
21723W        W36854   1.612   8.155   1.700  0.0862  0.1847 -0.0585
21724W        W36855   5.155  16.077   2.119 -0.1912 -0.0843 -0.0257
21725W        W36856  10.478  17.980   0.837  0.0093 -0.0846  0.0399
21726W        W36857   4.811   5.079   4.632  0.2421 -0.1337 -0.0329
21727W        W36858  13.151   8.889  16.167  0.0383  0.0705 -0.0452
21728W        W36859   7.724  11.783  14.404 -0.0466 -0.0154  0.1019
21729W        W36860   8.775  12.623   3.518 -0.1364 -0.0278  0.0445
21730W        W36861  12.199  12.645  16.147 -0.0828  0.0337 -0.0848
21731W        W36862  10.282  15.351  10.851 -0.0564  0.3006  0.2491
21732W        W36863   8.741  14.830  13.811 -0.0266 -0.0579 -0.1644
21733W        W36864   9.435  15.274  15.395 -0.0831 -0.2696  0.0048
21734W        W36865   6.735   9.563  15.209  0.0209 -0.0033  0.0763
21735W        W36866  15.458  12.042  12.384 -0.4323  0.0307  0.0887
21736W        W36867   1.722  18.065  15.346 -0.1573 -0.0245 -0.2774
21737W        W36868  10.584   3.024  10.392  0.1636 -0.2342  0.0766
21738W        W36869   8.446  17.976  15.514 -0.2446 -0.0856 -0.1407
21739W        W36870  16.935  14.490  15.585 -0.0472  0.0021  0.4052
21740W        W36871  10.487  16.735  14.513 -0.0409 -0.0177  0.0555
21741W        W36872   0.337   8.920  14.195  0.2045  0.0072 -0.2465
21742W        W36873  13.089   8.430  12.614  0.0328  0.0012 -0.1083
21743W        W36874  12.393   2.614   3.445 -0.1247 -0.4113  0.1952
21744W        W36875  13.050  14.879  10.866  0.0682  0.3358 -0.1284
21745W        W36876  14.723  15.785   0.505  0.0916  0.1263  0.1093
21746W        W36877  18.095   3.547  13.841 -0.1599 -0.0252 -0.1607
21747W        W36878   5.026   6.260   3.308 -0.1465 -0.1137 -0.0528
21748W        W36879  14.929   4.707   0.409  0.1650  0.0954  0.1710
21749W        W36880  10.432  18.117   5.134  0.5440 -0.1179  0.0688
21750W        W36881  12.252   2.369  12.050  0.1903  0.0140  0.0619
21751W        W36882   5.999  10.482   4.670 -0.1260  0.0348  0.2464
21752W        W36883   4.976  13.619   0.937  0.2066 -0.0847 -0.2228
21753W        W36884   3.624   6.822   2.967  0.2172 -0.2859 -0.1124
21754W        W36885  11.807   1.633   2.962  0.1371  0.0608  0.3273
21755W        W36886   3.598   1.585  13.348 -0.0810  0.1652 -0.0482
21756W        W36887  10.871   2.328  15.008  0.1627  0.0457 -0.0524
21757W        W36888   6.913  14.043  12.225  0.3792 -0.4106 -0.2147
21758W        W36889   8.610  10.524  12.925  0.0403  0.0256 -0.0111
21759W        W36890   1.024   0.810   1.192  0.2305 -0.1686 -0.1822
21760W        W36891   3.176  11.594  14.560  0.2528 -0.0054  0.1059
21761W        W36892   3.243  14.877   0.542  0.1496  0.2917  0.0672
21762W        W36893  17.519  16.820   3.458 -0.1115  0.1105 -0.0864
21763W        W36894  10.509  17.048   2.552  0.3767  0.1581  0.1111
21764W        W36895  15.721   4.463  14.210 -0.1856  0.0837 -0.2068
21765W        W36896  14.153   1.709  14.876 -0.2243  0.2401 -0.1365
21766W        W36897   6.916   5.690   1.280 -0.0416 -0.2772 -0.0864
21767W        W36898  12.218  16.488   0.244 -0.0097 -0.1604 -0.0180
21768W        W36899   3.377  16.247   0.888  0.0246  0.3328  0.2571
21769W        W36900  14.312  16.859  14.510 -0.0330 -0.0500 -0.0574
21770W        W36901   9.349   5.407   1.810 -0.0354  0.0211  0.0596
21771W        W36902   5.414  13.842   2.852  0.2169  0.2294 -0.1133
21772W        W36903  12.913   6.208  12.451 -0.0872  0.0174 -0.2945
21773W        W36904  17.492   2.686   2.224  0.2511 -0.0928  0.0314
21774W        W36905   1.229  17.886  11.491 -0.1153 -0.0353  0.1684
21775W        W36906  11.909  11.428  12.726  0.0300  0.1608  0.0798
21776W        W36907   7.771   9.228  11.841  0.0921 -0.1163  0.0775
21777W        W36908   7.137   4.418  10.568 -0.0314  0.0127 -0.0837
21778W        W36909   5.411  17.753  13.362  0.2155 -0.1351 -0.3000
21779W        W36910   0.015  11.405   1.393  0.3538 -0.0632  0.1016
21780W        W36911   0.563   7.109   0.011 -0.3190 -0.0976  0.0862
21781W        W36912   4.614  10.180   2.571  0.5318 -0.2302 -0.2662
21782W        W36913   9.203   3.709  12.379 -0.0037 -0.0123 -0.0129
21783W        W36914   3.933   3.643  15.918 -0.0209  0.2489  0.0860
21784W        W36915   8.546   5.644   1.469  0.1474 -0.1037 -0.1671
21785W        W36916  12.507   8.430   5.199 -0.3258 -0.0656 -0.4806
21786W        W36917   8.945  13.645   0.741  0.0192  0.2243  0.1226
21787W        W36918   7.787  14.528   4.705  0.1755 -0.1033 -0.1410
21788W        W36919  12.584   3.158   4.935 -0.1592 -0.0192  0.1872
21789W        W36920   4.017  10.186   2.541 -0.1365 -0.1399 -0.1905
21790W        W36921   0.893  10.669   3.828 -0.1418 -0.1803 -0.1558
21791W        W36922   2.865  12.887  15.189 -0.1413 -0.0337 -0.0748
21792W        W36923  15.417   5.313  14.305  0.1973  0.2001 -0.3953
21793W        W36924   5.685   1.588  11.534 -0.1975 -0.0082 -0.0648
21794W        W36925  14.084   2.831  11.321  0.0428  0.1202 -0.1033
21795W        W36926  11.118  17.933   4.418  0.1914  0.0244  0.2120
21796W        W36927  16.956   7.771   6.381  0.1642  0.1378 -0.1986
21797W        W36928   6.699   4.451   5.027 -0.2297  0.0815  0.0643
21798W        W36929   6.854   6.228  11.999 -0.0686 -0.1452 -0.0656
21799W        W36930   5.804  10.165  12.463 -0.2842  0.0826 -0.0054
21800W        W36931   0.935  17.925  12.931 -0.1028 -0.2536 -0.0026
21801W        W36932   2.744   2.678   1.799  0.2240 -0.0551  0.1154
21802W        W36933   9.716   0.356   2.872  0.1872 -0.0453 -0.0041
21803W        W36934  17.125  13.465  10.927 -0.0914 -0.1248 -0.2241
21804W        W36935   1.823   5.812  13.791 -0.1183  0.0812 -0.3237
21805W        W36936  17.601   1.481   3.682 -0.0759  0.0070 -0.6212
21806W        W36937  15.529   5.415   4.133  0.0290  0.0770 -0.2373
21807W        W36938   1.089   3.303  12.048  0.0193  0.1764 -0.2694
21808W        W36939   1.120   8.767   0.739 -0.0535 -0.1394 -0.0057
21809W        W36940  11.159  10.056  12.888 -0.2671  0.0217 -0.1988
21810W        W36941   7.116  11.477   2.156 -0.2689 -0.0841  0.1948
21811W        W36942  10.422  15.969  13.824  0.1056 -0.0038 -0.0468
21812W        W36943  16.004   7.184   4.123  0.2692  0.1321 -0.0769
21813W        W36944  17.572  10.843  14.113 -0.0995 -0.0092  0.3072
21814W        W36945  14.787   9.793   1.849 -0.0397  0.0583 -0.1120
21815W        W36946  18.114  10.980   3.937 -0.0170  0.3268 -0.0849
21816W        W36947  16.322  14.582   4.482 -0.4328  0.0575  0.0478
21817W        W36948  17.752   1.473   2.112 -0.2319  0.1186  0.0958
21818W        W36949   0.010  10.674  13.777  0.0791 -0.0936 -0.1885
21819W        W36950   2.747   2.995  16.009 -0.0405  0.0151  0.0026
21820W        W36951  14.604   6.791   2.047  0.1398  0.0221  0.2503
21821W        W36952   7.582  11.593  13.064  0.1141 -0.1720 -0.0154
21822W        W36953   7.088  14.169  14.720  0.0026  0.1444  0.2297
21823W        W36954  11.771  10.800  13.389  0.0659  0.0280 -0.1440
21824W        W36955  12.506   8.975  11.674  0.6035 -0.2916 -0.0175
21825W        W36956  18.056   3.212   1.557 -0.0715  0.4961  0.0080
21826W        W36957   7.062  18.112  10.272 -0.0023 -0.1120  0.1234
21827W        W36958   3.906  15.843   2.396 -0.1432  0.4849 -0.2125
21828W        W36959  17.435   0.664  15.233  0.3522  0.0676 -0.1053
21829W        W36960   5.927  13.369  11.091 -0.2569 -0.1581  0.0148
21830W        W36961   3.988  13.366   2.004  0.0307  0.2266  0.2573
21831W        W36962   3.688   4.202  11.610  0.0929  0.1248  0.2343
21832W        W36963  10.540   9.948  11.938  0.4219  0.2080  0.1319
21833W        W36964  11.497   7.863   5.357 -0.2968 -0.1704 -0.0699
21834W        W36965  16.586   4.721  14.254 -0.1308 -0.2494 -0.0480
21835W        W36966   7.273  18.123   5.071 -0.2846 -0.2521 -0.1868
21836W        W36967   2.707  14.244   0.064  0.1685 -0.0014  0.0821
21837W        W36968  12.744  11.697  14.854  0.0069  0.0111  0.0470
21838W        W36969  10.340  11.236  11.964 -0.0071 -0.1864 -0.2505
21839W        W36970   2.663   9.296   3.343 -0.0514  0.2572  0.1421
21840W        W36971  10.976   8.878  10.998  0.0081  0.0997  0.1605
21841W        W36972   3.149  11.448   0.208 -0.1757  0.1814 -0.0724
21842W        W36973  17.848   3.651  11.062 -0.0845  0.0184  0.2449
21843W        W36974  10.671   4.701  15.841 -0.0613 -0.0782  0.2631
21844W        W36975   7.220  11.068   2.717 -0.0582  0.1728  0.1707
21845W        W36976  13.619  12.007   4.127  0.0057 -0.0339 -0.3516
21846W        W36977   4.329   2.787  14.231 -0.1275 -0.2017 -0.2199
21847W        W36978  15.713   8.652  13.370 -0.0990 -0.2734  0.1806
21848W        W36979  11.638  11.663  13.066 -0.2465  0.0679  0.1891
21849W        W36980   2.859  15.544   2.853  0.1012 -0.0413 -0.2108
21850W        W36981   6.770   9.084   0.222 -0.0014 -0.0208  0.1260
21851W        W36982  10.894  13.239  15.896 -0.0507  0.0398  0.2179
21852W        W36983  12.322   7.083   6.239  0.0384 -0.0267 -0.0978
21853W        W36984  17.107   3.726  15.157 -0.0387 -0.3940 -0.2068
21854W        W36985  10.584  14.152   2.926  0.0066  0.1985 -0.0080
21855W        W36986   4.859   2.908  13.889  0.0043 -0.0982 -0.1079
21856W        W36987   7.261   8.484   2.090 -0.3026  0.1444  0.2081
21857W        W36988   2.065  11.727  12.412  0.1599 -0.0110  0.2332
21858W        W36989   0.124  13.342  15.614  0.0564  0.2734  0.1090
21859W        W36990  14.620  11.512  14.761  0.1580  0.0690  0.1731
21860W        W36991   5.633   8.257   3.325  0.0344  0.2039  0.0050
21861W        W36992   9.564   3.273  15.122 -0.0171  0.1269  0.1681
21862W        W36993  15.889  14.377   1.207  0.1115  0.0411  0.0238
21863W        W36994  12.252  14.621  14.096  0.0625 -0.3575 -0.2587
21864W        W36995   8.319   2.903   0.714 -0.1503  0.0080 -0.3011
21865W        W36996   1.148   7.509   5.375 -0.0564 -0.3410 -0.0437
21866W        W36997  10.667  15.879  11.268  0.1155  0.0455 -0.0039
21867W        W36998  16.901   4.351   4.600 -0.0405  0.0289 -0.2458
21868W        W36999   3.570   7.276  10.906  0.3282 -0.3007 -0.2662
21869W        W37000   2.954   0.114  12.570  0.1099  0.0995  0.1032
21870W        W37001   3.452  14.420  11.948 -0.1269  0.0857  0.0482
21871W        W37002  11.584   6.819  14.031 -0.0398 -0.0949 -0.1786
21872W        W37003   7.281   8.188   1.335 -0.1122  0.2676  0.0865
21873W        W37004  13.039  14.661   3.636  0.1034 -0.2323 -0.1044
21874W        W37005   6.193  12.256   5.197  0.0336  0.1429  0.1695
21875W        W37006   3.203  13.073   0.327  0.0781 -0.0652  0.2130
21876W        W37007  14.468  14.500   5.907  0.0622  0.1213 -0.0220
21877W        W37008   2.664   5.377   2.380  0.2071 -0.0883 -0.0222
21878W        W37009   1.433   6.253  14.093  0.0375 -0.1890 -0.0667
21879W        W37010   7.723  10.157  12.809  0.0715 -0.0031  0.3277
21880W        W37011  16.688   1.191   5.057  0.0822  0.1019  0.0202
21881W        W37012  16.042  13.703  15.029  0.0414 -0.1659  0.3199
21882W        W37013  16.323  15.399   5.802 -0.0213 -0.2600 -0.1884
21883W        W37014  11.368  16.638   0.466 -0.3419 -0.1541  0.1788
21884W        W37015  11.598   6.252   3.894 -0.0905  0.1856 -0.0528
21885W        W37016  11.166   0.819   4.460 -0.0343  0.0201 -0.2684
21886W        W37017   1.150  14.311   2.976  0.0383 -0.1353  0.0541
21887W        W37018  16.909  10.296  13.532 -0.1229 -0.0320  0.2189
21888W        W37019   4.340  17.842  12.427  0.3171 -0.2676  0.1080
21889W        W37020   2.932  15.861   0.820 -0.0064 -0.2151  0.0377
21890W        W37021   5.731   0.243  11.761 -0.0520 -0.0760  0.1165
21891W        W37022  12.485   5.756   1.748 -0.3730  0.1262 -0.1001
21892W        W37023   3.347   1.558  14.164 -0.0694  0.0897 -0.2059
21893W        W37024  17.831   5.628  15.651  0.1975  0.1340 -0.0425
21894W        W37025   3.656   5.757  10.617  0.0887  0.2411 -0.3077
21895W        W37026  12.074  17.041  12.480  0.1673 -0.1466  0.1042
21896W        W37027  15.430  17.994   4.701  0.0843  0.0057 -0.1793
21897W        W37028  12.040   2.827  15.565 -0.1336 -0.1142  0.3198
21898W        W37029   2.067   7.819  15.663 -0.0646 -0.0051 -0.1392
21899W        W37030  13.258  14.251   4.065  0.0284  0.1118  0.1271
21900W        W37031  12.406  11.288  15.424  0.1323 -0.1837 -0.2546
21901W        W37032   6.427  13.825  12.457  0.0955 -0.1087  0.0022
21902W        W37033  12.726  11.970   4.972  0.0099  0.0299  0.3402
21903W        W37034   5.150  10.265  11.544 -0.0367 -0.1814  0.3961
21904W        W37035   6.492   0.333   4.610  0.2854 -0.2181  0.1234
21905W        W37036   1.660  11.931   2.974  0.1378  0.1556  0.4438
21906W        W37037  14.956   6.835   2.559 -0.0044  0.1220  0.0459
21907W        W37038  12.865  15.647   2.673 -0.0806 -0.0112  0.0639
21908W        W37039  11.687   4.887   2.355  0.1444 -0.0528 -0.0527
21909W        W37040  17.999   7.140   1.188 -0.0474  0.0477  0.1956
21910W        W37041   2.024  12.491   3.500  0.2423  0.0179 -0.0237
21911W        W37042   9.826   4.453  16.084 -0.3698 -0.0848 -0.1428
21912W        W37043   9.469  10.344  15.497 -0.3227 -0.0385 -0.3517
21913W        W37044  10.099  17.334   3.667 -0.1089  0.0724  0.1583
21914W        W37045  14.199  12.449  12.718  0.2685  0.1093 -0.0959
21915W        W37046   4.790  16.042   2.824 -0.3164 -0.0575 -0.3314
21916W        W37047   7.287   0.993   1.957 -0.0379  0.2046  0.2346
21917W        W37048   2.082   2.577   0.237  0.0338  0.3732  0.4160
21918W        W37049  14.061  11.970   3.777 -0.0814 -0.3231 -0.0693
21919W        W37050   0.471  16.805  12.280 -0.1608  0.0069  0.1102
21920W        W37051   7.297   0.645  15.813 -0.1016  0.0359 -0.1490
21921W        W37052  14.070  13.189   4.229 -0.1110  0.0361  0.0339
21922W        W37053  10.292  15.716   3.593 -0.0806  0.1273 -0.0884
21923W        W37054   6.656  18.102   1.166 -0.1281  0.0731 -0.2847
21924W        W37055   0.267   0.031   2.882 -0.0617  0.0698 -0.2859
21925W        W37056  12.957   0.332   5.065 -0.0951  0.0464  0.2936
21926W        W37057  17.264   0.221   1.003  0.1332 -0.2220 -0.4201
21927W        W37058   0.623  13.515  15.766 -0.4897 -0.0098  0.1789
21928W        W37059   6.557   6.733   3.227  0.2319  0.0910  0.1166
21929W        W37060  11.226   5.864   4.009  0.1004  0.2154  0.2515
21930W        W37061  11.447   9.680  14.244  0.1332  0.2503 -0.1276
21931W        W37062  10.675   5.222   5.870  0.0374  0.0753  0.3071
21932W        W37063   9.741   1.650  11.336  0.2040 -0.0511  0.1576
21933W        W37064  10.735   5.515   2.059  0.3383 -0.0378 -0.1536
21934W        W37065  12.161   1.115  14.515 -0.2295 -0.1764 -0.1064
21935W        W37066   7.958   6.154   5.008  0.0576 -0.0744  0.1513
21936W        W37067  13.955   8.579   5.902 -0.3468  0.0284 -0.1797
21937W        W37068   7.591  17.919  12.032  0.4499 -0.2099  0.0073
21938W        W37069  16.195   3.311   0.374 -0.1279  0.0360 -0.0490
21939W        W37070  13.186   2.714   4.704  0.2273  0.0069 -0.0443
21940W        W37071  12.781  15.998   1.550  0.0666  0.0999 -0.1292
21941W        W37072   4.261   1.933   2.300  0.1822 -0.3342  0.1503
21942W        W37073   9.949   8.247   3.557  0.1879  0.2861  0.0420
21943W        W37074  15.584   7.064   4.327  0.3401  0.1769 -0.1996
21944W        W37075  12.919   0.835  12.079 -0.0722  0.1007 -0.2703
21945W        W37076   0.986   9.307   1.614 -0.1611 -0.2982 -0.0818
21946W        W37077  16.473   9.031   5.699  0.2829 -0.1644 -0.3495
21947W        W37078   0.252  16.692  15.617 -0.3312  0.0470  0.1029
21948W        W37079  14.573   2.714  13.815  0.2590 -0.0892 -0.1101
21949W        W37080  11.312  11.227  15.942 -0.3695 -0.0953  0.2121
21950W        W37081  15.256  15.666  10.778  0.0974  0.0932 -0.1883
21951W        W37082  12.258   8.801   3.440 -0.0287 -0.2454  0.1670
21952W        W37083  17.685  16.579  14.201 -0.2912 -0.1839 -0.2372
21953W        W37084  13.279  14.196  13.590 -0.1176  0.0965  0.1235
21954W        W37085   8.667   6.318  15.485 -0.0058  0.0386 -0.1244
21955W        W37086   9.389  10.773  11.949 -0.0015 -0.0545  0.3123
21956W        W37087   5.120   4.858  11.118 -0.1247 -0.0028 -0.2168
21957W        W37088   9.309  12.357  10.946 -0.2761 -0.0457  0.0803
21958W        W37089   1.798   9.334  14.624 -0.2603  0.0287 -0.2196
21959W        W37090  14.666  12.788  11.801  0.0733  0.0920  0.1764
21960W        W37091  17.635  15.703  15.896 -0.0310 -0.2057  0.0300
21961W        W37092  10.114   3.896   1.489  0.6371  0.0637 -0.0632
21962W        W37093  14.273  18.099  11.743 -0.0256  0.1097  0.1406
21963W        W37094  15.604  16.845   0.776 -0.2719  0.4256  0.0760
21964W        W37095   8.915  10.342  14.720  0.0072 -0.1321 -0.0859
21965W        W37096  14.497   1.276  13.156  0.0387 -0.2225  0.1676
21966W        W37097   3.634   0.234  12.646  0.0471 -0.2895 -0.0681
21967W        W37098   9.857  14.686  11.845  0.0998 -0.3661  0.3624
21968W        W37099   9.621   2.739   1.732 -0.1740 -0.5451  0.1688
21969W        W37100   0.800   0.546  12.323  0.1189 -0.0020  0.1870
21970W        W37101   6.554   5.730   4.074  0.1528  0.1903  0.2096
21971W        W37102   1.971   9.363   0.159  0.0204  0.2289  0.3874
21972W        W37103  10.085  17.168  11.329  0.0684 -0.1095 -0.0668
21973W        W37104  15.975   1.766   0.837  0.2697  0.1607 -0.2741
21974W        W37105   3.904  14.647   2.970  0.1455 -0.1314 -0.1127
21975W        W37106   2.812   3.466   4.209  0.0014 -0.0263  0.0374
21976W        W37107  16.038  10.449   5.834  0.0368 -0.1990  0.0352
21977W        W37108  15.342  11.240   1.071 -0.0427  0.0630  0.1897
21978W        W37109  17.984  13.902  12.881  0.1366  0.2627 -0.0749
21979W        W37110  15.085   3.109  13.499  0.3539  0.1071 -0.0787
21980W        W37111  13.884   6.384  12.238 -0.1106  0.2950 -0.3128
21981W        W37112  14.863  13.643  13.124  0.1099 -0.2854 -0.1979
21982W        W37113   2.351   2.872  12.248  0.1203 -0.1630 -0.2488
21983W        W37114   1.603  11.786   1.846  0.1352 -0.2237 -0.4172
21984W        W37115  11.285  11.450   2.184 -0.0152  0.0229  0.0825
21985W        W37116  17.440  17.996  15.928 -0.2709  0.2023  0.0656
21986W        W37117   2.829   4.014  13.977 -0.2402 -0.5803 -0.1587
21987W        W37118   4.875   3.676  12.923 -0.1630 -0.1726 -0.0003
21988W        W37119   9.404   5.130   2.776 -0.0962  0.0255  0.2811
21989W        W37120   3.087  16.537   2.813  0.2445  0.0884  0.1930
21990W        W37121  12.084  11.673   3.639  0.0934  0.1927 -0.0626
21991W        W37122   9.836  13.399   3.885 -0.0251 -0.3730  0.0536
21992W        W37123   3.459   4.525  10.967  0.4890  0.2210 -0.1054
21993W        W37124   3.844  16.389   0.176  0.1332  0.1078  0.0661
21994W        W37125  13.886   7.420   0.941  0.0513  0.1036 -0.0161
21995W        W37126   5.359  14.851  12.054 -0.0864  0.0034  0.0467
21996W        W37127  17.120  14.555   1.953 -0.1722  0.0914  0.0128
21997W        W37128  12.266   6.900  11.483 -0.3375 -0.1108  0.0054
21998W        W37129   9.314   3.263  12.087  0.2359  0.1890  0.0757
21999W        W37130   2.333  17.277   4.722 -0.0866  0.0020 -0.1391
22000W        W37131  16.001  12.853   5.092 -0.3212 -0.1864 -0.1697
22001W        W37132   3.339   1.310  14.640  0.1777  0.1957  0.1473
22002W        W37133  11.924   2.115  14.911  0.2091  0.1829 -0.1757
22003W        W37134  11.954   6.433  11.448  0.1387 -0.0301  0.0919
22004W        W37135  18.087   9.391  12.683  0.0983 -0.3566 -0.0457
22005W        W37136   1.244  10.316   3.552 -0.1345 -0.1290 -0.0236
22006W        W37137  12.480  10.224  13.026 -0.2361  0.0003 -0.2351
22007W        W37138  13.551   6.373   0.247 -0.0849 -0.1978 -0.2879
22008W        W37139  16.662  17.280  15.735  0.1563 -0.1501  0.0386
22009W        W37140  11.900  13.267   4.975 -0.1348 -0.3392 -0.0730
22010W        W37141   2.643   1.317  13.934 -0.2810 -0.1103  0.2429
22011W        W37142   5.304  10.475  16.205  0.0691  0.0120  0.0838
22012W        W37143   5.649  11.191  15.181  0.3114  0.0966 -0.0862
22013W        W37144  11.697   1.083  13.984 -0.0255 -0.1019 -0.0926
22014W        W37145  11.409   1.398   0.922 -0.0908  0.1480 -0.1645
22015W        W37146  11.342  17.071   0.217  0.0430  0.3398 -0.0943
22016W        W37147  16.547  14.817   0.456 -0.0185  0.3410 -0.3713
22017W        W37148  16.315   9.878  13.789  0.0880 -0.1315 -0.2256
22018W        W37149  14.450   5.734  12.694  0.0665 -0.0447  0.2348
22019W        W37150   2.346  15.492  12.276 -0.2523  0.2535 -0.0314
22020W        W37151  17.944   7.445   0.717 -0.2445  0.0724 -0.1302
22021W        W37152  10.913   4.759   5.031  0.1211 -0.1985  0.0315
22022W        W37153   6.966  16.814   0.208  0.1169 -0.1314 -0.1430
22023W        W37154   5.582   2.628   4.990  0.0654  0.3141 -0.0184
22024W        W37155   9.536   6.736  12.962  0.1627 -0.1444  0.1508
22025W        W37156   3.117   0.876  16.082  0.0957 -0.0041  0.0202
22026W        W37157  16.438   5.463   6.153 -0.0628  0.1221  0.0225
22027W        W37158   3.428   0.793  11.731  0.3889  0.0560  0.0916
22028W        W37159   0.879   7.644  11.730  0.1022 -0.1031 -0.2157
22029W        W37160  12.924   1.078   5.678  0.0254 -0.0724  0.1755
22030W        W37161   5.630  14.792   1.339 -0.3089  0.0787 -0.0965
22031W        W37162   2.844  10.279   1.615 -0.1728  0.1796 -0.2984
22032W        W37163   7.848   2.751  15.024 -0.1331 -0.3320 -0.0945
22033W        W37164   0.058   6.283   1.816 -0.1340  0.1378  0.1484
22034W        W37165   5.937   5.215   1.899  0.1144  0.1677 -0.2268
22035W        W37166  17.487  15.347   4.828 -0.1783  0.0421 -0.3200
22036W        W37167   4.284  14.289  13.040 -0.3494 -0.2526 -0.1276
22037W        W37168  14.534   1.157   5.630 -0.2289  0.2009 -0.2202
22038W        W37169  14.056  13.054   1.830 -0.1567 -0.2128 -0.2312
22039W        W37170  16.731   3.297  11.865  0.3470 -0.0243  0.2488
22040W        W37171   6.533  15.410  11.163  0.1155 -0.0780  0.2085
22041W        W37172   4.481  13.484  12.562 -0.0547  0.0306  0.1388
22042W        W37173   8.758   8.874  11.864  0.0564 -0.1877  0.0474
22043W        W37174   0.501   9.908   5.093  0.1315  0.5903  0.0354
22044W        W37175  10.543  10.221   0.658 -0.4040 -0.2532  0.0630
22045W        W37176  14.419   9.343  15.804  0.0117  0.2336  0.2356
22046W        W37177  10.374  16.790   3.086 -0.2886  0.3472 -0.2134
22047W        W37178   1.480  15.914   1.477 -0.0383 -0.1206  0.1379
22048W        W37179   7.058   8.937   1.816 -0.1820 -0.0148 -0.1240
22049W        W37180   4.779  12.664   3.293 -0.0860 -0.0781  0.4927
22050W        W37181  16.789  10.479   4.453 -0.2526  0.2205  0.0956
22051W        W37182   2.973  10.281   4.567 -0.0673  0.0870  0.0601
22052W        W37183  16.459  13.437   6.087 -0.3666  0.1498 -0.0110
22053W        W37184   8.878  12.186  12.749 -0.3076  0.1702 -0.0883
22054W        W37185  16.261  16.444   4.519 -0.1946 -0.2330 -0.0350
22055W        W37186  12.123  10.867  15.648  0.0628 -0.0489  0.0498
22056W        W37187   8.771   8.014   0.173 -0.1195  0.0457 -0.4208
22057W        W37188   9.604  11.164   1.090 -0.2702  0.2159  0.1625
22058W        W37189   4.095   3.471   3.194 -0.3263  0.2237 -0.0366
22059W        W37190  12.581   1.094   3.589  0.2470  0.4343  0.0048
22060W        W37191  11.488  17.922  13.441  0.0232 -0.3632  0.1854
22061W        W37192  14.063  15.406  11.678  0.3061 -0.1979  0.0496
22062W        W37193  15.447   1.354   0.102 -0.1681  0.0754  0.1862
22063W        W37194  16.619   2.153  10.965  0.0780 -0.1111  0.0811
22064W        W37195   3.487  16.499   4.673  0.3652 -0.1397  0.2671
22065W        W37196   6.234  17.173  16.053 -0.1265  0.0416  0.0979
22066W        W37197  13.748   3.921   4.590  0.0337  0.0490  0.0207
22067W        W37198  12.922  13.788  12.378  0.1577 -0.1787  0.2767
22068W        W37199  12.931   8.071  12.185  0.2950  0.2781  0.1552
22069W        W37200  17.658   3.627  11.938 -0.1259  0.2127  0.0521
22070W        W37201   8.205   1.839   4.899 -0.0467  0.0981  0.0055
22071W        W37202   5.386   5.542  13.394 -0.0677 -0.0179  0.0788
22072W        W37203   4.190   7.249  14.144  0.2371 -0.0019  0.1016
22073W        W37204   2.408  13.091   3.619 -0.1168  0.0642 -0.0421
22074W        W37205   1.575   4.123  14.675  0.1492  0.0097  0.1874
22075W        W37206   3.799  12.144   2.988  0.0629  0.1598 -0.0185
22076W        W37207   3.276  11.354   2.781  0.0797 -0.3444 -0.0004
22077W        W37208   2.337  16.695  12.400 -0.1157 -0.0863  0.0637
22078W        W37209   8.389   8.716  14.496 -0.1538  0.0312  0.0463
22079W        W37210  15.701   4.156   0.900 -0.0700 -0.1751 -0.0901
22080W        W37211   1.599   5.268   0.301  0.0351  0.1398 -0.2299
22081W        W37212  16.769  13.625  14.526  0.0896 -0.0958 -0.0966
22082W        W37213   2.799   9.714  15.154  0.3943  0.0172  0.2691
22083W        W37214   5.156   3.431  12.531  0.0797 -0.0894 -0.2074
22084W        W37215  11.518   6.605  10.676 -0.3550  0.3564  0.1379
22085W        W37216   3.290   5.838  14.467  0.1063  0.1336 -0.0477
22086W        W37217   6.320  15.020  10.993  0.1379 -0.0413  0.1539
22087W        W37218   0.231   1.072  11.044  0.1130  0.1433  0.0151
22088W        W37219   4.769  16.961   2.583 -0.2037 -0.2218  0.0718
22089W        W37220   3.751   0.996   1.749  0.0296  0.0670 -0.1870
22090W        W37221   6.946   2.098   0.182 -0.2557  0.0600  0.0571
22091W        W37222   4.327   0.673   4.419  0.3039  0.0156 -0.0084
22092W        W37223   4.226  16.923   2.842  0.3614 -0.1455 -0.2831
22093W        W37224   5.921   8.726  14.339  0.1895 -0.1951 -0.0727
22094W        W37225   7.581   3.165   0.982  0.0924  0.0949 -0.3055
22095W        W37226   8.332  16.608  14.845 -0.2089 -0.2731  0.1025
22096W        W37227   4.464   1.373   1.006  0.1949  0.1559  0.0423
22097W        W37228   0.901  16.740  14.292  0.0440  0.0664  0.0861
22098W        W37229  15.791  13.293  15.923 -0.0670  0.1475 -0.3964
22099W        W37230   9.075  18.095   1.158 -0.1428  0.1615  0.1340
22100W        W37231   8.308  16.835  12.477  0.3118 -0.0699 -0.0651
22101W        W37232   6.901   6.692   1.475 -0.0691  0.0266 -0.1232
22102W        W37233   0.354   7.698   1.834  0.2077 -0.0232  0.0956
22103W        W37234   6.256   2.129  13.696  0.0856  0.1804  0.0954
22104W        W37235   7.850  17.554  11.683 -0.3078 -0.4344 -0.1678
22105W        W37236   6.599   7.368   4.625 -0.4135 -0.0049  0.1917
22106W        W37237  13.564   9.097   4.341  0.2073  0.1574  0.2084
22107W        W37238  15.580   1.393  14.981 -0.2562  0.1762  0.0046
22108W        W37239   0.300   0.231   2.459 -0.2142 -0.3508 -0.4274
22109W        W37240  10.552   1.858   1.808  0.2502  0.1425  0.2358
22110W        W37241   0.776  12.223   3.714 -0.0407  0.0418  0.0282
22111W        W37242  10.226   8.222  10.244  0.1264 -0.1787  0.1259
22112W        W37243   3.606  15.977  14.629  0.0986 -0.0918 -0.3797
22113W        W37244   6.990  17.327  11.064 -0.1489  0.2399 -0.1031
22114W        W37245   0.859  12.333  12.644  0.1434 -0.1079  0.1464
22115W        W37246   1.031  15.090  14.479  0.2459 -0.2829  0.0847
22116W        W37247   0.404  11.266   1.726 -0.0762 -0.3044  0.0345
22117W        W37248   3.384   7.956  16.071  0.0231 -0.1960  0.0040
22118W        W37249   1.530  13.092   6.496  0.2423 -0.0017  0.0149
22119W        W37250   7.375  17.384  13.257 -0.1393 -0.1177  0.1962
22120W        W37251  15.292   5.371  12.120  0.1631  0.1314 -0.1930
22121W        W37252   9.200   1.921  12.336 -0.0472  0.0448 -0.2081
22122W        W37253   7.757   2.697  15.528  0.0705  0.2308  0.3042
22123W        W37254   6.675  13.914   4.851 -0.1616 -0.0620 -0.1433
22124W        W37255  13.652   3.647  14.864 -0.1200 -0.1162  0.3193
22125W        W37256   9.828   9.740  14.057 -0.2495 -0.1649 -0.2333
22126W        W37257   7.849   7.729  15.192 -0.2173  0.0901 -0.1379
22127W        W37258  15.978  11.391  13.929  0.2136  0.1067  0.1092
22128W        W37259  10.134  15.823  16.071  0.0240 -0.1796 -0.0064
22129W        W37260  16.813   1.159   3.799 -0.2300 -0.1890 -0.2982
22130W        W37261  11.545   5.407   3.829 -0.2064  0.1648  0.0035
22131W        W37262   6.772  15.217   1.295 -0.0938 -0.1912  0.2261
22132W        W37263   7.339  11.787   1.675  0.0087  0.0915 -0.5028
22133W        W37264   0.683  17.778  14.506 -0.0316 -0.0565 -0.0196
22134W        W37265   5.598  14.015   0.277 -0.0536  0.2203  0.0767
22135W        W37266  11.491  16.427  13.925 -0.0638 -0.0268  0.0685
22136W        W37267  12.527   5.485  16.185 -0.4058  0.1455  0.0335
22137W        W37268   5.853  17.968  12.304  0.0211 -0.1379  0.1504
22138W        W37269   5.524   0.841  15.644 -0.0635 -0.0727 -0.1620
22139W        W37270   8.201  13.903   0.806  0.1427  0.2659  0.0048
22140W        W37271   8.443   3.719   3.546 -0.0635  0.0172  0.3635
22141W        W37272  13.751  14.111   1.258  0.0860 -0.0717 -0.0807
22142W        W37273   5.716   8.761  15.674  0.3567 -0.2050 -0.1808
22143W        W37274   3.107   7.749  13.711  0.2586  0.0202 -0.1230
22144W        W37275   1.325  10.226  11.068 -0.0188 -0.0373  0.0314
22145W        W37276   5.673  14.568  14.203 -0.1773 -0.1033 -0.1571
22146W        W37277  16.963   9.322  13.937  0.0865  0.2179  0.0738
22147W        W37278  10.749   0.812   3.179 -0.0449 -0.2248  0.1262
22148W        W37279   3.493  11.217  13.709 -0.2300 -0.0543  0.0731
22149W        W37280  12.831   8.029   0.690  0.1385 -0.0956 -0.2216
22150W        W37281  10.258   8.465  13.960  0.1316  0.0321  0.0754
22151W        W37282  18.143   3.553   4.860 -0.0671  0.3512 -0.0723
22152W        W37283   5.059  10.160   1.920 -0.0708 -0.0133 -0.2188
22153W        W37284   8.711   4.947  14.095 -0.2784 -0.2305 -0.0351
22154W        W37285  14.299   9.761   2.257 -0.2796  0.0698 -0.0397
22155W        W37286   9.880  13.894   5.193 -0.2281 -0.1411  0.0359
22156W        W37287   2.645   9.183  15.893  0.4239  0.0687 -0.1722
22157W        W37288   2.378   2.995  14.130  0.1344 -0.0448 -0.2292
22158W        W37289  15.655   8.511   1.045  0.1407  0.1493  0.3663
22159W        W37290   6.094  16.354  10.460  0.1022  0.0093  0.0606
22160W        W37291  17.607  16.087   1.012 -0.1442 -0.1396 -0.1863
22161W        W37292  14.964  13.063  13.154  0.1434  0.0879 -0.1465
22162W        W37293  18.046   0.401   0.796 -0.0880 -0.0252 -0.2701
22163W        W37294   9.714  15.590   4.136 -0.1187 -0.0040  0.0177
22164W        W37295   0.864  15.092   0.875 -0.0760 -0.1643  0.2714
22165W        W37296  13.180  13.045  12.960 -0.0344  0.1113 -0.0012
22166W        W37297   0.158   2.708   3.224 -0.1398  0.2726 -0.0672
22167W        W37298   1.218   6.178  16.066  0.0641 -0.1946  0.1229
22168W        W37299   4.518  16.184   5.511 -0.3024  0.0593 -0.0757
22169W        W37300  10.199  10.128   3.885 -0.0341 -0.1200 -0.0492
22170W        W37301   3.034  11.815  13.252 -0.2839  0.1236  0.1650
22171W        W37302   1.407  12.777   2.018 -0.0273  0.1709 -0.2087
22172W        W37303  15.493   7.708  12.284  0.0455 -0.2094  0.0920
22173W        W37304   0.123   9.611   5.242 -0.1068  0.0915 -0.1362
22174W        W37305   6.586   4.761  14.126  0.0615 -0.4397 -0.1192
22175W        W37306   8.673   5.568  13.436 -0.1902  0.0328 -0.0907
22176W        W37307  17.461   1.154  13.182 -0.1271  0.0139 -0.0887
22177W        W37308   2.321   1.704  13.347  0.1714  0.2374  0.0366
22178W        W37309   5.980  17.613  10.944  0.1941  0.1710  0.0429
22179W        W37310   4.150  14.738  15.679 -0.1064  0.1673 -0.1957
22180W        W37311  17.816   1.129   4.103  0.0814 -0.4324  0.0272
22181W        W37312   4.842  13.954  15.197  0.1184 -0.0156  0.2260
22182W        W37313   1.758  16.380  14.098  0.2294  0.2103 -0.0852
22183W        W37314   8.012  13.646  10.262 -0.1146 -0.0170 -0.0219
22184W        W37315   9.401   6.837  10.368  0.2169  0.1388  0.0545
22185W        W37316   5.919   1.265  14.742 -0.2004  0.2186 -0.0229
22186W        W37317  10.700   0.755  14.646  0.2655  0.1862  0.0338
22187W        W37318   5.362   5.958  12.989  0.0134 -0.1833  0.0155
22188W        W37319   3.303  13.630   5.221  0.1887  0.2184  0.2169
22189W        W37320   8.836   8.772  12.846 -0.1259  0.0299 -0.0861
22190W        W37321  14.541  13.521  15.246 -0.1501  0.0516  0.0149
22191W        W37322  18.032   4.523   0.099 -0.0460 -0.2606  0.2939
22192W        W37323   8.123  15.270   4.416  0.0687  0.0236 -0.0832
22193W        W37324  15.277   1.225  11.158 -0.0434  0.1427  0.1931
22194W        W37325   9.410   7.183   2.197  0.0097 -0.2178 -0.0611
22195W        W37326  13.896   5.621  13.201 -0.2001 -0.1862 -0.2392
22196W        W37327   1.836   4.844  11.459  0.1477 -0.1174 -0.1208
22197W        W37328  15.404   3.537   3.517 -0.1534 -0.1029  0.3156
22198W        W37329  12.645  16.829   0.742  0.0185 -0.1381  0.2497
22199W        W37330   1.335   9.572  13.783  0.1584  0.0089  0.6115
22200W        W37331   4.692  16.969  14.758 -0.1258 -0.0508 -0.1283
22201W        W37332   4.313  13.388  14.558 -0.0796  0.0129 -0.1986
22202W        W37333   1.610   7.688   5.279  0.0696 -0.0362 -0.1920
22203W        W37334  13.440  16.850  14.688  0.2034  0.0041  0.0933
22204W        W37335   6.903  16.369   5.389  0.0501  0.0559  0.0928
22205W        W37336   4.803  12.861  16.133 -0.2439  0.3161  0.0759
22206W        W37337  11.491  12.263  13.010  0.0787  0.0017  0.0654
22207W        W37338  16.193   6.160  14.776 -0.2080 -0.1982 -0.0013
22208W        W37339  14.919   9.685  11.166  0.1173 -0.3493 -0.0965
22209W        W37340  16.906  13.995  15.345 -0.0629  0.3099  0.0609
22210W        W37341  17.441   4.549   0.766 -0.2079  0.2346  0.1712
22211W        W37342  17.213  14.916  13.080  0.2350  0.0035  0.3093
22212W        W37343  10.429   1.047  12.538  0.2873  0.1902 -0.0804
22213W        W37344   1.058   5.567  12.946 -0.0488  0.3661  0.1915
22214W        W37345   9.652   4.961  11.964  0.0397  0.0210 -0.3395
22215W        W37346  15.339   6.895   0.913 -0.1052 -0.0740 -0.0075
22216W        W37347  17.545  14.045   1.460 -0.3091  0.4993  0.2885
22217W        W37348  13.314  14.904   0.191  0.2485  0.1515  0.0106
22218W        W37349  12.828   4.585  11.853  0.1235  0.1842  0.1256
22219W        W37350  13.082  10.541   2.337 -0.1659 -0.0652  0.0630
22220W        W37351  10.213  15.420   0.022 -0.0011  0.0459 -0.0554
22221W        W37352  13.125  14.824  13.003 -0.1050 -0.0568  0.0550
22222W        W37353   3.612  14.902   1.438 -0.1186  0.0050 -0.0632
22223W        W37354   1.063   8.943   2.046 -0.1593 -0.0223  0.1656
22224W        W37355  12.543   1.443  14.730  0.1379  0.4935 -0.0631
22225W        W37356  11.174   1.489  15.323  0.1552 -0.4176 -0.0170
22226W        W37357  17.332  13.147   1.628  0.0280  0.0893  0.0517
22227W        W37358  15.997   4.198  11.572 -0.2364 -0.3759 -0.1938
22228W        W37359   4.929  12.181   0.427 -0.2694  0.0631 -0.0656
22229W        W37360  10.885  16.803  15.983  0.2061  0.0144 -0.0551
22230W        W37361   9.235   1.542   0.219 -0.2420 -0.0661  0.1071
22231W        W37362   4.591  15.608  14.626  0.1479 -0.1261 -0.0845
22232W        W37363   5.197   2.395   4.259  0.0915 -0.2002  0.0879
22233W        W37364   7.618  11.420   1.951 -0.0408 -0.0063 -0.1769
22234W        W37365  14.186   4.908   3.789 -0.0809 -0.0954 -0.1095
22235W        W37366  16.373   2.991  15.044 -0.1152  0.0043 -0.1045
22236W        W37367  16.939   9.472  11.071 -0.2222  0.0595  0.1219
22237W        W37368   4.831   4.310   3.861  0.0531 -0.1641 -0.2186
22238W        W37369  12.634  10.264  11.069  0.0512  0.2608 -0.0536
22239W        W37370  10.127   5.766  11.532 -0.2139 -0.0241  0.1110
22240W        W37371  12.942  17.646  13.126 -0.0794  0.1032  0.0027
22241W        W37372   8.639   7.408   4.969 -0.0106 -0.1795 -0.1168
22242W        W37373   7.212   2.712  15.492 -0.0739 -0.0851  0.0177
22243W        W37374  17.280  12.343   3.308  0.0940  0.0634  0.0534
22244W        W37375   2.415   7.552  15.257  0.2161 -0.1445 -0.1889
22245W        W37376   3.812  11.021  15.852 -0.1560 -0.1887  0.2530
22246W        W37377   0.801  17.206   2.394  0.1705 -0.2227 -0.2299
22247W        W37378  12.243   4.094  13.708  0.0725  0.0383 -0.0285
22248W        W37379  15.262   0.854   5.341  0.0824  0.2624 -0.4868
22249W        W37380   2.129   9.422  12.296  0.1507  0.0835 -0.1525
22250W        W37381   4.788   4.825   2.605 -0.4252 -0.0565  0.0352
22251W        W37382  12.347   3.967   5.412  0.2096  0.1913 -0.3096
22252W        W37383   5.152  11.444   2.798 -0.1461 -0.1202  0.5253
22253W        W37384   6.860   8.293   4.023  0.2089  0.0425 -0.0870
22254W        W37385  13.933   0.115  13.349 -0.1744 -0.0660  0.0079
22255W        W37386  12.166  17.532  12.341 -0.3255 -0.2971 -0.3072
22256W        W37387   2.138   9.882  13.537 -0.2188 -0.0275  0.2813
22257W        W37388  12.082   9.298   5.153 -0.0281  0.0520  0.3601
22258W        W37389  13.273  10.740  12.247  0.0580  0.2851  0.0274
22259W        W37390   9.154  10.617   0.734 -0.2116  0.1071 -0.1384
22260W        W37391   7.278   0.710  14.549  0.1967  0.1065  0.1169
22261W        W37392  11.867  15.071  10.912  0.2133  0.0220  0.0118
22262W        W37393   2.189   0.497   5.197 -0.0913 -0.1107 -0.1298
22263W        W37394   1.771   3.900   0.482  0.4551  0.0723 -0.3267
22264W        W37395   4.016  13.779  13.518  0.0564  0.1864  0.1735
22265W        W37396  12.501   4.426  14.608 -0.0176 -0.1598  0.2173
22266W        W37397  16.734   8.503  11.881  0.1821  0.1613  0.0176
22267W        W37398   8.902   7.385  10.982 -0.0148  0.1322 -0.1389
22268W        W37399   7.396   0.528   2.146 -0.0516 -0.0584 -0.0936
22269W        W37400  12.421  15.942  14.667 -0.0707  0.0868  0.2333
22270W        W37401  15.285   7.945  13.126 -0.0145  0.0044  0.2371
22271W        W37402   5.430   8.411   4.276 -0.1380  0.2124 -0.1828
22272W        W37403   7.065   0.095  15.244  0.0710 -0.3728  0.3690
22273W        W37404   2.794   1.444  14.734  0.1009  0.0733  0.0630
22274W        W37405   2.744  13.939   2.122  0.0119 -0.3052 -0.0645
22275W        W37406  10.467   4.164   2.781 -0.2143  0.0106 -0.2335
22276W        W37407   4.862  16.934  15.700  0.1552 -0.3534 -0.1448
22277W        W37408   6.606  13.862   0.939  0.0597 -0.1117  0.2872
22278W        W37409  13.291   6.651  12.473 -0.0256 -0.0030  0.1821
22279W        W37410   4.660  16.979   0.012  0.1818  0.1105  0.0553
22280W        W37411   0.095  13.422   2.556  0.0083 -0.3282 -0.1923
22281W        W37412   6.777  13.359   4.881 -0.1244 -0.1826  0.2796
22282W        W37413  10.781   8.438  12.228 -0.2261 -0.2602 -0.1541
22283W        W37414   2.607  13.829  11.964 -0.0914  0.2707 -0.1692
22284W        W37415  10.643  11.499   2.016  0.2859 -0.1645 -0.2757
22285W        W37416  10.340  14.059   1.238  0.1496 -0.1587  0.1380
22286W        W37417   9.451  14.967  15.929  0.0964  0.0664 -0.2428
22287W        W37418   7.620   0.817  12.684 -0.3885 -0.0435  0.2129
22288W        W37419  12.070   6.675   1.938 -0.2817 -0.0221 -0.3053
22289W        W37420   5.891  15.766  15.986  0.0662 -0.0860 -0.0881
22290W        W37421   0.394   3.990  13.936  0.0226 -0.1087  0.0806
22291W        W37422   3.109   2.142  15.005  0.1797  0.0777  0.1865
22292W        W37423   7.407   2.764  14.247  0.0279 -0.4746 -0.0736
22293W        W37424   9.682  11.793   1.728 -0.0278  0.0234 -0.0988
22294W        W37425   1.521  17.311  15.261 -0.2911 -0.0572 -0.1533
22295W        W37426  17.546  12.646  12.027 -0.0776  0.2024  0.2544
22296W        W37427   2.274   0.423  16.083  0.0920 -0.2671 -0.1532
22297W        W37428  13.373  17.085  12.018 -0.2474  0.0009 -0.2661
22298W        W37429  16.863   6.143  12.298  0.3412  0.1110  0.2248
22299W        W37430  14.959   3.306  11.612  0.1790 -0.2936  0.1540
22300W        W37431   7.121   2.493  12.889 -0.1186  0.2325 -0.1423
22301W        W37432  11.984  15.113  14.230 -0.1814  0.1242 -0.1065
22302W        W37433   0.508  15.747  15.035  0.1581  0.1065  0.1735
22303W        W37434   6.636  14.252   2.890 -0.0350  0.2442 -0.0487
22304W        W37435   3.836  15.464  13.030 -0.1183 -0.1130  0.1942
22305W        W37436  15.151   4.814  12.049  0.2770 -0.1899 -0.2151
22306W        W37437  12.998  16.699   3.774 -0.2788 -0.0424 -0.0719
22307W        W37438  14.107   0.474  16.180  0.1791  0.0632 -0.1489
22308W        W37439   5.455   7.570   0.496  0.2757  0.3533  0.0208
22309W        W37440   8.353  14.783   3.841  0.1187  0.2048  0.2143
22310W        W37441   3.395   0.178   5.192  0.0121  0.0138 -0.1933
22311W        W37442   4.284  12.359   2.019  0.0238 -0.1400  0.0133
22312W        W37443  14.553   7.743  15.415 -0.1462 -0.3697 -0.0020
22313W        W37444   5.921   5.025  12.308  0.2176  0.0319  0.3966
22314W        W37445  14.402   0.800  12.811 -0.1738  0.6602  0.1773
22315W        W37446  12.560  10.404   4.771  0.0862 -0.0943 -0.1146
22316W        W37447   8.576  17.100  11.713 -0.3032 -0.0525 -0.0707
22317W        W37448   3.184   6.585  13.692  0.1291  0.0569  0.2166
22318W        W37449  13.986  14.951   0.493  0.1314  0.0610  0.2387
22319W        W37450   8.781   5.500  11.014  0.3241  0.0305  0.2609
22320W        W37451   9.532   8.786  14.549  0.1208  0.0521  0.0318
22321W        W37452   0.798  15.913   2.759 -0.2316  0.2094 -0.2415
22322W        W37453  10.008   4.835   5.968 -0.0374 -0.0441 -0.0584
22323W        W37454   1.572   7.357  12.957  0.0876  0.2940  0.0030
22324W        W37455  17.183   1.733  11.635 -0.1021 -0.1392 -0.1580
22325W        W37456   5.677  15.128  13.220  0.0418 -0.0228  0.4008
22326W        W37457  15.812  16.156  13.274  0.3419  0.3598 -0.0908
22327W        W37458  15.874   8.106  11.681  0.1995  0.0808  0.0066
22328W        W37459  15.037   9.308  14.900 -0.0662 -0.1046  0.0450
22329W        W37460  18.019   6.231   6.329 -0.1875  0.2477 -0.3142
22330W        W37461   5.056   1.077  14.272 -0.3720  0.3389 -0.0057
22331W        W37462  15.772   7.846   5.436  0.0790  0.0119 -0.0111
22332W        W37463   2.981   2.013   4.890 -0.1571 -0.2364  0.1642
22333W        W37464  10.930  14.533   2.061 -0.0684  0.1367  0.3528
22334W        W37465  14.327   3.683   1.420 -0.0948 -0.1184  0.3410
22335W        W37466  15.728   4.258  15.261  0.1331  0.2172 -0.4012
22336W        W37467   4.215   5.564   1.444 -0.0683  0.1115 -0.0719
22337W        W37468   6.774   9.769  12.314 -0.3094 -0.1271  0.1424
22338W        W37469  14.870   0.262   0.663  0.0937  0.0030 -0.1239
22339W        W37470  10.907  12.788   2.879 -0.1290 -0.0428  0.0977
22340W        W37471   3.000   7.641  12.257  0.2525 -0.0824  0.0194
22341W        W37472  17.486  15.265  15.447  0.1283 -0.1437  0.2041
22342W        W37473  17.683  15.156  15.934 -0.2738  0.1276 -0.1700
22343W        W37474   9.899   0.935  13.093  0.2474 -0.1880  0.3978
22344W        W37475  15.600  11.921   4.187  0.1112 -0.1636  0.1670
22345W        W37476  12.587   0.408  15.447  0.0795  0.0740 -0.0019
22346W        W37477  12.070  15.222   5.885  0.0645 -0.1427  0.4415
22347W        W37478  17.542  16.910  14.533  0.0712 -0.1253  0.1813
22348W        W37479   5.261   1.153  13.174 -0.0195 -0.0970 -0.1971
22349W        W37480   1.272  14.351  16.186  0.0380  0.0993 -0.3880
22350W        W37481   4.849  12.494  13.314 -0.1182 -0.1489 -0.0751
22351W        W37482   2.096  15.101  15.452  0.2221 -0.1940 -0.1487
22352W        W37483   6.888   5.832   3.626 -0.2708  0.3006  0.0097
22353W        W37484  14.925   8.405  11.918  0.0527 -0.0620  0.1108
22354W        W37485   3.761   4.956  11.989 -0.0391  0.1926  0.1586
22355W        W37486   1.751  17.056  11.734  0.1436 -0.3690  0.1647
22356W        W37487   1.115   5.771  12.006  0.0066 -0.1764  0.2253
22357W        W37488  10.602   2.994   0.542  0.2444 -0.1780 -0.2286
22358W        W37489   7.303   1.359   4.850 -0.1687  0.1102 -0.1195
22359W        W37490   9.500  10.671  12.711 -0.2434  0.0247 -0.4271
22360W        W37491   3.959  11.557  13.015 -0.0403  0.0755 -0.2195
22361W        W37492   0.660   7.417   5.250 -0.0701  0.1807  0.2743
22362W        W37493   4.647  12.085   3.487  0.0753  0.1647 -0.3996
22363W        W37494  15.782   3.903  14.668  0.1770 -0.1386 -0.1115
22364W        W37495   9.798   5.370   1.388  0.1902 -0.3215  0.0023
22365W        W37496  13.423  16.666  11.768  0.2576  0.0513 -0.0210
22366W        W37497   2.169   5.565  10.978  0.2765  0.0175  0.2150
22367W        W37498   0.623  16.913  13.869 -0.1463 -0.1056 -0.2834
22368W        W37499  12.233  14.390  15.565  0.3975 -0.1702 -0.1430
22369W        W37500   6.256   2.078  12.731 -0.3268  0.2320 -0.4192
22370W        W37501  15.608   3.639   0.878 -0.0193 -0.1079 -0.1402
22371W        W37502   6.308  15.420   1.509 -0.2930  0.2091  0.1915
22372W        W37503  17.340   5.572   4.202 -0.0341  0.1142 -0.3448
22373W        W37504   9.022   4.587   3.846 -0.2626 -0.4762  0.0951
22374W        W37505   4.344   8.823  14.749 -0.1410 -0.1829  0.0352
22375W        W37506   4.124   1.639   2.849 -0.1286  0.1109 -0.1778
22376W        W37507   1.654  14.974  12.544  0.1423 -0.2871  0.0405
22377W        W37508  10.094  15.361   5.141  0.0331  0.1946  0.0003
22378W        W37509   9.585  10.679  15.090  0.2371 -0.0600 -0.2722
22379W        W37510   7.804  16.077  11.988  0.1197 -0.4690 -0.0272
22380W        W37511  10.116  16.672   2.677 -0.0820 -0.0333  0.0266
22381W        W37512  12.706   0.887  15.262 -0.0541 -0.0587 -0.0111
22382W        W37513   3.855  13.896   4.378 -0.1898 -0.3722  0.0732
22383W        W37514   8.132  13.209   1.512  0.1671 -0.0111 -0.1633
22384W        W37515  14.868   6.369  15.248 -0.0796  0.1904 -0.0077
22385W        W37516   7.865   0.312   2.263  0.1356  0.2473  0.0321
22386W        W37517   3.806  14.864   3.873 -0.1230  0.3040  0.0004
22387W        W37518   1.285   1.758  11.703  0.0679 -0.0735  0.5590
22388W        W37519  17.440  15.514  11.782 -0.0824 -0.2173 -0.2777
22389W        W37520  16.443   7.314   0.044  0.3788  0.1332  0.0885
22390W        W37521   1.596  17.840  14.381  0.1250  0.1412 -0.4806
22391W        W37522   1.282  17.480   1.904 -0.1648  0.0752 -0.0696
22392W        W37523   2.257   8.504  12.919 -0.2509 -0.0343  0.2643
22393W        W37524  16.551  12.694   4.281  0.1710 -0.0491  0.0273
22394W        W37525  10.005   9.944   1.915  0.0029 -0.1398 -0.2270
22395W        W37526   8.127  16.931  16.227  0.3402 -0.1624  0.0989
22396W        W37527   4.497  14.645   4.656  0.2292 -0.1191 -0.2074
22397W        W37528   8.896   1.116  13.506  0.0119 -0.2986 -0.0275
22398W        W37529  17.348  14.644   5.513  0.1826 -0.2265  0.1292
22399W        W37530  15.341  13.790   3.390 -0.3425  0.1998 -0.1231
22400W        W37531   8.956   9.847  14.205  0.1603  0.2036  0.2520
22401W        W37532  17.781  17.923   0.119  0.0599 -0.1379  0.1071
22402W        W37533   5.888  10.372  16.127  0.0311 -0.1121 -0.1980
22403W        W37534   4.742   6.604   3.637  0.1543  0.0781  0.1025
22404W        W37535   2.940   9.249  15.048 -0.1328  0.1295 -0.1113
22405W        W37536  17.577  17.489   3.557 -0.0866  0.2474 -0.0619
22406W        W37537  15.758  16.787  14.909  0.0736  0.2520  0.1891
22407W        W37538  17.961  14.876  13.858  0.0596  0.0662  0.1817
22408W        W37539  15.663  11.632  15.775  0.3093  0.2393  0.1352
22409W        W37540  16.419  18.134  11.554 -0.0636 -0.2628  0.0110
22410W        W37541   0.873   4.676   2.187 -0.1304  0.0231  0.2225
22411W        W37542   8.239  17.706   4.442  0.0076 -0.3803  0.2479
22412W        W37543   7.994  17.815  14.307 -0.0098  0.1761 -0.2938
22413W        W37544   9.546   9.213   0.755 -0.0220 -0.0613 -0.3213
22414W        W37545  16.550   9.001   4.152  0.1191 -0.0892  0.1601
22415W        W37546  12.677  10.372   5.779  0.0421  0.2142  0.1094
22416W        W37547   5.880   7.746  12.862  0.0236 -0.2337 -0.0546
22417W        W37548   6.044   1.326  13.345 -0.3079  0.2465 -0.4815
22418W        W37549   3.045  11.890   2.435 -0.0771 -0.1588 -0.0230
22419W        W37550   3.389  16.332  10.006  0.0239 -0.1588 -0.0868
22420W        W37551  12.349   8.338  15.938 -0.1709 -0.1872  0.0260
22421W        W37552  12.397  13.816  15.441 -0.0675  0.0100  0.1736
22422W        W37553  12.372  13.395   1.152 -0.1480 -0.3538 -0.1666
22423W        W37554   2.819   0.377   2.092  0.1542  0.1065 -0.0926
22424W        W37555   2.034   9.917  12.486  0.0719  0.3124  0.0694
22425W        W37556  16.832   2.562   5.129 -0.1298 -0.1145 -0.2722
22426W        W37557   8.693   7.875  12.741 -0.1492 -0.1781  0.2028
22427W        W37558   3.899  12.530  10.646 -0.0871 -0.3920  0.1033
22428W        W37559   7.900  16.465  12.883 -0.0536 -0.7256  0.0063
22429W        W37560  16.842  15.383   5.177  0.1294  0.3407  0.0768
22430W        W37561  13.327  12.986  10.890 -0.3099 -0.1595 -0.2627
22431W        W37562  16.457   3.284   5.348  0.2076  0.1655  0.3495
22432W        W37563  16.916  15.918   2.050  0.0654  0.0449 -0.1349
22433W        W37564   6.900  17.811   5.213  0.0688  0.1503  0.0851
22434W        W37565   0.729   7.048  12.197  0.0261  0.0637  0.1695
22435W        W37566   6.337   0.324  15.932  0.3277 -0.3801 -0.0425
22436W        W37567   4.884   3.207   5.125  0.2220  0.1383  0.2079
22437W        W37568  18.091  10.649   4.373  0.1182 -0.0409  0.0453
22438W        W37569  13.805   1.971   4.234  0.0695  0.2424 -0.1051
22439W        W37570  12.963  11.421   0.492 -0.3412  0.0503  0.0855
22440W        W37571  12.380   4.171   4.948 -0.0883 -0.0511 -0.0462
22441W        W37572   2.657  16.987  11.434  0.2392 -0.1233  0.0948
22442W        W37573   0.004  12.744  13.725  0.2646  0.2086 -0.2316
22443W        W37574  15.469  18.055  15.282 -0.0248  0.0928 -0.1091
22444W        W37575  12.850   2.938   5.704  0.1891  0.2128 -0.0212
22445W        W37576   0.490   6.845  14.352 -0.3417 -0.1684 -0.2432
22446W        W37577   0.448   9.215  15.710 -0.0061  0.0254 -0.0456
22447W        W37578   3.345  15.851  14.238 -0.1285 -0.2188  0.0549
22448W        W37579  11.371   7.136  10.602  0.2007 -0.0289 -0.0251
22449W        W37580  18.064   3.534   4.319  0.2970  0.1236  0.0501
22450W        W37581   5.925   4.145  12.223  0.2927 -0.2929  0.0880
22451W        W37582   0.738   4.037   3.487 -0.1265  0.0347 -0.0368
22452W        W37583  16.491   4.882  15.448 -0.1901  0.1169 -0.0635
22453W        W37584  12.954   5.209   1.689 -0.2654  0.1565  0.3280
22454W        W37585   9.339  10.391   3.925  0.1569 -0.0881 -0.0571
22455W        W37586   5.780   3.797   1.636 -0.1258 -0.1843  0.0945
22456W        W37587   4.703  11.298   1.349 -0.1040 -0.3643 -0.0482
22457W        W37588   9.260  11.265   3.441 -0.0514  0.2652  0.2745
22458W        W37589  16.817   2.413  14.312  0.1604 -0.0746  0.2189
22459W        W37590  12.389  11.475  12.619 -0.5765  0.0509  0.1233
22460W        W37591   0.394  13.733  15.371  0.2287 -0.0850  0.2030
22461W        W37592   6.058  17.630  15.787 -0.1220 -0.0803 -0.0187
22462W        W37593   7.505  11.426  11.801 -0.0161 -0.0202  0.0459
22463W        W37594   7.744  11.331  11.265 -0.0770 -0.1887  0.0151
22464W        W37595  11.175   4.854  15.866 -0.0130 -0.0344  0.1796
22465W        W37596   8.881   3.352  15.827 -0.1211  0.3102  0.2800
22466W        W37597  18.031  15.529   1.329 -0.1638  0.2497  0.0265
22467W        W37598   7.333  13.288  14.304  0.0884 -0.1291 -0.3005
22468W        W37599  17.959   9.709  16.188 -0.1675 -0.1006  0.1409
22469W        W37600   6.383  15.562  16.012  0.2848 -0.3800 -0.4105
22470W        W37601   0.542  16.543   1.802  0.0405 -0.0079  0.0101
22471W        W37602   2.931   2.576   0.437  0.2450  0.1261  0.0598
22472W        W37603  16.189   4.627   6.323 -0.2117 -0.0250  0.2281
22473W        W37604   5.613  11.709  10.635 -0.0828 -0.1156 -0.0753
22474W        W37605   0.706  13.928  13.300  0.3239 -0.0974 -0.1573
22475W        W37606  11.714  11.220   2.413  0.0306  0.0581 -0.0423
22476W        W37607  15.862  16.787  13.677  0.0639 -0.1954  0.4321
22477W        W37608  13.050  15.524   1.700  0.0131  0.2299 -0.1848
22478W        W37609   2.242   5.694  14.231 -0.1435 -0.0258  0.2090
22479W        W37610  15.229  10.300  12.961 -0.2568 -0.0701  0.0395
22480W        W37611  11.679   1.954  14.503 -0.0392 -0.2566  0.0086
22481W        W37612   5.170   9.925  16.170 -0.1289 -0.4199 -0.1221
22482W        W37613   9.382   5.538  14.089 -0.1149  0.0091  0.3215
22483W        W37614   0.446  10.857   0.871 -0.2910 -0.0256  0.0427
22484W        W37615   1.810   7.916   2.149 -0.1893 -0.1246 -0.0754
22485W        W37616   6.024   3.448  11.658  0.1401 -0.0598  0.0713
22486W        W37617   7.510   7.477   5.094 -0.3028 -0.1076 -0.1891
22487W        W37618   8.020   8.360  15.955  0.2360  0.1280 -0.1892
22488W        W37619   5.014  15.572  14.302 -0.1646  0.2398  0.1416
22489W        W37620   9.365   0.297   4.829  0.1350 -0.0136  0.2344
22490W        W37621   4.406   0.588  15.182 -0.0620  0.0796 -0.0682
22491W        W37622   5.359   7.729  12.567 -0.0586 -0.2324 -0.3788
22492W        W37623  14.092  17.550   5.239  0.0599 -0.2995  0.3692
22493W        W37624  15.828   2.599   2.537  0.1202  0.0327 -0.2025
22494W        W37625   4.156   3.017   4.198  0.2103 -0.0190  0.2578
22495W        W37626  15.291  15.707  14.986  0.1478  0.2151 -0.0823
22496W        W37627   9.732  16.789   4.119  0.1976 -0.1110 -0.1714
22497W        W37628   6.694  10.548   0.776 -0.2412 -0.3102  0.0914
22498W        W37629   2.634   4.119   3.115  0.2008 -0.0035  0.0005
22499W        W37630   8.929  12.869  14.923  0.2607  0.2261 -0.3223
22500W        W37631   9.487   1.891   2.290  0.0398  0.0209  0.0637
22501W        W37632   1.470   5.464   0.860 -0.1235  0.2390  0.1967
22502W        W37633  10.079   2.082   5.726  0.1195  0.2876  0.0405
22503W        W37634  13.897   7.188  11.852  0.2786 -0.0639 -0.5218
22504W        W37635   9.450   8.107   2.559  0.1297  0.0939  0.0800
22505W        W37636   7.332   0.867   2.657 -0.2161  0.2163 -0.0467
22506W        W37637   7.485   5.145  14.017 -0.1713 -0.0732  0.0082
22507W        W37638   6.142  11.223  15.521  0.2239  0.0765 -0.4327
22508W        W37639  14.074   8.413   4.840  0.0625  0.2401 -0.0106
22509W        W37640  10.931   3.897  15.783 -0.0583  0.4168 -0.0232
22510W        W37641   9.408   1.544   4.548  0.0289 -0.0496 -0.0806
22511W        W37642   1.771   1.536  16.085 -0.2310  0.0559  0.0871
22512W        W37643   1.452   8.484  14.082 -0.0399 -0.2118 -0.0461
22513W        W37644  13.365  16.108  12.058  0.3339 -0.0996  0.0962
22514W        W37645   9.469   2.863  14.274  0.0429 -0.0231  0.0540
22515W        W37646  18.141  10.956   1.795 -0.2523  0.2217  0.1448
22516W        W37647   7.559  10.045   0.893 -0.0119  0.0530  0.2930
22517W        W37648   2.830   6.282  13.792 -0.0058  0.1123  0.2785
22518W        W37649  11.366  11.569  14.504 -0.3293 -0.1192  0.0639
22519W        W37650  11.919  12.222   1.278 -0.1119 -0.0376 -0.0148
22520W        W37651  11.308  14.403   4.453  0.2360  0.0192 -0.0778
22521W        W37652   0.077   7.307   2.037  0.1936 -0.2477  0.2056
22522W        W37653   3.393  10.611  15.787 -0.1398  0.0822  0.1296
22523W        W37654  15.649  14.850  13.220 -0.0080 -0.1205 -0.1636
22524W        W37655   9.345  13.786  13.032  0.0586 -0.1380 -0.0362
22525W        W37656  15.205   9.203  11.133  0.1524 -0.0282 -0.0325
22526W        W37657  12.747   1.317  12.672  0.2225 -0.0113 -0.2364
22527W        W37658  18.176   5.666  12.042 -0.2901 -0.2091 -0.4395
22528W        W37659  17.929  11.879  12.506 -0.0097 -0.2185 -0.1410
22529W        W37660   9.483  15.321   4.538  0.0671 -0.0137  0.2627
22530W        W37661   8.427   6.567   4.320 -0.0963  0.1585 -0.2744
22531W        W37662   7.650  15.424  14.878  0.2636 -0.0702 -0.2578
22532W        W37663  13.736   4.672  15.232 -0.3388 -0.4086  0.0766
22533W        W37664  17.308  10.942   6.506  0.1602  0.2555 -0.1725
22534W        W37665  12.615   1.515  15.228  0.4099  0.2272  0.1193
22535W        W37666  14.814   7.423  11.548 -0.0896 -0.0242 -0.3440
22536W        W37667   7.395   9.757   2.400 -0.0083 -0.1854  0.2393
22537W        W37668   1.513  13.443   4.937  0.4433 -0.2238  0.0021
22538W        W37669   7.379   6.952  13.256 -0.3556 -0.0988  0.1330
22539W        W37670  18.070   1.431   5.671 -0.0428  0.3498 -0.0470
22540W        W37671   3.421  15.980   5.814 -0.3860 -0.0776 -0.1010
22541W        W37672  13.390   6.012   0.649 -0.1697 -0.4448  0.3799
22542W        W37673  14.952  13.562   4.232 -0.1788 -0.1647  0.0088
22543W        W37674   2.355   8.575   3.702  0.2043  0.2709 -0.1502
22544W        W37675  18.179  11.550  11.962 -0.1221  0.0300  0.3416
22545W        W37676   0.008   2.202   3.188  0.1860  0.1209  0.0491
22546W        W37677  16.213   1.876   1.358 -0.1567  0.1590  0.0808
22547W        W37678   8.647  15.740  10.953  0.4921 -0.3500  0.0422
22548W        W37679   8.516   1.982   3.572  0.3575  0.0012 -0.0445
22549W        W37680   4.648   9.209  14.970 -0.3556  0.0055 -0.0209
22550W        W37681  14.669   0.858   3.446  0.0698 -0.2057  0.1664
22551W        W37682   0.362   4.701   5.383 -0.0670  0.0526  0.1448
22552W        W37683   6.491  12.579   2.098  0.0555 -0.0860  0.1278
22553W        W37684  10.449  12.519  12.816  0.0501 -0.0575  0.2510
22554W        W37685   4.584   1.006   2.249  0.2931  0.1778 -0.1057
22555W        W37686   9.405   1.050  12.546 -0.0412  0.0007  0.1895
22556W        W37687  14.184  11.352   3.632 -0.3731  0.1493  0.3019
22557W        W37688   3.551   1.352   1.230 -0.0292 -0.1064 -0.2463
22558W        W37689   8.897   4.784  15.979 -0.4275 -0.2461  0.1980
22559W        W37690   1.465   7.063   2.078  0.3154  0.1415 -0.2932
22560W        W37691   1.490   5.913   1.014  0.0150 -0.1703 -0.0566
22561W        W37692  18.019  14.721   1.043 -0.0457 -0.2330 -0.0325
22562W        W37693  15.336   8.578   2.276 -0.0061  0.0108 -0.2265
22563W        W37694  15.690   3.682  12.629 -0.0550 -0.3108 -0.2173
22564W        W37695   0.727   2.227  15.499  0.0098  0.0288 -0.1092
22565W        W37696  15.567  14.725  15.875  0.1044 -0.3228 -0.1666
22566W        W37697   2.815   5.636   0.444  0.2538  0.0196 -0.3762
22567W        W37698   8.099   8.190  12.039  0.1456 -0.2740 -0.1917
22568W        W37699  10.326   6.334  14.775 -0.0831 -0.0742 -0.0100
22569W        W37700   5.436   8.885   0.253 -0.0534  0.0844  0.0098
22570W        W37701  10.257  12.344  15.695 -0.0666 -0.1281  0.0433
22571W        W37702  11.142   5.893  12.388 -0.1017 -0.1488  0.1895
22572W        W37703  15.805   4.665  11.845 -0.0532  0.0053  0.1522
22573W        W37704  17.696   4.862   0.042 -0.2898  0.0009  0.0947
22574W        W37705  14.286   0.376  12.508 -0.3450 -0.0826 -0.0694
22575W        W37706   4.165  12.968  12.472  0.0326 -0.0843 -0.1949
22576W        W37707   2.839   8.890   3.167 -0.0393  0.0092 -0.0284
22577W        W37708   4.302  11.872  13.843  0.2422 -0.0744  0.2814
22578W        W37709  15.661  12.762  15.559 -0.2832  0.1497 -0.1784
22579W        W37710  15.538   8.461   3.067  0.2262 -0.1392  0.3158
22580W        W37711  13.543   1.494  15.496 -0.2251  0.0030  0.0034
22581W        W37712  12.751  16.454   4.288 -0.0398  0.2126  0.0647
22582W        W37713  12.841  15.783   0.856  0.2228 -0.0177 -0.1834
22583W        W37714   7.922   5.221  13.728 -0.0216 -0.1162  0.0459
22584W        W37715  11.359  11.262  15.440  0.2299  0.2799 -0.0504
22585W        W37716  15.678  18.040   3.221  0.1150 -0.1741 -0.0592
22586W        W37717   9.289   7.948  10.353 -0.0180  0.3177  0.2013
22587W        W37718   8.734   8.892   3.702  0.0522 -0.0063  0.1273
22588W        W37719  17.776   6.859   0.886  0.1752 -0.0246 -0.1458
22589W        W37720  17.546  13.213   0.311  0.1382 -0.2504 -0.0859
22590W        W37721   2.339  16.957  14.094 -0.1874  0.2248  0.0584
22591W        W37722   4.570   8.215  13.645  0.1773 -0.1891 -0.1702
22592W        W37723   6.053   2.013   1.886  0.0040 -0.3839 -0.0338
22593W        W37724   2.865   1.058   3.756 -0.1368  0.2536  0.0519
22594W        W37725   1.297   9.828   0.632 -0.0481 -0.0595 -0.0271
22595W        W37726   4.429   4.373  10.642 -0.4133  0.1219 -0.3274
22596W        W37727   9.561  11.365  11.230 -0.1773  0.0131  0.0182
22597W        W37728   1.848   6.295   1.766 -0.1028  0.0492  0.1147
22598W        W37729  11.683   6.555   4.382  0.2433 -0.0944  0.1514
22599W        W37730  11.526  15.459   4.830 -0.0778  0.0965 -0.2167
22600W        W37731  13.036   5.612   1.335  0.2680 -0.0782 -0.0522
22601W        W37732   4.153   9.618  14.641  0.0034 -0.2448 -0.0943
22602W        W37733   5.846   5.903   1.240 -0.0691 -0.0176  0.0223
22603W        W37734  10.885   6.913   4.261  0.4350 -0.3418  0.3041
22604W        W37735  16.258   6.644   1.773 -0.0436 -0.3280 -0.3097
22605W        W37736  13.983  17.120   2.902  0.0982  0.2133  0.0651
22606W        W37737   6.847   1.161   2.651 -0.0900  0.1326 -0.1232
22607W        W37738   4.781  17.773  15.160  0.0345  0.2636  0.0349
22608W        W37739   4.822   2.993  14.385 -0.0706  0.2638 -0.2567
22609W        W37740   0.057   1.176  12.044  0.0845  0.2375  0.0022
22610W        W37741   4.395  15.483  11.083  0.1310 -0.1967  0.3359
22611W        W37742  17.390  13.980  11.837  0.4478  0.0433  0.1237
22612W        W37743   7.161   0.588  11.453  0.1130 -0.1138  0.0971
22613W        W37744  10.019   4.899   5.487  0.2576 -0.1518  0.1237
22614W        W37745   2.408  13.089  15.025  0.2172  0.1333 -0.0084
22615W        W37746   8.642   2.950  11.698  0.2598  0.0629  0.3808
22616W        W37747  16.184  15.749  10.654  0.0195  0.1951  0.0298
22617W        W37748   4.254  15.970   3.375  0.3148 -0.1947  0.3182
22618W        W37749   5.677  10.531  14.262  0.3213  0.0178  0.0127
22619W        W37750   8.953   3.157  13.890 -0.1223  0.1546  0.0339
22620W        W37751  12.899  10.297  15.242  0.1337 -0.0970  0.4304
22621W        W37752   6.240   5.400  14.629  0.1114 -0.2439 -0.0083
22622W        W37753   8.390   1.031  13.414  0.3809  0.2529  0.1289
22623W        W37754  16.131   0.452  15.372  0.1342  0.1975  0.0432
22624W        W37755  15.455   5.072   0.547  0.0712 -0.1201  0.0174
22625W        W37756   1.165   9.350  11.009  0.0676 -0.3190  0.3542
22626W        W37757   5.084   0.542   2.528 -0.3204  0.1331  0.1322
22627W        W37758   3.470   4.391  14.462  0.0210  0.2264  0.0629
22628W        W37759  10.692   5.196  12.137  0.0745 -0.5057  0.3418
22629W        W37760   2.390   5.756  15.075 -0.0347 -0.1784 -0.1065
22630W        W37761  15.830  14.796  11.678 -0.0669  0.1556  0.0173
22631W        W37762  15.848   9.857  14.726  0.3012  0.2136  0.2478
22632W        W37763  12.077   6.010  14.030  0.0088 -0.1507 -0.2336
22633W        W37764  14.353   5.960   2.634 -0.1213 -0.1164  0.1225
22634W        W37765   4.036   7.209  14.609  0.0068 -0.0205  0.1011
22635W        W37766   3.451   0.829  14.491  0.0076  0.0509 -0.0537
22636W        W37767  17.817  12.319   0.168  0.0330  0.5545 -0.3523
22637W        W37768  13.745  17.378   2.550 -0.1224 -0.1584 -0.2971
22638W        W37769   2.871   8.112   0.750 -0.0966  0.2734 -0.0518
22639W        W37770   8.444   1.394   4.888  0.0686  0.0276 -0.1055
22640W        W37771  14.849   7.805   3.458  0.0304 -0.0219  0.3073
22641W        W37772  11.772  17.153   0.093  0.2066 -0.2108  0.1857
22642W        W37773   6.348   9.350  10.118 -0.0028  0.1070  0.1446
22643W        W37774  17.186  12.506   0.228 -0.0144  0.0844 -0.0684
22644W        W37775   6.345  15.734  14.321  0.2073 -0.0396  0.1958
22645W        W37776  11.059  11.354  13.219  0.2010 -0.1763 -0.1957
22646W        W37777   4.403  15.789   4.206 -0.2351  0.1146 -0.1940
22647W        W37778   3.182  11.782  11.960  0.2521  0.0187 -0.2210
22648W        W37779   7.709   3.083   4.404 -0.3844  0.0807  0.0231
22649W        W37780   6.759  17.832  14.391 -0.2270 -0.3110  0.1432
22650W        W37781  16.428  12.276  10.656  0.1092  0.0491 -0.2799
22651W        W37782   8.012  14.971   4.801  0.1184  0.0368 -0.0655
22652W        W37783   9.687   9.200   1.305 -0.0783  0.1307  0.0399
22653W        W37784   2.376  14.893   4.999  0.0703  0.0674 -0.0288
22654W        W37785   7.299   0.645   3.107 -0.0632  0.1328 -0.0082
22655W        W37786  15.500  14.241  15.967  0.1480  0.0529 -0.0561
22656W        W37787   4.235   1.714  14.238  0.2357  0.2253 -0.0814
22657W        W37788  13.501  14.372  14.904  0.1335  0.0975 -0.2201
22658W        W37789   2.683   8.141   2.867 -0.3063 -0.3726  0.0043
22659W        W37790   2.253   7.260  13.284  0.0533  0.0748  0.0325
22660W        W37791   9.494  15.457  14.337 -0.2622  0.4054 -0.2564
22661W        W37792   8.726   1.074  12.063 -0.3289 -0.0465  0.2157
22662W        W37793  14.466  17.903  15.659 -0.0249 -0.0107 -0.1391
22663W        W37794  13.309   0.153   3.119 -0.0662 -0.1426  0.2421
22664W        W37795  16.687   0.267   3.881 -0.0751  0.2458 -0.0529
22665W        W37796  16.900  13.501  13.454  0.2186 -0.0779  0.3041
22666W        W37797   0.534   6.834   3.140  0.1123  0.1643  0.1201
22667W        W37798  14.223   1.822   5.190 -0.1792 -0.0381 -0.2404
22668W        W37799   2.477  17.946   2.540 -0.0976  0.1131 -0.1142
22669W        W37800   3.826   1.211   2.695  0.1481 -0.1682 -0.5123
22670W        W37801   3.512  15.011   1.915 -0.0013 -0.4253 -0.0619
22671W        W37802  18.179   5.415   3.313  0.0456  0.2658  0.0208
22672W        W37803   0.422  17.895  15.829 -0.1198  0.0997 -0.3509
22673W        W37804   4.300  11.576  14.244  0.1028 -0.2999 -0.1241
22674W        W37805  12.575   3.219  12.601  0.2677 -0.1020  0.0429
22675W        W37806  13.530   0.323  13.076 -0.0911 -0.0664  0.3087
22676W        W37807   4.853  14.559  11.952 -0.2111  0.2244  0.0324
22677W        W37808  12.556   1.971  14.935 -0.0823  0.2899  0.0252
22678W        W37809   9.669   1.173   2.632  0.0361  0.0458  0.1540
22679W        W37810  12.379  14.697  14.720  0.0850 -0.3939 -0.2055
22680W        W37811   5.399  14.763   4.795  0.0855  0.0417  0.0129
22681W        W37812   2.053  16.636  11.520 -0.0540  0.1435  0.1042
22682W        W37813  14.328  12.848   5.158 -0.1540 -0.1193 -0.0706
22683W        W37814   5.681   6.976   3.584 -0.3736  0.0991 -0.1403
22684W        W37815   9.844   5.575  14.644  0.3224 -0.2042 -0.0366
22685W        W37816   6.764   9.351   2.747 -0.1236  0.2525  0.2482
22686W        W37817  16.509  10.453  15.298 -0.1597  0.0538  0.0152
22687W        W37818  13.726   3.366  13.438 -0.0088 -0.1760 -0.5019
22688W        W37819   8.559  13.001  13.854 -0.2329  0.0022  0.0420
22689W        W37820  11.376  16.434  11.418 -0.1664 -0.0576  0.1048
22690W        W37821   7.937  11.913  12.828 -0.0619  0.0914 -0.2310
22691W        W37822  16.295  16.501   5.030 -0.0010 -0.0588 -0.0220
22692W        W37823   9.157   6.335  11.901 -0.1007 -0.0182 -0.2988
22693W        W37824  13.273   9.484  15.187  0.0422 -0.1329  0.0640
22694W        W37825  10.372   1.080   1.208 -0.3438 -0.0418  0.4980
22695W        W37826   8.785   1.506  15.081  0.0341  0.0358  0.0356
22696W        W37827   4.370  16.332  14.473 -0.0064 -0.0264  0.0682
22697W        W37828   8.894  10.539  15.174 -0.1782  0.0018 -0.1052
22698W        W37829   9.694   4.115   0.583  0.0336  0.2765 -0.1531
22699W        W37830   7.396   7.392  13.838 -0.0731  0.0709  0.0672
22700W        W37831  14.080  13.035  14.131  0.0252 -0.1263  0.1045
22701W        W37832   4.257   1.497   0.572  0.1739  0.0507  0.1624
22702W        W37833   2.312  11.532  13.983 -0.0305  0.1084  0.2117
22703W        W37834   6.886   6.647   4.108  0.0599  0.2098 -0.1625
22704W        W37835   5.184   0.615  15.388  0.3788 -0.2645 -0.0608
22705W        W37836   2.358   2.893   2.070 -0.0464 -0.0890  0.0284
22706W        W37837   4.757   4.022  13.364  0.1916 -0.4919 -0.1472
22707W        W37838  14.943  14.524   3.554 -0.1225 -0.2768 -0.0337
22708W        W37839  11.207   6.060   5.843 -0.2935  0.2438 -0.1568
22709W        W37840  11.810   6.115  14.648  0.2613  0.0237  0.2127
22710W        W37841   0.868   3.877   0.264 -0.1016  0.0676 -0.0575
22711W        W37842  14.236  15.259   3.533 -0.0633  0.3649  0.1377
22712W        W37843   6.890  12.748   3.974  0.2721 -0.0527  0.3381
22713W        W37844   8.764   9.747   3.574  0.0074  0.2331 -0.0290
22714W        W37845  12.584   2.565  13.277  0.1838 -0.0535 -0.0988
22715W        W37846  12.211  11.046  11.146 -0.0796 -0.0502 -0.0305
22716W        W37847  13.277  17.176  14.279 -0.2031 -0.0188  0.0056
22717W        W37848   8.037   9.781   2.102 -0.2236  0.3636  0.1672
22718W        W37849   5.313   2.780  16.104 -0.1659 -0.0614 -0.0360
22719W        W37850   8.168   0.265  15.603 -0.0706 -0.1137  0.1434
22720W        W37851   3.677  17.279   1.372 -0.0016  0.3953 -0.3925
22721W        W37852  15.873  12.373  10.640  0.1505  0.2079 -0.1981
22722W        W37853   7.091   4.787   5.113  0.3069  0.0527 -0.1283
22723W        W37854   0.215   5.144  15.573 -0.1865 -0.1799 -0.1312
22724W        W37855   4.393  14.008   4.291 -0.0828  0.2097  0.2715
22725W        W37856   0.934   9.039   4.227 -0.0829 -0.2544  0.2187
22726W        W37857   8.849   3.161   2.100 -0.0312  0.2881  0.0490
22727W        W37858   0.932  11.305  12.300 -0.0768 -0.0272 -0.2358
22728W        W37859   8.299   1.995   0.891  0.2073  0.1242  0.3272
22729W        W37860   3.443  14.573   2.138  0.0750 -0.0645 -0.3176
22730W        W37861  14.657   8.477   1.875  0.2821 -0.1020 -0.0297
22731W        W37862   6.961  16.577   1.945 -0.1618 -0.2887  0.1935
22732W        W37863  17.516  16.639   2.433  0.3582  0.1397 -0.1982
22733W        W37864  15.658   2.611   3.392  0.0706 -0.2105  0.1330
22734W        W37865  13.305  12.556  13.105 -0.0243  0.1361  0.1863
22735W        W37866   0.494   1.530  13.314  0.0405  0.1069 -0.1337
22736W        W37867   2.389  11.259  12.554 -0.0816 -0.0701 -0.0062
22737W        W37868  14.823   1.115  15.109 -0.0919  0.1436  0.0289
22738W        W37869  11.005  16.407  15.116  0.1715 -0.1617 -0.0897
22739W        W37870   3.300  11.423   3.940  0.2895  0.3598  0.3780
22740W        W37871  17.011  12.937   5.895  0.1247  0.2068  0.0951
22741W        W37872  13.343  12.721  15.202  0.0870  0.3046  0.0836
22742W        W37873   8.733  14.853  10.264 -0.0461 -0.2054 -0.0177
22743W        W37874   2.126   5.799   3.420 -0.0116 -0.1402  0.2553
22744W        W37875   2.222  10.142  14.570  0.1577 -0.1168 -0.2915
22745W        W37876   2.369   6.674  14.899 -0.1487 -0.4395 -0.0122
22746W        W37877   5.082   5.523  12.837 -0.2167  0.0408 -0.2406
22747W        W37878  15.242   7.832  15.962 -0.2058 -0.0191 -0.2053
22748W        W37879  17.408  11.513  15.646 -0.1652  0.3529  0.1184
22749W        W37880   8.281  17.136   3.745 -0.0932  0.0645  0.0726
22750W        W37881   6.503   8.438   2.947 -0.1780 -0.0541 -0.1403
22751W        W37882   2.089  11.600  11.265  0.1315 -0.0776  0.1694
22752W        W37883  14.993   9.372  15.736  0.1298  0.2745 -0.0864
22753W        W37884   3.630   8.908   1.318  0.2219  0.0237  0.0241
22754W        W37885   7.673  12.057   3.693 -0.0602  0.0639 -0.2697
22755W        W37886   8.439   2.736   5.766  0.0145  0.2451 -0.2512
22756W        W37887   7.043  12.677  12.845  0.1743 -0.0307 -0.0029
22757W        W37888  16.409  13.551   0.954 -0.0145  0.0111 -0.0597
22758W        W37889  17.253  13.569   0.145 -0.1511 -0.1837  0.2297
22759W        W37890  11.776  12.199  13.846  0.3369  0.0370 -0.0095
22760W        W37891  16.814  14.585   3.574  0.0825  0.0806 -0.0610
22761W        W37892  13.050   2.936   1.604 -0.0244  0.0945 -0.0858
22762W        W37893  15.723   5.834  12.786  0.1420 -0.2057  0.0748
22763W        W37894   1.225  12.565  16.106  0.0289  0.0683 -0.0541
22764W        W37895  13.246  10.643   5.285  0.0346  0.0248 -0.1591
22765W        W37896   3.404  17.638   5.290  0.0177  0.1827  0.0764
22766W        W37897   6.737  14.732  13.510  0.0304 -0.1564 -0.0893
22767W        W37898   4.304   4.094   1.588 -0.1700  0.0578  0.0176
22768W        W37899  14.467   9.830   1.473  0.2481  0.1896  0.1771
22769W        W37900  16.044   5.540   4.339  0.2691 -0.2307  0.1296
22770W        W37901  14.046   8.178  14.048  0.4147  0.3586  0.0901
22771W        W37902   3.203  15.966  12.452 -0.0155 -0.2027  0.1795
22772W        W37903   2.659   3.589  15.153 -0.1971 -0.0775  0.1040
22773W        W37904   3.487   2.403  14.683  0.0291  0.1044  0.0069
22774W        W37905  14.851   6.827   0.176 -0.1125  0.0331  0.2529
22775W        W37906  11.699  15.270   3.898 -0.3143 -0.2663 -0.0670
22776W        W37907  11.255   5.839  14.585 -0.2464 -0.0796 -0.0979
22777W        W37908   8.077  12.998  10.899  0.1948  0.2199  0.0182
22778W        W37909   3.182  17.847  13.148  0.2637  0.3258  0.1449
22779W        W37910   3.798  10.013   1.465 -0.0523 -0.1734  0.1864
22780W        W37911  10.521  17.716   1.303  0.2135  0.1017  0.2392
22781W        W37912  14.862   5.796   4.766  0.1307 -0.0050 -0.0161
22782W        W37913  11.737   5.637   5.240 -0.2672  0.0177  0.1418
22783W        W37914   0.197   4.825   4.849  0.0236 -0.0118 -0.0608
22784W        W37915   8.207   2.343   0.080 -0.1101  0.0734 -0.0256
22785W        W37916  14.282  15.729   0.247 -0.0266  0.0332 -0.0159
22786W        W37917   4.333   0.222   5.383 -0.0515 -0.0078 -0.1881
22787W        W37918  14.727   5.208  13.486 -0.3004  0.0550 -0.0336
22788W        W37919   9.353  17.816  15.612 -0.3700  0.1755 -0.0332
22789W        W37920   7.619  11.516   1.313  0.0056 -0.1814 -0.1793
22790W        W37921  11.156   3.723  13.443 -0.0588 -0.1533 -0.0987
22791W        W37922  12.524   7.785  12.289  0.0472  0.2152  0.2796
22792W        W37923  15.888  17.733   4.857  0.0547  0.3446 -0.1686
22793W        W37924   1.981  14.630  13.415  0.2045  0.3839 -0.2084
22794W        W37925   1.300  15.647  15.590 -0.2482 -0.2006  0.1675
22795W        W37926   2.604   2.021   0.472  0.3858  0.0252 -0.1420
22796W        W37927  17.257   7.283  11.421 -0.1498 -0.0061  0.1334
22797W        W37928   2.360  11.582  14.580  0.1401 -0.1943  0.0535
22798W        W37929  17.836   7.605  11.381 -0.1359 -0.1658  0.0025
22799W        W37930   7.142   3.397   3.607 -0.0277 -0.2145 -0.1166
22800W        W37931   5.368   2.270  13.514  0.1917 -0.4162 -0.2052
22801W        W37932  11.619   1.476   3.854 -0.0791  0.0560 -0.3058
22802W        W37933  10.924   0.599  12.574  0.1726 -0.4099 -0.0189
22803W        W37934   2.023  15.309   1.843  0.0133  0.0553  0.1992
22804W        W37935  10.287   0.286   4.644  0.0293  0.2062  0.2239
22805W        W37936   7.050   2.558  15.971  0.1071  0.1423  0.0972
22806W        W37937   7.193  10.537  12.204  0.0926  0.1310  0.0266
22807W        W37938   3.856   6.992   2.408 -0.1470  0.2177 -0.0606
22808W        W37939   1.994   2.154   3.795 -0.2539  0.0221  0.1686
22809W        W37940   0.030  17.784   1.574  0.2682  0.0849 -0.1456
22810W        W37941   9.383   4.125   0.080 -0.1139 -0.0191 -0.0859
22811W        W37942  14.257   9.222  15.011 -0.0465  0.3318 -0.1272
22812W        W37943  15.490  16.557   3.906  0.0452 -0.0224  0.1051
22813W        W37944  17.388   5.035   4.344 -0.0781 -0.0885 -0.2441
22814W        W37945   3.941   6.031   1.423 -0.1439 -0.2264 -0.0261
22815W        W37946   0.989  11.499   4.771  0.1253 -0.0454  0.0074
22816W        W37947  13.215   6.754  14.817 -0.0211  0.1208 -0.2315
22817W        W37948  12.163  11.686  13.077 -0.1203 -0.1641  0.1904
22818W        W37949  15.357  12.252   5.018  0.1528 -0.0508 -0.1466
22819W        W37950   4.943   7.390  13.368 -0.4260  0.1475  0.3376
22820W        W37951   9.914  12.787   4.881 -0.2318  0.0356  0.2528
22821W        W37952   2.625   0.294   4.903 -0.0025 -0.2245  0.0500
22822W        W37953   7.060   5.701  11.850  0.1081 -0.1599  0.1469
22823W        W37954   1.986  15.935  12.134 -0.1165  0.0714 -0.0016
22824W        W37955  12.423   5.733   0.469 -0.0878  0.1311 -0.1107
22825W        W37956  17.608   4.460  11.945 -0.2036  0.0998 -0.0803
22826W        W37957  12.956   9.963   1.672 -0.0125 -0.1379 -0.0115
22827W        W37958  10.796   0.413   1.901  0.0545  0.4168  0.0270
22828W        W37959  11.906   9.345  14.494  0.1895  0.1362 -0.0882
22829W        W37960  12.298   6.505  15.981  0.0699 -0.0432  0.2388
22830W        W37961   3.695   6.103   2.415 -0.0909  0.0567  0.2863
22831W        W37962   6.601   9.087   1.530  0.0662 -0.0660  0.0992
22832W        W37963   4.380  16.792   4.155  0.2912  0.2501 -0.2074
22833W        W37964  13.296  11.276  14.565 -0.0170 -0.1082  0.3869
22834W        W37965  13.207  11.795  14.744 -0.2726  0.0792 -0.2453
22835W        W37966   5.897  12.669  10.673 -0.0663 -0.2291 -0.0591
22836W        W37967  13.380   6.309  11.260 -0.1786  0.1165  0.0867
22837W        W37968  13.563   5.017   1.698 -0.0608  0.2352  0.2098
22838W        W37969  14.750   0.964   5.114  0.0985  0.1845 -0.0923
22839W        W37970   6.666   4.921   4.203 -0.0594 -0.1127 -0.0229
22840W        W37971   0.754  11.540   4.263  0.1647  0.2026  0.1244
22841W        W37972  17.546  14.891  14.803 -0.0932 -0.0853 -0.0102
22842W        W37973   9.558   0.937  14.084 -0.0570 -0.3762  0.1126
22843W        W37974   7.712   4.151  15.455  0.1373 -0.0426 -0.1688
22844W        W37975   5.158   3.032   2.207  0.0185 -0.1320  0.2198
22845W        W37976   0.299  13.735  14.860  0.0565  0.0323  0.0035
22846W        W37977   7.778  17.133   1.234  0.0507  0.0813 -0.1863
22847W        W37978  11.602  16.104  10.282 -0.1582 -0.3272  0.0133
22848W        W37979   4.529  11.030   2.113  0.1746 -0.1058 -0.0772
22849W        W37980   8.004  14.045   5.348  0.3996 -0.2045  0.0131
22850W        W37981  17.143   4.736  12.605 -0.3924 -0.1451 -0.0134
22851W        W37982   8.234   0.812  15.547  0.1569 -0.1361  0.3004
22852W        W37983   3.050  12.254   1.375 -0.0415  0.2336 -0.0163
22853W        W37984  18.062  13.508  15.035  0.1172  0.1052 -0.1370
22854W        W37985  16.159  14.396  13.875 -0.0266 -0.0482  0.0919
22855W        W37986  10.480  18.041   3.424  0.2900 -0.3078 -0.3109
22856W        W37987  16.962  17.536   5.217  0.2755 -0.0737  0.2102
22857W        W37988  13.132   6.141  11.754  0.1245  0.1915  0.0293
22858W        W37989   3.858  13.185  14.282  0.0057 -0.3352  0.2135
22859W        W37990  10.090   4.006  15.887  0.2729  0.0288 -0.3053
22860W        W37991  14.721  12.902   4.779 -0.1518  0.1571 -0.0466
22861W        W37992  10.826  16.652   9.888  0.3118  0.5160 -0.2215
22862W        W37993   9.642  10.461  13.569 -0.1324 -0.0585 -0.0348
22863W        W37994  17.639   8.049  15.751 -0.1813  0.2596 -0.3020
22864W        W37995   3.291   8.664   4.925 -0.1505 -0.2542  0.0077
22865W        W37996   6.828  17.131  13.134  0.3042 -0.2269 -0.0143
22866W        W37997  13.001  15.575  14.852 -0.0494 -0.2486 -0.1286
22867W        W37998   6.873   9.800  15.648 -0.3009  0.1353  0.0913
22868W        W37999   4.516   6.441   2.557  0.0524 -0.3577 -0.0929
22869W        W38000  16.715   7.637  14.715 -0.4111  0.0566  0.2847
22870W        W38001   9.618  14.116  13.303 -0.0631  0.2733  0.1253
22871W        W38002   2.125   5.473  13.722  0.2807 -0.0892 -0.3343
22872W        W38003  15.812   2.675   6.460 -0.1732  0.0413  0.1654
22873W        W38004   4.079   7.527   4.667 -0.3813  0.1834  0.2471
22874W        W38005  12.723  12.828  14.545 -0.3854  0.0791 -0.1211
22875W        W38006  14.263  11.804  14.963 -0.0343 -0.6209 -0.0928
22876W        W38007  17.474  14.956   1.802 -0.1674 -0.0833  0.1844
22877W        W38008   0.045  15.079  15.806  0.0461  0.0001 -0.1987
22878W        W38009   5.607  16.449   1.888 -0.3042 -0.0075  0.3598
22879W        W38010  16.151  16.931   4.769  0.1721 -0.2475  0.0113
22880W        W38011  11.912   0.499  16.235  0.3269  0.1343  0.1939
22881W        W38012  16.153   2.435  11.503  0.1349  0.1681 -0.1223
22882W        W38013  13.811   9.606  14.110 -0.0118 -0.3059 -0.3774
22883W        W38014  13.034   2.100  11.034 -0.4812 -0.0557  0.0037
22884W        W38015   0.561  15.808   3.798  0.0511  0.0456 -0.3603
22885W        W38016   5.702  14.573  11.947 -0.2945 -0.0932  0.1004
22886W        W38017   0.717  13.717   5.477  0.2019 -0.0650 -0.0996
22887W        W38018  17.233   5.078   2.785  0.1133  0.4169 -0.0347
22888W        W38019   9.522   5.063  11.154 -0.2825 -0.1212 -0.0002
22889W        W38020   0.557   4.174   4.010  0.0973 -0.1913  0.1400
22890W        W38021   8.377   8.144  12.920  0.0473 -0.3028  0.0323
22891W        W38022   8.838  17.297  10.902  0.3134  0.2523  0.2301
22892W        W38023  14.409  10.289   3.601 -0.0092 -0.1216 -0.1897
22893W        W38024  12.687  12.649  10.302  0.0857  0.0291  0.0508
22894W        W38025   5.058  17.330  12.255  0.0056  0.1414  0.1374
22895W        W38026  17.675   6.713  11.452 -0.2376 -0.3366  0.2255
22896W        W38027  14.397  12.295  15.910 -0.2415  0.0802 -0.0179
22897W        W38028  11.742  13.278  11.357  0.0923 -0.3399  0.0671
22898W        W38029  14.999   8.288   0.228  0.2340 -0.1794 -0.2651
22899W        W38030  12.750   9.611  12.741  0.2552  0.3642  0.2036
22900W        W38031  16.740  11.638   5.779 -0.0078 -0.0713 -0.1878
22901W        W38032   3.918  15.778   4.093 -0.0649  0.0841 -0.0278
22902W        W38033   7.003  12.476   1.903  0.2033  0.1236  0.2169
22903W        W38034   8.151  10.415  13.094  0.2794  0.2585 -0.0639
22904W        W38035  13.640  14.639  12.890  0.1376 -0.1517  0.0547
22905W        W38036  11.820   8.641  14.823 -0.2301 -0.0072 -0.0892
22906W        W38037  13.194  12.874  14.770  0.3491  0.3022  0.2223
22907W        W38038   0.955   0.365  13.137  0.1539  0.1265  0.1723
22908W        W38039   9.767   7.813   1.171  0.0936 -0.0563  0.0664
22909W        W38040   9.748  12.367   5.182 -0.1046  0.0103 -0.0733
22910W        W38041   9.231  13.379  10.869 -0.1675 -0.1136  0.0759
22911W        W38042   1.540  13.327  15.304  0.0230  0.1034 -0.2924
22912W        W38043   2.945   3.054  13.991  0.2946  0.1974  0.2381
22913W        W38044   1.017   7.933  12.506 -0.0207  0.1021 -0.0749
22914W        W38045   1.025   6.331  14.504 -0.0607  0.0075  0.0971
22915W        W38046   1.742   7.073   1.096 -0.0549 -0.1050  0.3269
22916W        W38047  10.416  15.278  13.136  0.0190 -0.0590 -0.1095
22917W        W38048  13.680  16.112   4.193  0.0873  0.0220  0.1746
22918W        W38049   4.600  17.086   2.043 -0.1625  0.0885  0.2730
22919W        W38050   9.609   1.259  16.155  0.0399  0.2480  0.1573
22920W        W38051   1.570   7.214   5.607 -0.0780  0.1465 -0.0393
22921W        W38052   5.623   3.972   2.121  0.0710 -0.0162  0.1777
22922W        W38053  17.562   4.448   0.273  0.3165 -0.1708  0.3534
22923W        W38054  17.365   5.535  15.622 -0.0228 -0.0408 -0.3179
22924W        W38055  17.858   7.009  14.224 -0.0633  0.1466 -0.1063
22925W        W38056  11.030  17.957  12.168 -0.0492  0.2259  0.2797
22926W        W38057  12.658   5.964   1.316 -0.1934 -0.1204  0.2419
22927W        W38058  17.983  15.617  12.329 -0.1218  0.1545 -0.4757
22928W        W38059  15.374   2.641   1.101 -0.0311 -0.2608  0.2989
22929W        W38060   0.187   2.425   0.903 -0.3176  0.3168  0.1953
22930W        W38061   9.199  11.778   3.618  0.2234  0.0923 -0.0857
22931W        W38062  15.721  17.255  15.721  0.2455  0.0614 -0.0884
22932W        W38063   8.386  14.873  12.073  0.2533  0.0121 -0.0873
22933W        W38064  13.930  12.164   2.369  0.2110  0.1820  0.3698
22934W        W38065   1.914   7.141  11.680 -0.0715 -0.3924  0.3239
22935W        W38066  13.742   0.253  15.312 -0.0164 -0.1259  0.0251
22936W        W38067   3.012   4.279  13.534 -0.2110 -0.0150 -0.1342
22937W        W38068   1.211   6.972  12.313  0.0964  0.0933  0.0429
22938W        W38069   2.065   7.623  14.030  0.0732 -0.2274 -0.1588
22939W        W38070  14.266   2.913   4.485  0.0815 -0.4932 -0.2083
22940W        W38071   0.585   9.195   1.888 -0.0306  0.1533 -0.0145
22941W        W38072   7.527   5.471  12.028  0.1870 -0.0817 -0.0974
22942W        W38073  10.080   1.416   4.271 -0.0296 -0.2397 -0.1266
22943W        W38074  11.661   6.860   0.405  0.1773  0.1883 -0.0305
22944W        W38075   7.765   6.483  15.718  0.1900  0.0973  0.2096
22945W        W38076   7.149   1.815   2.096  0.2642 -0.2694 -0.1464
22946W        W38077  11.002  11.285   3.021  0.2487 -0.2243 -0.0175
22947W        W38078  10.806   1.274   1.030  0.0902  0.1440  0.0628
22948W        W38079  17.777  11.900   3.618 -0.0563  0.0963  0.0818
22949W        W38080   7.200   3.759   4.083 -0.0622  0.2323 -0.0367
22950W        W38081   7.665   7.849  12.825  0.3417  0.0726 -0.0651
22951W        W38082  10.897  13.520  12.187 -0.2959 -0.1449 -0.4556
22952W        W38083   9.927   2.120   0.256 -0.0397 -0.0467  0.2067
22953W        W38084   6.301  13.266   3.768 -0.0666 -0.0630  0.1575
22954W        W38085  14.631   7.579   5.607 -0.0503 -0.2224 -0.0707
22955W        W38086   2.920   2.912  15.518 -0.3168 -0.1020  0.0105
22956W        W38087   0.063  12.061   2.128 -0.0822 -0.3224  0.0815
22957W        W38088   7.266   5.354  11.018 -0.1305 -0.2838  0.0908
22958W        W38089  15.619  12.566  14.278 -0.0758  0.0598 -0.1019
22959W        W38090   0.312   8.581  10.565 -0.1154  0.2756 -0.1159
22960W        W38091   7.789  12.768  14.801  0.3166  0.1766 -0.1207
22961W        W38092  10.012  14.423  13.755 -0.0722 -0.1171 -0.2233
22962W        W38093  12.286   6.181   4.960  0.0712  0.1907 -0.3290
22963W        W38094  12.746   8.620   0.006  0.2250 -0.0192 -0.2631
22964W        W38095   9.711  14.191   4.072  0.1350  0.0126  0.4194
22965W        W38096   9.081   8.053   3.927  0.0854  0.0780 -0.1041
22966W        W38097   9.610   0.495  13.240  0.0204  0.4370 -0.2037
22967W        W38098  14.458  14.549  12.702  0.0790  0.0961 -0.1693
22968W        W38099  13.320   8.011  13.252 -0.1391  0.3069  0.2557
22969W        W38100  13.383  14.915   2.381  0.2612  0.2108 -0.0601
22970W        W38101   0.176  14.626  12.226  0.2357  0.0393 -0.2424
22971W        W38102  11.845  10.165   1.937 -0.1431 -0.0318 -0.0195
22972W        W38103  17.574   2.383  10.327  0.1019 -0.0299 -0.3585
22973W        W38104  11.539   1.013   5.159 -0.0517 -0.0072 -0.1203
22974W        W38105  10.486   3.402  12.789 -0.0305  0.2661  0.4290
22975W        W38106  16.194  16.195   3.254 -0.0913 -0.0959  0.1184
22976W        W38107   5.224  16.612  11.422 -0.2307  0.0715  0.2529
22977W        W38108   7.096  12.937  13.456 -0.0336 -0.0067  0.1206
22978W        W38109  16.714  15.696  12.873 -0.1772 -0.2546 -0.0355
22979W        W38110  15.845   8.338  12.149 -0.1642 -0.2710 -0.0680
22980W        W38111   5.345  17.503   0.294 -0.3753  0.1821  0.1309
22981W        W38112   6.274  14.221   4.324  0.0030  0.3572  0.0464
22982W        W38113   9.172  13.008   2.444 -0.2299  0.1334 -0.0770
22983W        W38114  18.081  15.133   3.182 -0.0821 -0.1552  0.1890
22984W        W38115   4.022   5.975  11.504  0.0454  0.1298 -0.0634
22985W        W38116  11.819   9.061  15.736  0.1388 -0.0929  0.1874
22986W        W38117   8.433   2.111  10.040  0.0676  0.0304 -0.1398
22987W        W38118  10.819  14.749  15.745  0.0061  0.0061  0.0880
22988W        W38119  17.791  13.687   5.269  0.0486 -0.0770  0.0114
22989W        W38120   0.255  15.217   6.079 -0.0453 -0.3944  0.0494
22990W        W38121  16.914   8.564  15.327 -0.0318 -0.0939 -0.1077
22991W        W38122   1.612   3.628   0.981 -0.1846 -0.0306  0.3497
22992W        W38123   0.189  11.918  12.234  0.2421  0.4281  0.1502
22993W        W38124  12.112   5.122  16.125  0.2125 -0.2401 -0.0418
22994W        W38125   5.333   7.257  14.249 -0.2240 -0.2120 -0.2310
22995W        W38126   8.500   5.751  10.645 -0.1314  0.0838 -0.1608
22996W        W38127   4.558  14.572   1.248 -0.0003 -0.2320 -0.1775
22997W        W38128  14.585  16.980  14.979 -0.0683  0.0124 -0.1412
22998W        W38129  10.661  12.876   1.973 -0.1870 -0.0499  0.1180
22999W        W38130   4.319  10.515  16.235 -0.1033  0.2248 -0.0970
23000W        W38131   3.985   0.367  12.273 -0.1086  0.1805 -0.0443
23001W        W38132   6.563  16.205  11.747  0.1390 -0.0675  0.0261
23002W        W38133  14.091  14.946  12.909  0.2635  0.0546 -0.0757
23003W        W38134   9.939   3.138  14.584 -0.2550 -0.2179  0.4949
23004W        W38135  12.997   9.951   3.490  0.1071 -0.0236  0.1311
23005W        W38136   5.954   7.068  12.263 -0.2962 -0.0399 -0.0637
23006W        W38137  13.471  16.031   5.707  0.0866  0.2084  0.2988
23007W        W38138   8.440  16.183   2.196 -0.0838 -0.0464 -0.0313
23008W        W38139   8.159   7.171   3.467  0.1040 -0.0516  0.0665
23009W        W38140  11.873  11.284  10.906  0.2683  0.1437  0.0974
23010W        W38141  10.691  12.896   4.947  0.0359 -0.1737  0.1666
23011W        W38142   3.533   7.097  14.761 -0.2859  0.1710  0.2377
23012W        W38143  11.969   8.910  11.799  0.0682 -0.0311  0.0563
23013W        W38144  13.338   7.319  13.871 -0.0719 -0.0341 -0.0688
23014W        W38145  14.209   0.901   4.247 -0.1257  0.0579  0.0444
23015W        W38146  11.256   9.752  13.279 -0.1577 -0.1619  0.3456
23016W        W38147  11.237   6.442  13.916 -0.0579 -0.2938 -0.1583
23017W        W38148  17.282  15.294   2.494  0.1883  0.1158 -0.0049
23018W        W38149  11.920  15.997  12.521  0.0339  0.4139 -0.0073
23019W        W38150  11.983  10.631   0.239  0.1031 -0.0015  0.0104
23020W        W38151  17.878  10.960  12.522  0.1667 -0.0879 -0.1542
23021W        W38152  10.835   9.790   4.667  0.4000  0.2528  0.4035
23022W        W38153   9.558  12.929   5.330 -0.0378  0.3542  0.4939
23023W        W38154   9.782   9.269  14.424  0.1206 -0.0944 -0.1672
23024W        W38155  12.127  15.646   1.327 -0.0759 -0.1176 -0.2567
23025W        W38156   9.706   9.919  14.595 -0.0145 -0.2210 -0.2183
23026W        W38157   4.357  12.003  10.074 -0.0841 -0.0427  0.1528
23027W        W38158   4.857   3.540   0.268 -0.0209 -0.3988  0.0929
23028W        W38159   1.285   0.890  13.709 -0.0221  0.3395 -0.0063
23029W        W38160   1.359  10.006  14.726  0.0695  0.2491 -0.0542
23030W        W38161  17.488   6.756  14.582  0.1785 -0.0911  0.0459
23031W        W38162  10.897   5.542  14.805 -0.0323 -0.3032 -0.3165
23032W        W38163   1.409   4.158   5.842 -0.2274  0.0515 -0.1054
23033W        W38164  17.847   2.518   1.608 -0.0608 -0.0588  0.0229
23034W        W38165   5.382  12.973  16.179 -0.1646  0.0445  0.0263
23035W        W38166   6.639   1.806  14.495  0.2762 -0.3198  0.0504
23036W        W38167  15.490   4.595   0.716  0.2032  0.1492  0.2285
23037W        W38168  18.035   1.632  15.726 -0.0156  0.3239  0.0952
23038W        W38169  16.243   6.897  13.297  0.0720 -0.1492  0.3880
23039W        W38170   2.875   6.738  15.100  0.3411 -0.1148  0.2857
23040W        W38171  17.073   8.273   5.039 -0.2661 -0.1594  0.2716
23041W        W38172   1.461   0.380  13.041  0.1230 -0.2984 -0.1582
23042W        W38173   2.869   6.695  14.083 -0.1723  0.0424  0.0351
23043W        W38174   1.481   2.321  14.824 -0.0341  0.2042 -0.1304
23044W        W38175  13.512   3.180   2.877 -0.2278  0.2708  0.1991
23045W        W38176   7.411  17.039  10.515  0.2597 -0.0576  0.1538
23046W        W38177  17.200  15.366  15.893 -0.1230  0.0994  0.0468
23047W        W38178   0.959   9.830   1.728  0.1654  0.1638  0.0493
23048W        W38179  10.525   7.801  15.376  0.1576 -0.4400 -0.2263
23049W        W38180   6.487  12.120  14.981 -0.0071  0.1392 -0.2148
23050W        W38181  15.045   5.975  15.507 -0.1910  0.2334 -0.2269
23051W        W38182   2.158  14.868  12.776 -0.0876  0.1489 -0.0881
23052W        W38183   2.676   1.843   1.376 -0.0518 -0.3601  0.0667
23053W        W38184  11.459   0.850  13.189 -0.1841  0.0963 -0.5299
23054W        W38185   0.627   8.924  12.413  0.0833  0.0684  0.0793
23055W        W38186  12.885  17.885  11.926 -0.0549 -0.3096  0.0913
23056W        W38187  16.321  15.269  12.740  0.2069 -0.0410  0.1020
23057W        W38188   2.551  14.450   4.293 -0.0276 -0.0508 -0.1394
23058W        W38189   1.369  14.515  13.824  0.2957  0.2487 -0.1598
23059W        W38190  11.513  18.014  15.649 -0.0011 -0.1953  0.1745
23060W        W38191   0.836  18.032   1.539 -0.1315  0.0211  0.1378
23061W        W38192   4.845  17.664   4.980  0.0832  0.3849  0.2049
23062W        W38193   6.156   9.080  14.645 -0.0158 -0.0454 -0.2725
23063W        W38194  12.232  17.366  13.395  0.0079 -0.0460 -0.0138
23064W        W38195  10.723  15.135  16.089 -0.0319  0.1907  0.3666
23065W        W38196   9.642   8.521  16.200 -0.1188  0.2569 -0.3536
23066W        W38197  13.745  16.860  13.275  0.1835  0.2281 -0.0484
23067W        W38198  12.138  14.699   1.260  0.0993  0.2229 -0.2252
23068W        W38199  10.908   8.414   3.251 -0.0104  0.2622  0.2422
23069W        W38200  10.559  14.715   5.993  0.1583 -0.0371  0.2618
23070W        W38201   1.152  13.018  15.280  0.4239 -0.2090 -0.1275
23071W        W38202   1.358   3.525   0.381 -0.0341  0.1784 -0.0592
23072W        W38203   6.975  10.623   3.459  0.3759  0.1735 -0.0079
23073W        W38204  10.893  17.767   3.693  0.1335  0.3659 -0.1243
23074W        W38205  17.153   5.717  11.535 -0.0662  0.0593 -0.0279
23075W        W38206   4.903   1.624  14.967 -0.1475 -0.0285  0.2185
23076W        W38207   0.297  12.233   1.739  0.0668  0.1321  0.3182
23077W        W38208   9.071  12.231  14.972 -0.1323  0.0757  0.0202
23078W        W38209  16.793  14.670  13.218 -0.2493 -0.2156  0.0880
23079W        W38210   7.082  14.565  10.497 -0.1236 -0.1578  0.0582
23080W        W38211  15.101   3.549   5.344  0.4210 -0.0453  0.0554
23081W        W38212   1.984  11.325   4.500 -0.1249  0.2729 -0.1922
23082W        W38213   2.939  17.637   9.976 -0.0178  0.2106  0.2542
23083W        W38214   7.743  14.979  15.184 -0.3419 -0.1767  0.1111
23084W        W38215  15.997   3.788  10.858 -0.0755 -0.0213 -0.3439
23085W        W38216  17.961   3.165  11.071 -0.2485 -0.0641 -0.3194
23086W        W38217   2.380  14.731  15.515  0.1145 -0.2720  0.4023
23087W        W38218   3.670  15.624   2.776 -0.5638  0.1788 -0.0275
23088W        W38219   1.751   3.105  14.221  0.0680 -0.0889 -0.0476
23089W        W38220  11.197  15.345   1.832 -0.0912  0.0500 -0.1230
23090W        W38221  18.076   2.603   3.757  0.2167  0.0898 -0.1137
23091W        W38222   8.180  14.799  10.366  0.0376  0.1792  0.0291
23092W        W38223  14.453  11.071  12.218 -0.0135  0.1640 -0.0780
23093W        W38224   6.117   6.241   3.837 -0.3495  0.0942 -0.1122
23094W        W38225   6.989   1.924  14.139 -0.0723  0.1050 -0.1109
23095W        W38226   6.505  17.582   1.072  0.2302  0.1424  0.0623
23096W        W38227   8.495   5.173  13.732 -0.1248 -0.1699  0.1690
23097W        W38228   1.197  16.728   4.433  0.3181 -0.2460  0.1602
23098W        W38229  10.731   0.224   4.466  0.0372  0.2248 -0.1703
23099W        W38230   2.047   4.465   3.708 -0.1510 -0.0214  0.0968
23100W        W38231   7.149  16.063   3.129 -0.2697 -0.1053 -0.2426
23101W        W38232   4.346  17.269  10.658 -0.0574 -0.1903  0.1311
23102W        W38233   8.579  17.779  15.948 -0.0062 -0.3317 -0.2779
23103W        W38234  13.882  13.727  11.289  0.1230  0.0222 -0.1233
23104W        W38235   3.381  14.573  15.860  0.0209 -0.2137  0.1406
23105W        W38236   5.133   4.590   1.645  0.3463 -0.0370  0.0795
23106W        W38237   6.802  12.342   2.425  0.0823  0.0652 -0.0416
23107W        W38238  16.231   2.411  15.704  0.2165 -0.0315  0.0346
23108W        W38239  15.689  15.023  15.497 -0.2953  0.0413 -0.0077
23109W        W38240   8.182  13.169  13.511  0.0371  0.0128 -0.1313
23110W        W38241  10.885   7.181  10.752 -0.2290  0.0532 -0.1562
23111W        W38242  16.608   0.263  13.076  0.1622  0.1202 -0.2293
23112W        W38243   9.566   8.993  11.172  0.0228  0.1241  0.2644
23113W        W38244  17.659   1.724  11.365  0.2813 -0.2906 -0.1564
23114W        W38245   4.992  12.943   0.288  0.0191  0.0488  0.0517
23115W        W38246   3.657  13.568  11.905  0.0085  0.0425  0.1721
23116W        W38247  16.809  14.590   4.583  0.0384 -0.0409  0.2038
23117W        W38248  11.695  15.080   2.510  0.2671  0.0001  0.0701
23118W        W38249  17.959   4.614   2.385 -0.0469 -0.0749 -0.2493
23119W        W38250   6.049  14.959  12.856 -0.0805  0.1448 -0.2520
23120W        W38251   5.462   9.409   3.099 -0.1374 -0.0088 -0.0219
23121W        W38252   5.246  11.960   2.931  0.1821 -0.0109  0.1106
23122W        W38253  12.783  17.614   0.012  0.0886 -0.1457 -0.1050
23123W        W38254   9.526  15.980   0.554  0.2301  0.1124 -0.2720
23124W        W38255   1.510   2.114   4.955  0.0723  0.0061  0.1320
23125W        W38256  16.323   1.087   2.859  0.2069  0.0755 -0.2338
23126W        W38257   7.126   7.497   1.774 -0.1344  0.1400  0.2089
23127W        W38258   9.201  16.827  14.239  0.2975 -0.0173 -0.0487
23128W        W38259   5.625   5.526   3.188 -0.3457  0.0485 -0.0350
23129W        W38260   5.823  15.129  13.687  0.1918  0.2597 -0.0324
23130W        W38261  11.266   4.644   3.192 -0.1589  0.2255 -0.1085
23131W        W38262  13.871   8.445  15.378  0.1744  0.0685 -0.0344
23132W        W38263   1.501   0.222  16.068 -0.0806 -0.1108  0.0336
23133W        W38264   7.845   4.782  15.711 -0.1152  0.0612  0.0722
23134W        W38265  15.919   0.057  12.543 -0.1229  0.4973 -0.2946
23135W        W38266   5.204  13.780   0.023  0.0470  0.0659 -0.5104
23136W        W38267  12.504  15.383   0.326  0.1000 -0.1078 -0.0631
23137W        W38268   9.644   6.716   3.738  0.0670  0.1080  0.1307
23138W        W38269   6.188  11.483  10.338  0.0366  0.0067 -0.0827
23139W        W38270   7.435  17.018   2.134  0.0036  0.2335  0.2779
23140W        W38271   5.627   3.862   0.753 -0.3659 -0.1352  0.0748
23141W        W38272  15.187   4.605   5.180 -0.2838  0.1268 -0.2158
23142W        W38273  15.500  11.208  15.980  0.0420  0.0471  0.0029
23143W        W38274   4.221  17.572  12.850 -0.1530  0.1343  0.2925
23144W        W38275  13.841  17.080  11.176  0.0036  0.3894 -0.1927
23145W        W38276  16.720   0.309  11.684 -0.0332 -0.0290  0.1086
23146W        W38277   9.148   6.178   5.038  0.0089  0.1184 -0.1099
23147W        W38278   5.953  16.038  14.242  0.0942  0.0311 -0.0492
23148W        W38279   4.665   3.449  14.445 -0.1722  0.0974  0.1311
23149W        W38280   5.602  17.144  13.530  0.1113  0.3077  0.1008
23150W        W38281  11.392   0.185   3.381 -0.2456 -0.3426 -0.1148
23151W        W38282  13.983  12.054   6.124  0.3144 -0.3125  0.0681
23152W        W38283  17.200   2.267   2.155 -0.1415  0.1359 -0.1690
23153W        W38284  12.144  10.819   2.197  0.4677 -0.2369  0.0517
23154W        W38285   9.026  10.457  10.519 -0.5615  0.0355  0.0123
23155W        W38286   8.385  10.038   0.338 -0.4249  0.0423  0.2095
23156W        W38287  11.587   2.630  15.636  0.0777  0.4358  0.1485
23157W        W38288  13.066  11.571   4.723 -0.2101 -0.1978 -0.0542
23158W        W38289  15.878  17.987   1.882  0.0600 -0.0792 -0.2954
23159W        W38290  14.076  17.718  12.533  0.0360 -0.2583 -0.1314
23160W        W38291  16.991  15.054  14.902 -0.0808  0.4052  0.0302
23161W        W38292   9.752  17.306  13.957  0.2333 -0.0202 -0.0458
23162W        W38293   5.382   3.968   3.241 -0.3380  0.1101  0.1300
23163W        W38294   3.254  17.845   1.028  0.1579 -0.3095 -0.2182
23164W        W38295   9.166   3.887  15.073 -0.1783 -0.1232  0.2950
23165W        W38296   7.721   3.440  12.552 -0.1254 -0.0745  0.1367
23166W        W38297  14.712   5.847  14.515 -0.3099 -0.1165  0.0032
23167W        W38298   8.594  13.043   3.574 -0.1261  0.0245  0.1200
23168W        W38299   2.416   0.291   2.389 -0.0794  0.1059 -0.1056
23169W        W38300   2.395  12.452  13.493 -0.1849 -0.0891  0.0477
23170W        W38301  14.017  11.938   4.770  0.0999  0.1319  0.0770
23171W        W38302  12.559  12.039   3.932 -0.2367 -0.0661 -0.4080
23172W        W38303   6.426  11.956   3.546  0.0663  0.3468  0.4221
23173W        W38304  13.202  18.001   5.000  0.1567 -0.3876 -0.2115
23174W        W38305  17.946  17.304   2.571 -0.0436 -0.1122  0.2475
23175W        W38306  17.113  15.406  14.562  0.3377  0.1574  0.1832
23176W        W38307  17.472  12.585   4.130  0.1009  0.0019 -0.0930
23177W        W38308  16.984   2.058   4.040 -0.2066  0.0700 -0.2016
23178W        W38309   4.878  14.330   2.480 -0.1047  0.0937  0.0468
23179W        W38310  16.863  17.665   1.919  0.0175 -0.1643 -0.0509
23180W        W38311   1.886   2.201   0.485  0.2373 -0.4183  0.1213
23181W        W38312   7.067   5.767   5.317  0.2573 -0.1108 -0.0318
23182W        W38313  12.724  17.557   1.282  0.0644  0.0795  0.0407
23183W        W38314  15.537  11.231   2.472 -0.1456  0.0927  0.1708
23184W        W38315  13.847  16.364  10.364  0.0759  0.0971  0.0661
23185W        W38316  11.645  10.396   1.205 -0.1627  0.0462 -0.3756
23186W        W38317   4.772  12.103   9.451  0.2002  0.1550 -0.2782
23187W        W38318   3.453   8.509  12.391 -0.0697  0.0437 -0.3672
23188W        W38319  12.847  15.360   4.820  0.0467 -0.0494 -0.1814
23189W        W38320   4.852   4.376  10.948 -0.0225 -0.3926  0.3257
23190W        W38321   8.014   4.844  11.056 -0.3530  0.0242 -0.1663
23191W        W38322  16.037   8.670  10.931  0.1858  0.0940  0.2588
23192W        W38323   2.627  16.197   1.794 -0.2034 -0.0700  0.1534
23193W        W38324   3.736  14.547  15.492 -0.0200  0.2540  0.1213
23194W        W38325  14.718   7.199  14.766 -0.3828  0.3066 -0.3527
23195W        W38326   2.020  12.151   1.816 -0.1184  0.1910 -0.1878
23196W        W38327  10.718  16.765   5.210 -0.1537 -0.0318 -0.1247
23197W        W38328   0.032   0.113  11.410  0.1132 -0.0313  0.0575
23198W        W38329  12.994  10.040   0.241 -0.3326  0.2451 -0.1592
23199W        W38330   7.619   1.285  13.696 -0.2467 -0.1554 -0.1446
23200W        W38331  18.089   6.565   3.460 -0.1564 -0.0616 -0.0299
23201W        W38332   5.966   9.470  13.720  0.0830  0.2398 -0.0667
23202W        W38333   2.256  16.713  15.776 -0.2235  0.0048 -0.1913
23203W        W38334   1.112   2.311  12.348 -0.0458 -0.4484 -0.0086
23204W        W38335  12.563  12.011  12.213  0.1910  0.0354  0.1013
23205W        W38336   6.684  16.187   3.832  0.0534  0.1434 -0.0915
23206W        W38337   0.761   8.560   9.900  0.3563  0.0993  0.1490
23207W        W38338   8.470   7.301   5.475  0.1878  0.2368 -0.3530
23208W        W38339  17.255   7.840   0.273 -0.2771 -0.0561 -0.1164
23209W        W38340  12.765   1.665  11.813 -0.0715  0.2993  0.1441
23210W        W38341  14.874   0.196   6.235 -0.4231 -0.0940  0.1650
23211W        W38342  15.774  12.934   4.366  0.0127 -0.1155 -0.6517
23212W        W38343  10.947   9.004   4.282 -0.0827  0.2853  0.0940
23213W        W38344  14.867   3.711   1.418 -0.1652  0.0869 -0.0844
23214W        W38345   3.946  17.834  13.212 -0.0598  0.0355 -0.1975
23215W        W38346  13.125   6.975  13.367 -0.3866  0.0741 -0.1190
23216W        W38347  10.001   2.974   1.404 -0.1364 -0.1578  0.1725
23217W        W38348  10.622  13.208  14.618  0.1913  0.2096 -0.0236
23218W        W38349  16.992   0.016   3.112 -0.1488  0.0197 -0.0552
23219W        W38350   7.640   3.169  10.824 -0.0153 -0.0323  0.3378
23220W        W38351  11.840   3.621  15.636 -0.4445 -0.0799  0.1101
23221W        W38352   3.100   0.114   4.696  0.3795  0.1791 -0.0983
23222W        W38353   3.320  13.220   2.192 -0.1747 -0.0516  0.0119
23223W        W38354  12.679   7.491  15.815  0.1667  0.2636  0.0233
23224W        W38355   3.051  12.296  16.070  0.1487  0.2039 -0.0548
23225W        W38356   0.558  13.490   0.027  0.2266  0.2411  0.0516
23226W        W38357  17.310   5.076  16.045 -0.1452 -0.0508  0.0489
23227W        W38358  16.890  17.583   3.146  0.0929  0.2914 -0.4871
23228W        W38359  10.778   7.857   4.537  0.1755  0.0524 -0.0407
23229W        W38360  13.626  16.426   1.621  0.1653  0.0298 -0.1082
23230W        W38361  12.133  16.373   3.159 -0.0601 -0.1300 -0.1082
23231W        W38362   4.633  17.362   4.410  0.2414  0.3433 -0.0667
23232W        W38363  13.665  12.094   2.793 -0.5846 -0.5046 -0.0492
23233W        W38364   4.096  12.944   4.277  0.0617 -0.2086 -0.0095
23234W        W38365  17.069  16.280  13.516  0.1500  0.1338  0.1051
23235W        W38366  14.944  16.356  12.028  0.0758 -0.0748  0.2075
23236W        W38367   3.109   0.617  12.912  0.0525  0.0436 -0.0830
23237W        W38368  13.513  16.335  13.027 -0.1785 -0.0979 -0.1451
23238W        W38369  13.367   8.869  13.925  0.3188  0.0057  0.2377
23239W        W38370  16.460   8.877  15.527 -0.1331  0.2727  0.0272
23240W        W38371   1.420   8.805  12.674 -0.0452  0.1310 -0.2278
23241W        W38372   5.010   1.543   1.673 -0.1325  0.1849  0.0538
23242W        W38373   5.402   1.447  14.882  0.1812 -0.2426  0.1517
23243W        W38374   8.642   3.729   3.022  0.4118 -0.2692 -0.0281
23244W        W38375   7.562   6.786   0.042 -0.3093  0.0849  0.3171
23245W        W38376  10.781  14.450  14.331  0.3734  0.2780  0.0165
23246W        W38377   4.967  16.884   5.055  0.1645 -0.0948  0.1718
23247W        W38378  11.363   5.363  14.767 -0.1336  0.0027 -0.3672
23248W        W38379   2.866  10.790  14.203 -0.0282  0.2360 -0.1908
23249W        W38380   5.710   1.961  12.892  0.2695 -0.0094  0.4230
23250W        W38381   0.050   2.379  13.543 -0.0795  0.1786  0.0397
23251W        W38382   1.167  15.519  11.041 -0.0272 -0.1067  0.1634
23252W        W38383   3.838   4.390  13.906 -0.0235 -0.3180 -0.2802
23253W        W38384  17.148  17.468   2.316 -0.1403  0.1244  0.1627
23254W        W38385   7.473   0.914  11.792  0.0479 -0.3235 -0.0025
23255W        W38386   5.127  16.221   3.314  0.0931  0.1900 -0.1119
23256W        W38387   5.759  11.525   1.537  0.0345 -0.0975  0.0849
23257W        W38388  10.058   0.082   3.171 -0.2973 -0.1959 -0.2939
23258W        W38389   3.366   5.163  15.857 -0.2166  0.1622 -0.3183
23259W        W38390   2.879  12.364   2.486  0.0227 -0.1631 -0.1794
23260W        W38391   5.642   2.649  15.703 -0.0149 -0.3592 -0.1130
23261W        W38392   2.483  12.504   4.290  0.2789  0.1775 -0.0227
23262W        W38393  17.965   3.168   4.008 -0.2885 -0.0186 -0.1225
23263W        W38394   3.415   3.423  16.025 -0.0749  0.0448 -0.1874
23264W        W38395   8.704  16.844  13.007  0.0597  0.3166 -0.2914
23265W        W38396   1.012   7.218   5.835 -0.1993  0.1077 -0.1184
23266W        W38397   1.794   2.277  13.370 -0.0383 -0.1885 -0.2311
23267W        W38398   2.963  14.426   1.998 -0.1330  0.0833  0.0599
23268W        W38399   2.834  12.211   2.019 -0.2024  0.1163 -0.0574
23269W        W38400   1.803   9.367  11.168 -0.2368 -0.1294  0.1411
23270W        W38401  14.095   1.183  13.453  0.1501  0.0441  0.2233
23271W        W38402   3.183  14.529  11.096 -0.2205  0.0874  0.2092
23272W        W38403  14.942   2.591   3.763 -0.3424  0.0743  0.1297
23273W        W38404   2.421   4.120  11.543 -0.0376  0.1875  0.2704
23274W        W38405   3.673  10.050  13.318  0.1440  0.0505  0.0263
23275W        W38406   2.926   7.213   5.905  0.1009 -0.3227  0.1016
23276W        W38407   3.546  14.120   0.000 -0.0456 -0.0728  0.1503
23277W        W38408  17.728   8.271   4.478 -0.2652  0.2221 -0.0670
23278W        W38409   7.252  12.293   1.018 -0.0806  0.0671  0.0544
23279W        W38410  15.604   0.419  12.794  0.2783  0.0379  0.2315
23280W        W38411  14.651  16.628   0.747 -0.3369 -0.2245 -0.0849
23281W        W38412   5.990  12.092  15.362  0.1425  0.0824  0.0665
23282W        W38413   1.525   5.978   4.312  0.1460  0.1008  0.2476
23283W        W38414   3.652   2.540  12.039  0.2416 -0.1768 -0.1780
23284W        W38415   3.615  16.456  15.409 -0.0966  0.1976  0.1684
23285W        W38416  17.568  14.375   1.841 -0.1623 -0.3579 -0.3464
23286W        W38417  12.542  14.189  14.726  0.4231 -0.0345 -0.2547
23287W        W38418   9.189  16.315   5.774 -0.0837  0.0112  0.0122
23288W        W38419   1.879  10.189  14.185  0.0372 -0.0389  0.1185
23289W        W38420  14.125   3.168   1.269 -0.1559 -0.1165  0.1924
23290W        W38421   3.616   7.698   4.762 -0.1388  0.0592 -0.2896
23291W        W38422   5.816   8.392   1.041  0.2289 -0.2386  0.1953
23292W        W38423   5.240   7.039  15.824 -0.0328  0.0223  0.0834
23293W        W38424  12.880  11.336   3.066 -0.1104  0.3502  0.1701
23294W        W38425   4.466   7.341   4.217 -0.0354  0.2392 -0.0524
23295W        W38426   0.070  10.110   0.151  0.0697  0.1636 -0.1642
23296W        W38427   2.688   7.602   2.258 -0.1750 -0.3547  0.0588
23297W        W38428   8.724   2.955   0.423  0.0068  0.2440  0.0288
23298W        W38429  17.016  11.938   4.600 -0.0383  0.0058 -0.1340
23299W        W38430  13.315   3.677   2.139 -0.1762 -0.0016  0.1519
23300W        W38431  12.033  16.933   4.784 -0.1644  0.0196  0.0734
23301W        W38432   5.740  14.899   0.832  0.1222  0.0096 -0.2538
23302W        W38433  14.423   5.153   5.169 -0.1632 -0.0116  0.0602
23303W        W38434   6.289   2.435  12.346  0.1896 -0.0928 -0.2266
23304W        W38435  14.806  15.502   4.536 -0.1435  0.1925  0.0858
23305W        W38436  16.251   0.806   6.088 -0.1329  0.0809 -0.3777
23306W        W38437  10.463  15.661  15.687  0.0127 -0.3185 -0.0402
23307W        W38438  14.035   4.093  13.475 -0.0658  0.6039  0.2289
23308W        W38439   8.351  13.092   3.117 -0.0817 -0.0110  0.1067
23309W        W38440  17.067  16.058  12.104  0.0293 -0.0712  0.1216
23310W        W38441   3.331  13.646  10.029  0.0214 -0.1354  0.1455
23311W        W38442   9.372   4.872  11.605  0.0949 -0.0844  0.0285
23312W        W38443   8.459   6.995  13.378  0.2442  0.2343 -0.1415
23313W        W38444  10.611  15.240  13.669  0.1072 -0.2677 -0.3387
23314W        W38445  11.694   0.446   2.992  0.0329 -0.1011 -0.0340
23315W        W38446   9.686  16.693  13.043 -0.0833  0.0373  0.1822
23316W        W38447   3.650   4.111  15.249  0.2519 -0.0145 -0.1233
23317W        W38448   6.458  14.404   0.136 -0.0080  0.2371  0.1647
23318W        W38449  10.462   8.932  12.307  0.1953 -0.0607  0.2941
23319W        W38450   9.194  10.478   0.240  0.1534 -0.1446 -0.0638
23320W        W38451  15.412   6.350   0.967  0.0728  0.0510 -0.0201
23321W        W38452   2.662  17.492  11.407 -0.3235 -0.2970 -0.2672
23322W        W38453  10.974  14.241   3.245 -0.0633 -0.1546  0.1577
23323W        W38454  11.033   8.025  13.136 -0.3722  0.1367 -0.4985
23324W        W38455   3.913   1.532  12.969 -0.0200 -0.2264 -0.1504
23325W        W38456   7.047  13.249   3.380 -0.2732  0.2015  0.1768
23326W        W38457  16.510  16.326   1.870 -0.0791 -0.1085  0.0407
23327W        W38458  17.873   7.987  14.532 -0.0133  0.1630 -0.1944
23328W        W38459   1.208   4.152  15.039  0.2850  0.2688 -0.0257
23329W        W38460  11.708  13.563  10.585  0.0724 -0.0537  0.1536
23330W        W38461   0.896   1.851   2.090 -0.1001  0.2700 -0.1503
23331W        W38462   8.620   2.700  16.064  0.2757  0.3387  0.1433
23332W        W38463  11.173  10.692  15.330 -0.3210 -0.1269 -0.2407
23333W        W38464   5.258   3.083  12.196  0.0901 -0.4528  0.0508
23334W        W38465  11.689  16.046  13.571  0.1074 -0.0481 -0.2222
23335W        W38466  13.407  11.715   3.101  0.0685 -0.1042  0.2928
23336W        W38467  12.445   4.989   5.415 -0.2021  0.1284 -0.1942
23337W        W38468  13.787  13.202   1.434  0.0168 -0.4071  0.0397
23338W        W38469   8.694   6.410   1.989  0.0319 -0.1403  0.1828
23339W        W38470   0.051   4.164   4.194  0.4740  0.1393  0.1293
23340W        W38471   2.209   1.638  14.059  0.0115 -0.1015  0.1591
23341W        W38472   3.971   5.366  11.791  0.0851 -0.1378  0.0227
23342W        W38473  10.492  16.947  12.453 -0.0770 -0.1202  0.0936
23343W        W38474   1.951  13.030  13.955  0.1444  0.0497  0.1293
23344W        W38475   9.514   9.162   1.973 -0.0590  0.1666  0.0920
23345W        W38476  11.767   7.144   3.913  0.3284  0.0662 -0.0225
23346W        W38477   0.062  12.929  11.025 -0.2776 -0.0426 -0.1279
23347W        W38478  13.374   3.452  14.320  0.0049 -0.1563  0.1498
23348W        W38479   8.127  11.564  13.208  0.1298 -0.3762 -0.1676
23349W        W38480  10.822  12.978   0.998 -0.0083 -0.3725 -0.0049
23350W        W38481  18.077  15.048   1.666 -0.0408 -0.2465 -0.3155
23351W        W38482   3.398  11.860  11.082  0.1829 -0.1744  0.0996
23352W        W38483  12.458   7.616  13.420  0.4487 -0.0538 -0.1967
23353W        W38484   4.431   5.192  15.249  0.1454  0.2384  0.2125
23354W        W38485  10.470   9.290  15.686  0.0034  0.1732  0.0600
23355W        W38486  13.397  15.425  15.182 -0.0949 -0.3742  0.1690
23356W        W38487  14.380  12.503  13.745  0.1337 -0.0386  0.1983
23357W        W38488  13.965  14.028   4.578  0.1029  0.1203  0.1709
23358W        W38489   1.678  10.229  12.521  0.0472 -0.3009  0.4074
23359W        W38490   2.968  10.067   0.362 -0.0673 -0.0421  0.2737
23360W        W38491  17.613  11.345  13.193  0.2706  0.2016  0.1274
23361W        W38492  12.398  10.277   3.610 -0.3007  0.0861  0.1711
23362W        W38493   7.791   5.825  12.312  0.1594 -0.2357  0.5106
23363W        W38494   8.124   5.667   5.162 -0.0641  0.1099 -0.0696
23364W        W38495   0.450  15.643  11.484 -0.0268  0.1912 -0.3621
23365W        W38496  16.923  14.864   4.999  0.0421 -0.0156  0.3476
23366W        W38497   6.557  17.491  15.787 -0.4284  0.0443  0.0211
23367W        W38498   4.537   5.905  14.584 -0.3872  0.2131  0.1355
23368W        W38499   3.902  15.395  12.129  0.2162  0.0256 -0.0603
23369W        W38500  13.587  11.684  12.564 -0.0500 -0.3734  0.1245
23370W        W38501   0.130  11.654   2.795 -0.1704 -0.1356 -0.2252
23371W        W38502  12.313   6.051   2.760 -0.0110  0.0715 -0.2469
23372W        W38503   5.563   0.128  16.142  0.1515 -0.3747 -0.0291
23373W        W38504  15.274   4.497  15.963  0.0208 -0.0418  0.0956
23374W        W38505  12.133   0.818   3.464 -0.2139  0.0339  0.0815
23375W        W38506  11.285   0.420  11.577  0.1970  0.2330  0.1264
23376W        W38507  14.425   0.276   0.320  0.1793  0.1613 -0.1476
23377W        W38508   5.323  16.216  10.638 -0.1691 -0.0714  0.3026
23378W        W38509  14.457  14.877  15.070  0.1075  0.1439  0.1009
23379W        W38510  12.229  12.958  12.809 -0.0487 -0.2501  0.1771
23380W        W38511   6.490  10.341  11.631  0.2197 -0.0268  0.0900
23381W        W38512  13.738  17.887   2.185  0.0001  0.2748 -0.0764
23382W        W38513   1.306  12.854   0.790  0.1749 -0.1892 -0.2047
23383W        W38514   2.126   2.543  10.972 -0.0439 -0.3168  0.0915
23384W        W38515  16.900   9.103  10.789  0.0040  0.1158  0.0116
23385W        W38516  14.454   4.832   0.021 -0.1661  0.0387  0.2174
23386W        W38517   3.829   2.234   2.437  0.0911  0.1357 -0.1351
23387W        W38518  14.339  17.973  10.819  0.2397 -0.0554 -0.1179
23388W        W38519  15.833   0.900   4.580 -0.2962  0.1003  0.0173
23389W        W38520  12.769   0.089  11.508  0.0765  0.2023  0.0203
23390W        W38521  11.659   9.966   3.123  0.0320 -0.1565  0.3296
23391W        W38522   3.752   1.008  10.905  0.1024  0.0399  0.1923
23392W        W38523   4.314  14.718   3.667  0.2103 -0.1766  0.0266
23393W        W38524   6.843   8.380  14.224 -0.1188 -0.0236  0.1025
23394W        W38525   7.253  16.857   2.592 -0.2430 -0.0541  0.0680
23395W        W38526  15.433   6.173   5.983  0.3610  0.0782  0.4287
23396W        W38527  12.627   4.921  12.724  0.2640 -0.0531 -0.1442
23397W        W38528  15.779  11.669   5.693  0.2017  0.0976 -0.0789
23398W        W38529   1.138  16.026   5.305  0.3231 -0.0092  0.2797
23399W        W38530  10.282   8.006   6.258  0.1198  0.5037  0.2117
23400W        W38531  13.987  14.535   4.546 -0.2384 -0.0968 -0.1044
23401W        W38532  16.070   6.308  12.649  0.1624 -0.1141 -0.1455
23402W        W38533   4.422  11.699  15.989 -0.0051  0.0060  0.0156
23403W        W38534   5.999   6.013  14.373 -0.1709  0.1509  0.2110
23404W        W38535   2.718   7.799   3.249  0.2974  0.0036  0.0033
23405W        W38536   1.832   0.182   5.315  0.2783  0.0944  0.1257
23406W        W38537  17.442  12.393  11.538  0.1029  0.3163 -0.0541
23407W        W38538   6.482   6.310  13.516  0.0632 -0.0684  0.0938
23408W        W38539   4.303  12.766  13.376 -0.0526  0.1947 -0.0233
23409W        W38540  16.239  17.444   0.074  0.1958 -0.1438  0.0458
23410W        W38541   9.519   6.268  13.990  0.1899 -0.0740 -0.1188
23411W        W38542   5.532   8.873   4.781  0.0009 -0.2914  0.0319
23412W        W38543   0.332   1.901   2.585  0.1952 -0.3776 -0.0502
23413W        W38544   9.975   4.569   0.503 -0.0943 -0.3371  0.0825
23414W        W38545  15.477   1.918  13.551  0.0044 -0.0555  0.0751
23415W        W38546   4.544  18.121   1.773  0.1834  0.1632  0.2275
23416W        W38547   5.206   6.317   0.104  0.0115  0.3769  0.3074
23417W        W38548   4.775  17.839  15.707  0.2014 -0.3434 -0.0975
23418W        W38549  16.431  16.063   0.569 -0.2155 -0.1531 -0.3377
23419W        W38550   5.505   0.430   1.043  0.2265  0.1729  0.0636
23420W        W38551   1.310   1.781  11.153  0.0120 -0.2972 -0.1913
23421W        W38552   5.833  17.042   1.440  0.0415 -0.0304  0.0286
23422W        W38553   7.570   7.320  14.826  0.0203 -0.0298  0.1235
23423W        W38554   1.239  15.481   2.229  0.1170 -0.0726 -0.1375
23424W        W38555   2.433  10.303  13.519  0.1726  0.0359  0.0924
23425W        W38556  16.108   4.628  12.810  0.0804 -0.1947 -0.1845
23426W        W38557   1.936  12.331   2.907 -0.0446  0.0010  0.0791
23427W        W38558  16.618   3.645  11.116 -0.2331 -0.0883  0.0348
23428W        W38559   1.089  10.712   2.117 -0.0678 -0.0905 -0.0067
23429W        W38560  11.873  16.473  13.085  0.0091  0.2757 -0.0587
23430W        W38561   7.371  13.933   3.577  0.0689 -0.1104  0.0096
23431W        W38562   8.064  16.071   3.560 -0.2217  0.1623 -0.2820
23432W        W38563   5.215  14.297  12.218  0.2213 -0.1842 -0.0326
23433W        W38564  11.551  11.363   4.825 -0.2670  0.1628  0.0178
23434W        W38565   5.165  10.187   0.361  0.0846 -0.0953  0.1253
23435W        W38566   1.522  13.665  11.174 -0.1406  0.2243 -0.2343
23436W        W38567   9.632  12.711  11.203  0.1411  0.2764 -0.1159
23437W        W38568  10.080   0.166   2.569 -0.0100  0.0906 -0.0799
23438W        W38569  13.631  14.628   1.421  0.0201  0.4481  0.2502
23439W        W38570   8.343  13.122  11.620  0.3106  0.1774  0.3934
23440W        W38571   5.637  17.456   1.127  0.1684  0.0523 -0.1669
23441W        W38572  12.422   4.418   1.360  0.0363 -0.1414  0.1755
23442W        W38573  11.963  12.956  13.645 -0.0137  0.0615 -0.0596
23443W        W38574   4.629  12.935   1.448 -0.1198  0.0415 -0.4671
23444W        W38575  17.229  12.366   1.138  0.0069  0.2398  0.0996
23445W        W38576  16.881  16.438  15.419  0.0249  0.0498 -0.5251
23446W        W38577  10.510  13.416  15.070  0.1214 -0.2118 -0.2436
23447W        W38578  17.318  13.519   5.491  0.0172  0.2762  0.1556
23448W        W38579  15.758   4.899  14.963  0.2598  0.2395  0.1775
23449W        W38580  16.155   8.019  15.611  0.2561 -0.0210 -0.1172
23450W        W38581  15.046  10.689  14.471  0.1397 -0.3882 -0.0365
23451W        W38582   6.566   6.311  12.380  0.2671 -0.5021  0.0766
23452W        W38583   5.752   0.456  13.863  0.1257 -0.2019 -0.0177
23453W        W38584   1.068  17.855   6.213 -0.0426  0.1017  0.1203
23454W        W38585  16.285   4.361   3.005 -0.1998 -0.0445 -0.3905
23455W        W38586   5.046   8.308   4.934 -0.0355 -0.0600 -0.1760
23456W        W38587   5.558   5.874  13.999 -0.0554  0.1546  0.1999
23457W        W38588   1.585   3.051   2.694  0.0793  0.2733 -0.0039
23458W        W38589   2.273   9.518  13.172  0.0840 -0.0934 -0.0818
23459W        W38590  14.783   0.437   3.713  0.0575  0.0184 -0.1420
23460W        W38591   5.313  10.738  15.369 -0.0275  0.2022 -0.0314
23461W        W38592   1.275  15.814   0.515 -0.0374 -0.1207  0.0387
23462W        W38593  17.904   9.947  13.499  0.0551  0.0282 -0.2025
23463W        W38594   3.623  13.268  13.390 -0.2544 -0.1043 -0.1224
23464W        W38595   6.522  17.895   0.326  0.2294 -0.0751  0.1001
23465W        W38596  15.290   5.249   2.593 -0.0201  0.0854  0.1556
23466W        W38597  17.553   3.711  16.017  0.0599 -0.1781  0.1474
23467W        W38598   2.844   1.199  12.939  0.1839 -0.1301  0.0576
23468W        W38599   0.511   9.529  13.935 -0.1091 -0.1423 -0.2783
23469W        W38600  11.098   5.933  15.084  0.0552  0.1357  0.1195
23470W        W38601  14.949   0.025   4.636 -0.0876 -0.3226  0.0295
23471W        W38602   2.128   5.887  13.378 -0.0862 -0.1088  0.0647
23472W        W38603   3.781   2.462  12.960  0.0344 -0.0652  0.0947
23473W        W38604   4.221   0.387   2.626  0.0921  0.4306  0.3357
23474W        W38605   6.903   6.221   5.498  0.1515  0.2554  0.0278
23475W        W38606  16.138   6.150   3.351  0.1830  0.1668 -0.1056
23476W        W38607   2.438  13.178   4.532 -0.1444  0.0072  0.2897
23477W        W38608  15.685   2.402  12.993  0.2756 -0.0740 -0.1102
23478W        W38609   0.002   0.082   3.617  0.1017  0.0029 -0.1231
23479W        W38610   9.461   7.199  12.686 -0.1058  0.1162 -0.1539
23480W        W38611   7.102  12.617  14.496 -0.0727 -0.0524  0.1617
23481W        W38612   4.775  11.159   3.992 -0.1072 -0.1061  0.0605
23482W        W38613   8.650   0.381   3.026 -0.1009 -0.2330  0.0465
23483W        W38614   4.659   2.473   1.568  0.2022 -0.1256 -0.2801
23484W        W38615  12.937   5.741  16.210 -0.1148  0.1141 -0.0466
23485W        W38616   7.000   7.252  12.507  0.1916 -0.0916 -0.0211
23486W        W38617   0.898  16.194   3.652 -0.0422  0.0894  0.4631
23487W        W38618   6.065  16.392  11.050  0.1426  0.0904  0.2029
23488W        W38619   3.067  10.779   3.697  0.0536 -0.3754 -0.0796
23489W        W38620   4.584   3.042  12.076 -0.1064  0.1636  0.0229
23490W        W38621   3.367   7.974   4.451 -0.1860  0.1474  0.1217
23491W        W38622   5.556  14.028   3.294  0.0341 -0.0646  0.1205
23492W        W38623   8.342   0.267  14.447 -0.4216 -0.0350  0.1416
23493W        W38624  17.736  16.094   4.040 -0.1063  0.0784  0.0958
23494W        W38625  14.131   2.347  11.536 -0.0241  0.3273 -0.3269
23495W        W38626   8.641   7.437   4.326 -0.0937  0.1371 -0.0052
23496W        W38627   5.323  10.674   9.984  0.1649 -0.0115  0.2669
23497W        W38628   9.448   6.209  10.907 -0.0527  0.0465 -0.0182
23498W        W38629   4.001   3.146   3.684  0.0844 -0.1490 -0.0123
23499W        W38630   8.449   4.791   5.814  0.2602 -0.2263 -0.2463
23500W        W38631   1.751   8.223  13.018 -0.0352 -0.0005 -0.1374
23501W        W38632   7.258   8.912  12.170  0.1365 -0.1700  0.0232
23502W        W38633   9.542   8.648   3.245 -0.0553  0.3157  0.0571
23503W        W38634  12.975  15.573   0.410  0.2909  0.0367  0.2059
23504W        W38635  13.403  15.054  15.493  0.1495 -0.1221 -0.0881
23505W        W38636  17.424   8.797   1.492  0.1172  0.2934 -0.1362
23506W        W38637   6.706   8.835  13.453  0.0099 -0.0064 -0.3791
23507W        W38638  10.622   6.561   0.606 -0.2636  0.1377  0.1791
23508W        W38639   0.793   4.449   1.017  0.0818  0.2279 -0.0836
23509W        W38640   9.903  17.900   2.349 -0.0871 -0.0802 -0.0167
23510W        W38641   5.959  15.802   2.783  0.1163 -0.0595  0.0171
23511W        W38642  12.389  13.709   4.423  0.0810  0.1738 -0.1154
23512W        W38643  13.173  11.463   1.507 -0.1548 -0.2819  0.2337
23513W        W38644   2.482   6.059   4.290  0.2665 -0.1600  0.0091
23514W        W38645  15.092  15.070  15.605  0.4229  0.4268 -0.2091
23515W        W38646  16.623  12.764  11.747 -0.0524  0.0673 -0.1326
23516W        W38647   9.505   1.935  11.703 -0.3343 -0.0153  0.0342
23517W        W38648   3.779  10.820  11.540 -0.0211 -0.1365  0.0882
23518W        W38649   4.703  13.072  13.217 -0.0156  0.1287  0.1947
23519W        W38650   5.540  12.536   1.510  0.1310  0.2138 -0.2544
23520W        W38651  17.604  15.261   4.377  0.0596 -0.0618 -0.2413
23521W        W38652   9.252   0.422   4.337  0.0594 -0.0509 -0.0837
23522W        W38653  14.675   1.177  12.070  0.0993 -0.0018 -0.3123
23523W        W38654   1.649   7.516   4.760  0.2629 -0.2675  0.2884
23524W        W38655   9.538  17.219   0.839  0.2583  0.3216  0.2020
23525W        W38656   6.204  16.782  11.369 -0.2246 -0.0831 -0.1553
23526W        W38657  13.875  15.235   1.681 -0.2469 -0.2014  0.0150
23527W        W38658   6.660  16.072  12.270 -0.1270 -0.1282 -0.0533
23528W        W38659  10.541   7.823   5.359  0.0131  0.0685 -0.3698
23529W        W38660   3.317   7.279   5.041 -0.0500 -0.0250  0.2882
23530W        W38661   8.773   2.518   1.274  0.0591  0.0850  0.1467
23531W        W38662   0.835  11.914  13.053  0.0765  0.1553 -0.0323
23532W        W38663   9.582   4.670  12.401  0.0785 -0.3280 -0.1593
23533W        W38664   1.964  13.987  11.797 -0.2452  0.1798  0.0227
23534W        W38665   0.957   2.378  14.676 -0.0986  0.2731  0.0112
23535W        W38666  17.604  17.910   1.501 -0.4614  0.0792  0.1918
23536W        W38667   3.509   2.025   9.997 -0.1797  0.0171  0.0025
23537W        W38668   2.013  16.276  15.667 -0.1589  0.0418 -0.0006
23538W        W38669   3.151   6.703   4.213 -0.4513  0.1002 -0.1165
23539W        W38670   0.325  16.636  16.228 -0.1177 -0.1803  0.2042
23540W        W38671  12.419  14.129   2.312  0.1432 -0.0974 -0.1218
23541W        W38672   5.587   0.142  15.486  0.3565 -0.1120  0.1655
23542W        W38673  17.784  12.390  13.890 -0.0058 -0.0158  0.3239
23543W        W38674   7.665   2.116   3.914  0.0389 -0.1652  0.0583
23544W        W38675  15.324   5.151   4.754 -0.1677  0.4577 -0.1184
23545W        W38676  15.880  12.156  14.370  0.1055 -0.3414  0.0117
23546W        W38677   7.298  16.107   0.588 -0.1727  0.2372  0.1719
23547W        W38678  15.771  10.419   2.614 -0.0325  0.2847 -0.0143
23548W        W38679  10.235   8.198   4.374 -0.2551  0.1711  0.0139
23549W        W38680   4.633  17.831  16.219  0.1287 -0.2177  0.1707
23550W        W38681   3.097   8.497   2.927  0.0139 -0.3072 -0.2353
23551W        W38682  15.953   1.974   4.582  0.0965 -0.2943  0.1730
23552W        W38683  16.264  12.747   3.334 -0.0977  0.2484  0.0430
23553W        W38684   0.937  10.138   4.932 -0.1475 -0.3687  0.2161
23554W        W38685   7.520  12.669  11.966 -0.0236 -0.1650  0.0759
23555W        W38686  15.903   7.680  15.329  0.4520  0.1305  0.4232
23556W        W38687  10.097  11.478   4.910 -0.1191  0.0737  0.2509
23557W        W38688  14.999  12.258   1.442 -0.0182 -0.0394 -0.1450
23558W        W38689  17.327  12.815  13.493  0.0095  0.1555 -0.0546
23559W        W38690  14.198   3.118   3.346  0.2082 -0.2545  0.1678
23560W        W38691   8.661  12.299  11.334  0.1388  0.0389  0.1091
23561W        W38692  10.077   7.346  11.370  0.0356 -0.1584  0.2222
23562W        W38693   5.004  12.711  12.891  0.0929 -0.0150  0.2111
23563W        W38694   3.187   7.180   2.930 -0.0166  0.0988 -0.0170
23564W        W38695  13.280   2.348  15.818 -0.1330  0.2431  0.1434
23565W        W38696   8.571   9.223  12.675  0.0357 -0.0211 -0.0290
23566W        W38697   3.726   4.009  14.286  0.2709 -0.0667  0.0676
23567W        W38698  11.764  17.308  11.563  0.2729  0.0586 -0.0402
23568W        W38699   6.630   9.408  11.139  0.0526 -0.1365 -0.1057
23569W        W38700  12.799   7.397   2.342  0.2241  0.5546 -0.0826
23570W        W38701   0.409  15.022   3.144  0.1716 -0.1278  0.0046
23571W        W38702   5.776  14.700   2.578 -0.0428 -0.0336 -0.0434
23572W        W38703   8.369  17.184   3.168  0.1398  0.0688  0.0453
23573W        W38704  11.385  12.188   2.657 -0.2818  0.2710 -0.1513
23574W        W38705  12.405  14.812  15.268  0.1342  0.0190  0.0492
23575W        W38706   0.160   2.957  12.419 -0.1464  0.0536  0.2379
23576W        W38707   6.091  14.897  13.375  0.2511 -0.2447  0.0165
23577W        W38708   0.747   2.503  11.936 -0.2983  0.3003  0.2240
23578W        W38709   5.891   8.898  12.940 -0.2427 -0.1273  0.2319
23579W        W38710   1.001   2.885  11.767 -0.2276 -0.0945 -0.0170
23580W        W38711   9.187   9.192  14.619 -0.1007  0.0504  0.0660
23581W        W38712  15.711  11.705   3.529  0.1381 -0.2590 -0.2233
23582W        W38713   9.046  13.284  16.177  0.1145  0.2039 -0.0753
23583W        W38714   6.960   3.058  12.172  0.0754  0.0211 -0.2130
23584W        W38715   1.103   2.215  10.979  0.1685  0.1256  0.2120
23585W        W38716  14.913  12.172   6.057  0.1043 -0.1735 -0.0154
23586W        W38717   9.660   3.089  12.918 -0.0585  0.1619 -0.0756
23587W        W38718   0.372   9.829   1.087  0.1982 -0.1028 -0.3801
23588W        W38719   4.483   7.206  16.132  0.0966  0.0450  0.0301
23589W        W38720  17.697   3.431   1.733 -0.0572 -0.2402  0.1435
23590W        W38721   5.317  13.743   0.597  0.0697  0.1441 -0.2633
23591W        W38722   3.699  17.836   5.829  0.0631 -0.0296 -0.1524
23592W        W38723  10.343   0.179   6.165 -0.2842 -0.0081 -0.2279
23593W        W38724  11.652   4.509   4.952 -0.3170 -0.0947  0.0961
23594W        W38725   9.172   8.578   2.755 -0.2069 -0.0289  0.1591
23595W        W38726  17.377  17.364  12.708 -0.1980  0.0914 -0.1534
23596W        W38727   4.148   3.438  12.669 -0.1354 -0.1410 -0.0438
23597W        W38728   5.494   8.775   2.391 -0.0523  0.1305 -0.1447
23598W        W38729  17.403   8.857  15.936  0.1424 -0.0900  0.2760
23599W        W38730   4.217  12.012  12.852 -0.1291 -0.1964 -0.2233
23600W        W38731  11.564   1.322  11.250  0.0539 -0.1048  0.1726
23601W        W38732   5.442   6.770  11.537 -0.2445  0.2184  0.1391
23602W        W38733   3.492   1.538  12.301 -0.0380 -0.3317  0.0252
23603W        W38734  14.791   4.458  16.214 -0.0217  0.0981  0.0411
23604W        W38735  13.358   1.991   1.537 -0.2751  0.3272  0.0176
23605W        W38736   4.956   4.226  14.544 -0.3165 -0.0853  0.2471
23606W        W38737   2.368   6.017  12.904  0.1270  0.0357  0.2701
23607W        W38738   2.377   2.560   3.091  0.1190  0.0679 -0.1580
23608W        W38739   3.230   6.595   3.707 -0.2074 -0.3581 -0.0289
23609W        W38740  16.512   6.194   0.926 -0.0640  0.3662  0.0660
23610W        W38741   8.673   1.326   5.775 -0.1534  0.2670  0.1133
23611W        W38742  16.174   6.571  11.043  0.0873 -0.0259  0.1165
23612W        W38743  12.594   9.151   5.778 -0.3019  0.3319 -0.0750
23613W        W38744  15.310  15.219   0.162  0.1111  0.1599  0.0053
23614W        W38745   9.715   2.519   3.097 -0.1512  0.2096 -0.1397
23615W        W38746   3.490  11.013   3.674 -0.0320 -0.3391 -0.1478
23616W        W38747  14.677  10.699   6.502 -0.1410  0.3474  0.3571
23617W        W38748   2.562   0.566   0.324 -0.0552  0.0235 -0.0286
23618W        W38749  11.394   3.119   0.960  0.0683  0.0916 -0.3582
23619W        W38750  15.416  10.779   2.170 -0.0925  0.4181 -0.1291
23620W        W38751  16.660  11.229   0.717 -0.1607  0.3509  0.5038
23621W        W38752   0.263  17.089  14.646 -0.1182  0.0157  0.0894
23622W        W38753  10.243   6.934   5.359  0.1217  0.0974 -0.1433
23623W        W38754  10.458   0.112  14.750  0.1556  0.0812  0.1851
23624W        W38755   7.011   9.383   1.555 -0.0725  0.1703  0.0654
23625W        W38756   9.080   1.045  16.231 -0.0324 -0.4562 -0.3485
23626W        W38757   3.139   0.453  11.447 -0.2113 -0.0282 -0.3649
23627W        W38758  13.165   7.165   0.987 -0.0730 -0.0285 -0.1145
23628W        W38759  12.348  11.212  15.963 -0.1674 -0.1069  0.3208
23629W        W38760  15.978  14.721  14.740 -0.0756  0.0344  0.0063
23630W        W38761  12.248  14.433   0.829  0.0248  0.1840 -0.0153
23631W        W38762   2.014   4.495  16.044 -0.0504 -0.1466 -0.0041
23632W        W38763  10.856  16.511   0.603 -0.3639  0.2529 -0.0000
23633W        W38764   3.467  10.149  15.987  0.3494  0.0933 -0.1299
23634W        W38765  15.730   3.766  11.346 -0.1639 -0.0768  0.0695
23635W        W38766  12.690  13.872   5.633 -0.2117  0.2665  0.0978
23636W        W38767   7.429  11.354   0.699  0.1220  0.0007 -0.2056
23637W        W38768   4.083   9.236  14.917  0.1226  0.1413  0.1500
23638W        W38769   9.549   7.586  15.769  0.2215 -0.1309 -0.0372
23639W        W38770   6.308   2.734   3.554  0.1607  0.0121 -0.2940
23640W        W38771  16.348  11.977   4.936  0.0713  0.1592 -0.1959
23641W        W38772  15.702   5.850   2.391 -0.1229 -0.0928  0.1243
23642W        W38773   1.914  11.998   0.964 -0.0253 -0.1840 -0.1390
23643W        W38774   2.602   0.872  16.015 -0.0789 -0.2879 -0.0564
23644W        W38775  10.516  14.293  13.595 -0.0406  0.0880 -0.2665
23645W        W38776  13.402  11.427  14.073 -0.0298 -0.0882  0.2809
23646W        W38777  13.652   0.592  11.589  0.0911  0.0248  0.0834
23647W        W38778  17.869   1.194   5.227  0.0247 -0.1926  0.1822
23648W        W38779   2.420  14.872   3.235  0.1637  0.0928  0.1202
23649W        W38780  11.734  12.095   3.379 -0.0954  0.4651 -0.1343
23650W        W38781  13.021   6.646   3.552  0.0664  0.1945  0.2979
23651W        W38782   7.505   5.408   4.606  0.0008 -0.2649  0.1013
23652W        W38783  14.190   7.586   4.317 -0.4896  0.0231  0.2306
23653W        W38784   0.006   3.823  13.422  0.1647  0.0438  0.0772
23654W        W38785   4.188  17.727   0.938 -0.2273  0.2542 -0.0036
23655W        W38786   6.763   0.352  15.654 -0.0620 -0.4727  0.0318
23656W        W38787  11.967  13.101   1.556  0.2205 -0.2237  0.1219
23657W        W38788  11.893  11.142   0.318  0.0911 -0.1471 -0.0503
23658W        W38789  15.961   2.515   4.707 -0.0863  0.0012  0.2233
23659W        W38790  11.155   5.975   0.326 -0.1532 -0.3497  0.2580
23660W        W38791   2.329   8.651   4.605 -0.4845 -0.0512 -0.1717
23661W        W38792  15.144   3.668   4.312 -0.3424  0.0578 -0.3045
23662W        W38793   4.102   4.550  11.641 -0.0133 -0.2927  0.0066
23663W        W38794   3.968  16.877   3.312  0.3575  0.1735 -0.0909
23664W        W38795  16.353   3.457   1.911 -0.1383 -0.2335  0.1319
23665W        W38796  11.644  10.870  15.578  0.0221  0.1941  0.0681
23666W        W38797   9.666   2.328   1.401  0.3489  0.1906 -0.0930
23667W        W38798  16.239  17.626  12.804 -0.0653  0.0464 -0.0955
23668W        W38799   8.728   2.099  11.268 -0.4900  0.1854  0.0045
23669W        W38800   5.773  15.761  15.493  0.1155  0.0086  0.1374
23670W        W38801   8.840  13.570  13.304 -0.5926  0.2025  0.1011
23671W        W38802  16.410  12.691  13.135 -0.0905 -0.1641  0.2345
23672W        W38803  12.243   4.300   6.316  0.1270 -0.3030 -0.0215
23673W        W38804   7.642  13.639  13.071  0.2535 -0.2575 -0.1830
23674W        W38805   5.907  13.008   4.777  0.1339  0.4086  0.1951
23675W        W38806   0.868   6.067   4.738  0.3788 -0.1255 -0.1147
23676W        W38807   6.799   0.970  12.342  0.2008 -0.1103 -0.0561
23677W        W38808  16.627  11.372   2.219  0.2429  0.0607 -0.2145
23678W        W38809   0.450   7.808   2.635  0.0184  0.1889  0.1499
23679W        W38810   3.388  18.082   2.754  0.0862  0.0759 -0.0423
23680W        W38811   1.150   3.229   2.672  0.0878  0.0156 -0.1158
23681W        W38812   7.276   8.407  14.905  0.2028  0.1815  0.1519
23682W        W38813   4.722  12.703  12.210  0.0872  0.1195  0.0209
23683W        W38814   1.958   1.825  13.021  0.2791 -0.1575  0.0598
23684W        W38815  17.933   9.648   2.639 -0.0750 -0.0753  0.0422
23685W        W38816   9.518  13.473  13.833  0.3428  0.1533  0.0735
23686W        W38817   1.068   8.954  10.683 -0.2521 -0.1210  0.3480
23687W        W38818  12.905  13.123  11.055 -0.1552  0.2162  0.0952
23688W        W38819  12.266   2.070  13.460 -0.2624 -0.0050  0.0215
23689W        W38820  13.319   8.859   1.329  0.3106  0.0776  0.1177
23690W        W38821   0.751  15.337   5.953  0.1369  0.0638  0.0271
23691W        W38822  13.468  10.347   4.529  0.0180 -0.2275 -0.1483
23692W        W38823  16.178  10.844  13.771  0.3276  0.1984  0.0533
23693W        W38824   5.616   5.337   4.996  0.2877  0.1162 -0.1415
23694W        W38825  12.201   2.883   4.280 -0.1869 -0.5719  0.0673
23695W        W38826   2.184  14.169   2.793 -0.3773  0.2008 -0.1270
23696W        W38827   0.877  14.947  11.639  0.1533 -0.0202  0.0185
23697W        W38828  11.890   0.200   4.513  0.0042 -0.2356  0.0964
23698W        W38829  11.353   1.927   3.721 -0.0358 -0.6264  0.0040
23699W        W38830   7.271   9.433  12.301 -0.0819 -0.0275 -0.0646
23700W        W38831   2.708   4.911  11.093  0.1253  0.3417 -0.2837
23701W        W38832   7.090   4.821  11.010 -0.1066  0.0170  0.1048
23702W        W38833  13.208  16.118   0.764  0.2147  0.1828  0.0789
23703W        W38834   6.682   6.675   2.748 -0.1955  0.1598  0.0943
23704W        W38835   4.377  15.357   1.192  0.2725  0.0553  0.0255
23705W        W38836  16.199  11.790  14.043 -0.2501 -0.0393  0.0353
23706W        W38837   4.735   2.977  15.360 -0.1751 -0.3532 -0.1403
23707W        W38838   5.177  18.007   5.622  0.0913  0.2331 -0.0049
23708W        W38839   6.319   7.946  16.127  0.0779  0.0877  0.0514
23709W        W38840   2.083   7.528   2.263 -0.1353 -0.1137  0.1122
23710W        W38841   8.615   7.068   2.800 -0.2115  0.2598  0.1950
23711W        W38842  13.539   5.111  15.483  0.0886  0.1403 -0.1493
23712W        W38843  13.976  13.061   0.108 -0.1496  0.1846 -0.1984
23713W        W38844   9.030   2.788  14.565 -0.3317  0.0486 -0.4235
23714W        W38845   1.091  11.110  14.830 -0.0042 -0.1476 -0.0279
23715W        W38846  11.163   0.345   4.699  0.2789  0.1544 -0.0735
23716W        W38847  13.675   4.157   2.028  0.0444  0.0720  0.2137
23717W        W38848  16.511   9.951  13.382  0.3832 -0.0100  0.0096
23718W        W38849   2.092  13.937  14.555  0.1305  0.1324 -0.0323
23719W        W38850   4.020  11.946   4.570 -0.2737  0.5708 -0.1555
23720W        W38851   4.199  14.059  10.978 -0.2370 -0.0465  0.2533
23721W        W38852   0.345  10.425   5.033 -0.0770 -0.0223  0.0672
23722W        W38853   5.305  16.770   3.701 -0.2653 -0.1621 -0.1667
23723W        W38854  12.287   8.398  14.904  0.1542 -0.1472  0.1692
23724W        W38855  14.072  16.481   1.397  0.1099  0.2372  0.1693
23725W        W38856  15.989   2.451  12.006  0.0836 -0.0636 -0.2363
23726W        W38857   3.297  15.452  10.214  0.0565  0.0663  0.2261
23727W        W38858  10.443  13.365  16.123  0.0576 -0.1203  0.4927
23728W        W38859   8.154   1.772  11.954 -0.0753 -0.0924  0.0851
23729W        W38860   4.899   6.116  11.963  0.0856 -0.1599 -0.1349
23730W        W38861   6.719   7.997  10.827  0.0698  0.1424  0.2299
23731W        W38862  12.669   7.510   1.201 -0.1284  0.1509  0.1942
23732W        W38863  11.840   9.810   0.495  0.0359  0.0387  0.1003
23733W        W38864  12.326   9.694   4.883 -0.2224 -0.1148  0.1131
23734W        W38865  17.440   5.298   1.192  0.1235  0.0588 -0.1301
23735W        W38866  16.987  10.563  16.148  0.2438  0.0672  0.0432
23736W        W38867   4.914   1.645   3.053  0.1876  0.1697 -0.2148
23737W        W38868   0.371   4.472   1.776  0.0710 -0.2410 -0.1169
23738W        W38869  10.251   3.001   4.109 -0.1020  0.1485 -0.0125
23739W        W38870  14.097   1.241  16.164  0.4069  0.1421  0.4452
23740W        W38871  17.177   7.800   5.121 -0.1967  0.2077 -0.0711
23741W        W38872  16.890   5.985  14.386 -0.0420 -0.1220 -0.1163
23742W        W38873   6.887  13.759   3.529  0.0506 -0.0850  0.3150
23743W        W38874   6.030   7.933   0.543 -0.1400 -0.2617  0.1232
23744W        W38875   7.304  13.692  15.473 -0.1248  0.3378  0.0278
23745W        W38876   5.733   8.506  13.196 -0.0541  0.3670  0.0765
23746W        W38877   6.198  10.312  13.559  0.0073  0.0521 -0.0614
23747W        W38878   0.866   3.770   4.121  0.1955  0.0010 -0.0349
23748W        W38879  12.790   2.560  11.182  0.5296  0.2131  0.4097
23749W        W38880  13.026  14.190  15.587 -0.0791  0.0400 -0.1220
23750W        W38881   2.438  13.655   4.627  0.1065  0.0685  0.2697
23751W        W38882  12.798  15.350  11.779  0.0004  0.1081 -0.0585
23752W        W38883  16.065  17.497  14.617 -0.2116 -0.0936  0.0112
23753W        W38884   3.167  16.112   4.788  0.1171 -0.2586 -0.4173
23754W        W38885  11.313  10.824   3.076  0.1093 -0.0324 -0.0557
23755W        W38886  15.475   9.324  14.629  0.1782 -0.0344 -0.2134
23756W        W38887  16.450  13.717  14.144  0.3846  0.0394 -0.1185
23757W        W38888  13.429  11.662   5.591  0.1278  0.1165  0.1541
23758W        W38889   4.551  11.320   0.099 -0.0211  0.0853  0.1680
23759W        W38890  14.565  17.854   6.010  0.1137 -0.1667 -0.1852
23760W        W38891   7.050  16.457  13.601 -0.0736  0.0714 -0.3207
23761W        W38892  15.776  12.642  13.669 -0.1265 -0.1220 -0.1243
23762W        W38893   8.388   1.445   2.899 -0.2693 -0.1509  0.2197
23763W        W38894  10.327  10.550  13.660 -0.1100  0.0861 -0.1487
23764W        W38895   9.904   4.060   2.932 -0.1330  0.2661  0.1026
23765W        W38896   5.010  17.555  14.219 -0.0851 -0.3189 -0.1063
23766W        W38897   7.924   1.199  12.827  0.0070 -0.1254  0.0142
23767W        W38898  15.752  13.801   4.442  0.1862  0.0800  0.0323
23768W        W38899  17.608   3.017   3.647  0.0061 -0.1637 -0.1739
23769W        W38900  11.751  14.648   5.215  0.0289 -0.3363 -0.3043
23770W        W38901   2.050   1.506   4.123  0.1192  0.1430 -0.0000
23771W        W38902   3.500  17.029   4.509  0.3245 -0.1340 -0.0109
23772W        W38903  14.606   0.774   1.172  0.2968  0.2385  0.1243
23773W        W38904   8.300   5.905  14.717  0.0183  0.0606  0.3811
23774W        W38905  11.202  11.816  12.132 -0.1173 -0.0762  0.5179
23775W        W38906   6.985  15.436   0.405  0.0966 -0.1421 -0.0914
23776W        W38907  12.228  14.153  11.796  0.2251 -0.2289  0.2040
23777W        W38908  13.993  16.340  12.345  0.1025  0.1468 -0.0302
23778W        W38909  16.968  17.415   9.982 -0.1781  0.0441 -0.1227
23779W        W38910   4.643  14.138  10.469 -0.1652 -0.0283  0.2022
23780W        W38911   7.916   8.996   3.012  0.0016 -0.0261  0.0057
23781W        W38912  16.268   2.934   2.619  0.1200  0.2189 -0.0134
23782W        W38913   3.036   0.675   9.932  0.3007 -0.0946 -0.1441
23783W        W38914  11.447   4.045  15.599 -0.0941  0.3052 -0.0258
23784W        W38915   0.816   2.393   1.555 -0.2012 -0.1305  0.0581
23785W        W38916  14.991  10.854   1.031  0.2034 -0.0699  0.1392
23786W        W38917   8.576   3.606   2.022 -0.1305  0.0244 -0.2836
23787W        W38918   3.781   2.037   2.909  0.0248 -0.0823 -0.0666
23788W        W38919   9.931   5.595  12.883  0.2257 -0.2039  0.2949
23789W        W38920  15.804   1.810   3.025  0.0327 -0.2147 -0.0453
23790W        W38921   3.242   2.246  12.946 -0.0500 -0.0096  0.0088
23791W        W38922  11.816  16.818  15.425  0.0935 -0.5822  0.3342
23792W        W38923  14.494   8.545   1.369  0.1092  0.1096 -0.0971
23793W        W38924   8.400   4.764   0.679 -0.0525  0.1358  0.3713
23794W        W38925   8.415  14.344   3.583  0.2698 -0.1572  0.5004
23795W        W38926   8.125  11.928   0.662 -0.4214  0.2817 -0.0316
23796W        W38927  17.970  10.682   2.707  0.1896 -0.0839 -0.2159
23797W        W38928  11.310   6.850  11.651  0.4484 -0.2854  0.1364
23798W        W38929  15.621   6.003   1.357 -0.0131  0.2083 -0.2592
23799W        W38930  12.502  10.451   0.195  0.2117  0.0233 -0.0057
23800W        W38931   9.904   7.485   3.117  0.2538 -0.2344  0.2002
23801W        W38932  14.671   3.789   4.086  0.1813 -0.2275 -0.0731
23802W        W38933   5.315   3.106  14.111  0.0005 -0.1345 -0.0141
23803W        W38934  12.190  17.415   4.953  0.0584  0.2145 -0.0644
23804W        W38935   3.511  10.972  14.491 -0.0657  0.0302 -0.1761
23805W        W38936   4.876   6.637  14.937 -0.0321 -0.2851 -0.1907
23806W        W38937   1.239   8.922   2.980 -0.0079 -0.1073 -0.0044
23807W        W38938  11.869  15.211   1.394  0.0371 -0.0052 -0.2899
23808W        W38939   0.097  17.163   2.947 -0.1924  0.0762 -0.0851
23809W        W38940  12.300  15.712  13.525 -0.4154  0.1451  0.2038
23810W        W38941  11.375   1.360  12.468  0.3109 -0.1070  0.0392
23811W        W38942  15.634   6.536  10.740  0.1927  0.1365  0.2170
23812W        W38943   2.059   3.976  14.760 -0.2386  0.0072  0.1888
23813W        W38944   5.078   1.091  11.096 -0.1161 -0.2945 -0.0224
23814W        W38945   7.322  12.806   0.948 -0.0747 -0.1763  0.3026
23815W        W38946  12.608  17.079  13.709  0.0416  0.2488 -0.1996
23816W        W38947   0.959  18.008  12.427  0.0161  0.0823  0.1394
23817W        W38948   7.530   9.642  11.574  0.0458  0.0936  0.1423
23818W        W38949  17.315   0.760   5.599  0.0166  0.1161  0.0001
23819W        W38950   0.831  11.115   1.967  0.0779  0.1281  0.3085
23820W        W38951  13.191   7.418   2.607 -0.1778  0.0062  0.0268
23821W        W38952  18.124   0.666   2.104 -0.1458  0.2197  0.0045
23822W        W38953   1.753   5.768   4.860 -0.4786 -0.2185 -0.1736
23823W        W38954   4.035  11.764  10.501  0.2400 -0.0598 -0.2050
23824W        W38955   9.053   2.538  13.153 -0.2620 -0.2528 -0.3051
23825W        W38956  10.395   3.055  12.059  0.0020  0.4437  0.2514
23826W        W38957  12.570  11.837   3.510 -0.2320  0.0196  0.2188
23827W        W38958  15.668   5.849   1.864 -0.3126 -0.0701 -0.0205
23828W        W38959   9.465  12.114   3.414  0.1542  0.0544  0.2133
23829W        W38960   7.603  17.607  14.011  0.1629  0.1419 -0.0362
23830W        W38961  11.405   3.686  13.851  0.1589  0.1870  0.2173
23831W        W38962  16.342   6.670   4.756  0.0278 -0.1379  0.0155
23832W        W38963  11.046  12.003   5.625  0.1929  0.1473  0.0127
23833W        W38964   8.838  17.630  15.486  0.2495 -0.3359 -0.2157
23834W        W38965   3.347   5.130   2.039  0.1626 -0.0300  0.4381
23835W        W38966   6.785   8.734  12.064 -0.1353 -0.0599  0.2596
23836W        W38967   3.202  17.275  14.721 -0.2144  0.2595 -0.0460
23837W        W38968  13.059  16.360   2.820 -0.0295 -0.3269  0.1093
23838W        W38969  17.671   0.973  12.691  0.3152  0.0862 -0.0895
23839W        W38970   1.583   8.603   4.148  0.2906 -0.0332 -0.0952
23840W        W38971  13.221  16.712  13.303 -0.1226  0.0660 -0.2383
23841W        W38972  11.257  12.138  13.835 -0.0733  0.0731  0.1335
23842W        W38973   1.938   6.662   0.134 -0.1612  0.1364  0.1359
23843W        W38974  11.228   4.558   1.116 -0.1777 -0.1531  0.1685
23844W        W38975   5.766  16.345   2.699  0.1300  0.4595  0.0547
23845W        W38976  11.496  12.365  12.542 -0.0232  0.1401  0.0938
23846W        W38977   7.048   8.066   3.501  0.0528 -0.0581  0.3055
23847W        W38978  14.969   9.414  11.968 -0.0043  0.0682  0.0997
23848W        W38979   7.093  12.355  15.981 -0.0202 -0.0599 -0.2853
23849W        W38980   1.441   3.413   4.830  0.0818 -0.1683  0.1436
23850W        W38981  13.358  18.144  14.447  0.0025  0.0449 -0.2222
23851W        W38982  13.251   4.129  15.737  0.1111  0.0443 -0.0274
23852W        W38983  11.242  14.721  11.924  0.1368 -0.0580  0.0655
23853W        W38984  15.098   1.335   5.312  0.0008  0.3969  0.0306
23854W        W38985  16.538  12.844   1.806 -0.3158 -0.3625  0.1270
23855W        W38986   1.180   7.728  16.055  0.0903 -0.0422  0.0251
23856W        W38987  15.715  13.846  11.677 -0.1158  0.2960 -0.2860
23857W        W38988  10.352  12.648   4.062  0.3906  0.0106 -0.3142
23858W        W38989   2.250  17.778  11.255 -0.0848 -0.1712  0.4648
23859W        W38990   8.904   7.917   2.256 -0.1025  0.1487  0.4443
23860W        W38991   1.010   8.223  14.279 -0.2884 -0.1265  0.1948
23861W        W38992  12.726   3.664   1.013 -0.1104  0.1251  0.0846
23862W        W38993  15.993   7.617   2.615  0.1782 -0.0373 -0.1044
23863W        W38994  17.337   8.528  12.735  0.1048  0.0834  0.3163
23864W        W38995   4.216  15.975   4.628  0.0763  0.3078  0.1145
23865W        W38996   5.193  12.872  13.376  0.1609  0.0848  0.2516
23866W        W38997   0.729  11.906   1.028  0.1055  0.1449  0.0457
23867W        W38998   2.998   0.295   3.652 -0.1426  0.0742 -0.1068
23868W        W38999  17.917   0.945  14.312 -0.1063  0.0352  0.2214
23869W        W39000   1.919   1.285  10.505 -0.1498  0.1006 -0.0241
23870W        W39001  15.725   6.617   0.096  0.0410 -0.2071  0.0771
23871W        W39002  16.436   8.066  10.703  0.1380 -0.1069 -0.0882
23872W        W39003  17.437  11.843  12.841  0.4607  0.2042  0.0841
23873W        W39004   5.940   8.197  14.680  0.2558  0.1556 -0.1505
23874W        W39005   6.113   2.766  15.524  0.1050  0.1200  0.1900
23875W        W39006  12.269   9.424  11.908  0.1622 -0.0833 -0.0533
23876W        W39007  17.342   0.751   1.828 -0.1390  0.2614 -0.2058
23877W        W39008   9.076  11.810   0.533 -0.0630  0.0295  0.1554
23878W        W39009   1.875  17.049  12.862 -0.2690  0.1322 -0.1035
23879W        W39010   6.874  12.015  15.288 -0.0955  0.1762 -0.1473
23880W        W39011   8.666  16.912   0.090  0.0282  0.3884  0.4230
23881W        W39012  12.265  12.553   3.241  0.1571 -0.2212  0.1521
23882W        W39013   3.835   3.730  14.956  0.1926  0.0700  0.0699
23883W        W39014   5.450   6.106  10.896  0.1851  0.0408  0.0564
23884W        W39015   9.554   1.809   5.868  0.0253  0.2322 -0.0213
23885W        W39016   0.154  15.259   2.558  0.1124 -0.3319  0.0129
23886W        W39017  17.956   9.696  14.880 -0.0755 -0.2511  0.1327
23887W        W39018   5.731  13.083  14.696 -0.1115  0.0956 -0.1200
23888W        W39019  14.521  14.281   2.392 -0.1071 -0.1728  0.2763
23889W        W39020   7.007  15.803  10.453 -0.0488  0.2412  0.2258
23890W        W39021  17.763   0.701   5.325  0.0287 -0.0464 -0.0527
23891W        W39022  13.744  14.881   4.870 -0.0893  0.2153  0.4077
23892W        W39023   5.637   4.565  13.164 -0.0828  0.0620 -0.0257
23893W        W39024  11.355  14.443   3.055 -0.0258  0.0199 -0.0852
23894W        W39025  12.821  14.907   4.998 -0.2014 -0.1176 -0.3139
23895W        W39026  10.368  14.822  11.675  0.2598  0.1638 -0.0554
23896W        W39027  10.760  11.994  12.236 -0.1685 -0.2542  0.0125
23897W        W39028   8.648  17.860   4.776  0.2143  0.3182  0.2433
23898W        W39029  16.717   9.208   2.938  0.3025  0.0705  0.1258
23899W        W39030   8.237   7.082   1.619 -0.3205 -0.2373  0.1233
23900W        W39031  15.864   9.245   3.369 -0.1994 -0.0177 -0.0473
23901W        W39032   7.986   0.864  11.944  0.0116 -0.1425  0.0316
23902W        W39033   6.739  16.308   2.651  0.1166  0.2256 -0.0821
23903W        W39034   6.724   9.678  10.691 -0.2470 -0.0794 -0.2868
23904W        W39035   7.772   9.762   5.217  0.1000 -0.1533  0.0423
23905W        W39036  13.980  14.820  13.468 -0.2046  0.0585  0.5895
23906W        W39037  11.525  10.613  11.221  0.1087  0.1795 -0.0531
23907W        W39038  14.212  17.323  16.124  0.1330 -0.1542 -0.1118
23908W        W39039  17.973  11.864  16.189 -0.3885 -0.3066 -0.0726
23909W        W39040  17.491   4.200  14.509 -0.3106  0.4971  0.0201
23910W        W39041  11.216   9.809   4.992  0.0521 -0.0923 -0.0695
23911W        W39042   7.440   4.805  14.359 -0.1543  0.0617 -0.0311
23912W        W39043  10.969   7.963  13.667  0.0183  0.1299  0.2143
23913W        W39044   1.804  12.128   5.626  0.0343 -0.2724 -0.0153
23914W        W39045   6.504  10.067   2.276  0.1636 -0.1841  0.0328
23915W        W39046  14.497   7.755   0.333  0.4532  0.2692 -0.3708
23916W        W39047   0.614  15.986  11.767 -0.1413  0.0064  0.0425
23917W        W39048   2.615   4.216   1.630 -0.3763  0.2962 -0.1693
23918W        W39049  12.175   0.617  12.546 -0.1880 -0.0945  0.0968
23919W        W39050  10.671  16.546   2.535  0.0411 -0.1697  0.0924
23920W        W39051  16.552  10.660   3.892  0.0060 -0.1646  0.0169
23921W        W39052  11.854  11.596   3.090  0.0050  0.2636 -0.0200
23922W        W39053   8.323   1.916   1.773  0.1117  0.2063  0.0093
23923W        W39054  15.603  16.029  15.227  0.1204 -0.1918 -0.0663
23924W        W39055  11.215   2.391   5.364 -0.0931 -0.0405 -0.1464
23925W        W39056  10.034  11.751  10.791 -0.0381  0.1663 -0.5262
23926W        W39057  12.951   8.480  13.235 -0.1295  0.0013 -0.2670
23927W        W39058  14.990  15.324   5.919 -0.1583 -0.2400 -0.4420
23928W        W39059   7.953  10.986   3.168 -0.0919 -0.1388 -0.1518
23929W        W39060  10.277   4.396   0.889  0.0276  0.0999 -0.1956
23930W        W39061   7.567   0.590   1.046 -0.0409 -0.1273 -0.0370
23931W        W39062   9.993   0.760  12.268 -0.1109 -0.1272  0.0422
23932W        W39063   5.556  10.638  15.795  0.0915 -0.2337 -0.2037
23933W        W39064  17.027  17.998  10.799  0.2385  0.0007  0.3727
23934W        W39065   8.872   5.949  12.135 -0.2892  0.0601 -0.1801
23935W        W39066   3.468   3.896   4.117 -0.2391  0.2063  0.0959
23936W        W39067   2.176   1.156   0.722  0.4701  0.0878 -0.1444
23937W        W39068  14.492   3.001   1.937  0.1476  0.0247  0.1924
23938W        W39069  15.786   5.493  12.103 -0.5021 -0.5288  0.1128
23939W        W39070  10.167  10.887   3.234 -0.0746 -0.1910 -0.0457
23940W        W39071  13.205  12.562   4.427  0.3284 -0.0266  0.0645
23941W        W39072   4.902  14.356   2.978  0.5562  0.1503 -0.2163
23942W        W39073   5.685  11.996  11.244 -0.0768 -0.0574 -0.0341
23943W        W39074  10.444   2.920   9.955  0.0706 -0.0386  0.2172
23944W        W39075   9.028  11.420  13.667 -0.1856 -0.1730 -0.0519
23945W        W39076  14.561   1.555   2.884  0.0552  0.0564  0.2689
23946W        W39077   1.566   5.276   4.608  0.0207 -0.1085  0.1687
23947W        W39078   7.450   5.426   4.047 -0.0185  0.0641  0.1959
23948W        W39079   4.260   9.030  13.829 -0.1243 -0.1960  0.2141
23949W        W39080   6.128   1.036  15.147 -0.2412 -0.0810 -0.1075
23950W        W39081  13.623   7.577   4.632  0.0199 -0.4393  0.0346
23951W        W39082  12.387  18.161  11.898  0.0685 -0.1334  0.0610
23952W        W39083  12.371  13.910   1.019  0.0757 -0.0476  0.0158
23953W        W39084   3.971   5.451  13.298 -0.0409  0.1499  0.3244
23954W        W39085  10.764   2.505   3.873 -0.1931 -0.1832 -0.2814
23955W        W39086  12.668   4.571   2.703  0.2806  0.0256  0.0261
23956W        W39087  14.220   2.941  14.140  0.1755  0.0552 -0.1859
23957W        W39088  15.150  13.996  12.904 -0.1929 -0.0854 -0.3230
23958W        W39089   0.190   2.775   0.508 -0.1930 -0.1886 -0.2550
23959W        W39090  13.489  16.549  12.215  0.0571  0.1357 -0.0347
23960W        W39091   9.060  17.334   4.677 -0.0011  0.2205 -0.0857
23961W        W39092  12.240   4.955   2.754 -0.0044  0.0951 -0.0391
23962W        W39093   3.159   1.643  15.003 -0.1190  0.1879  0.0431
23963W        W39094   0.056   5.690   3.737 -0.1022  0.1444  0.1597
23964W        W39095   5.454  16.215  11.169 -0.0190  0.0860 -0.1130
23965W        W39096   6.013  13.366  14.400 -0.2694 -0.0886 -0.1169
23966W        W39097   7.832  14.112   4.344  0.0316 -0.1132  0.1113
23967W        W39098   9.668  16.355   3.356  0.2312  0.0228  0.0669
23968W        W39099   7.975   1.972   1.321 -0.3939 -0.1380 -0.1083
23969W        W39100   3.848   6.126   5.154  0.0556 -0.0520 -0.1723
23970W        W39101   7.167  18.031  14.029 -0.1709  0.0373 -0.0664
23971W        W39102  10.290  10.959  11.515  0.2858 -0.1169  0.1318
23972W        W39103  17.438  16.010   6.181 -0.0581 -0.1233  0.2416
23973W        W39104  14.190   0.126   1.717 -0.0988 -0.2190 -0.0397
23974W        W39105  13.596  14.935  13.817 -0.1978 -0.0220  0.0298
23975W        W39106   1.831  13.120  14.885 -0.2172  0.0042  0.0156
23976W        W39107   6.056   7.803  15.153 -0.0837  0.1127  0.1056
23977W        W39108  16.356  14.549   2.738  0.0636 -0.0892  0.1144
23978W        W39109   8.726   4.947  11.693  0.0503 -0.1209 -0.1584
23979W        W39110  17.488   3.401  12.772  0.1852  0.0851 -0.0943
23980W        W39111  17.557   4.092  14.015 -0.0625  0.1325  0.1111
23981W        W39112  13.800   1.468  13.791 -0.3171 -0.2828  0.2398
23982W        W39113   2.175   4.305   0.331 -0.0890 -0.4620 -0.1089
23983W        W39114   5.031  10.134  12.255  0.0399 -0.0389  0.1592
23984W        W39115  10.552  16.025   5.799  0.0728  0.1085 -0.1737
23985W        W39116   2.891  12.773  10.768  0.1740 -0.0946 -0.0062
23986W        W39117   3.675   6.364  13.335 -0.0733 -0.0595  0.0990
23987W        W39118   8.744   0.891  13.068  0.1016  0.0646  0.2404
23988W        W39119  16.799   2.994   4.264 -0.0674  0.0030 -0.0310
23989W        W39120   0.348  17.158   0.742 -0.0035 -0.2372  0.2179
23990W        W39121   6.612   3.425  12.315  0.3769  0.0868  0.0661
23991W        W39122  16.953  11.268  11.166 -0.0445 -0.0802 -0.0727
23992W        W39123  13.457   5.248   1.206 -0.0205  0.1614  0.0713
23993W        W39124  17.378  14.460  14.688  0.1730 -0.1984 -0.1679
23994W        W39125   5.715  15.447   3.056 -0.1194  0.1509 -0.2000
23995W        W39126  17.762  14.080  10.680  0.1133 -0.2628  0.0955
23996W        W39127   4.975  10.983   3.495  0.2039 -0.0633  0.0221
23997W        W39128   7.721   6.465  13.866  0.0446  0.0030  0.0915
23998W        W39129   8.096  12.189   1.537  0.2781 -0.1530  0.2238
23999W        W39130  15.828   3.256   0.695 -0.0576 -0.2093  0.2856
24000W        W39131   4.901   8.692  12.590 -0.0045  0.1219  0.2881
24001W        W39132   1.653  13.457  13.955  0.0261  0.1177 -0.3263
24002W        W39133   1.152   0.236   0.164  0.1114  0.1928  0.1404
24003W        W39134   4.001   7.116   4.258 -0.3327  0.0573  0.2407
24004W        W39135   8.359   3.823   0.219  0.4213 -0.3325  0.2283
24005W        W39136  14.295   1.591   4.713 -0.3959 -0.1530 -0.0370
24006W        W39137  15.447   7.076   1.492  0.1538  0.1222 -0.2473
24007W        W39138   2.611   8.611   2.746 -0.4136 -0.1582 -0.0808
24008W        W39139   3.025   8.474   2.408 -0.0260  0.3347  0.0903
24009W        W39140   5.522  16.123   0.462 -0.1379  0.0484  0.0115
24010W        W39141   1.476  10.706  11.158 -0.3867  0.3070 -0.0167
24011W        W39142  16.777  12.949   0.925  0.0106  0.1482  0.2852
24012W        W39143   6.569   9.795   2.772 -0.0960  0.3385  0.4268
24013W        W39144  11.744   5.283   5.536 -0.1750 -0.2402 -0.0585
24014W        W39145  14.162   3.681   4.792  0.1146  0.0626  0.1317
24015W        W39146  15.044  16.301   0.885  0.0592 -0.3288 -0.1600
24016W        W39147  13.675  14.268   5.970 -0.1935 -0.0035  0.2086
24017W        W39148   1.449   7.894  11.036  0.1701  0.0186  0.1263
24018W        W39149  14.226  13.120  15.374 -0.2614  0.2391 -0.2139
24019W        W39150  15.081  16.945  11.906 -0.2558  0.2148  0.3868
24020W        W39151   5.952  18.153  15.772 -0.1294 -0.1627  0.0629
24021W        W39152   1.239   2.023   1.739 -0.0500  0.1123  0.2422
24022W        W39153   3.431   4.681  12.996  0.1625 -0.0213  0.0659
24023W        W39154  10.216   3.223   2.614 -0.2208 -0.0334 -0.0402
24024W        W39155  14.886  12.558  13.969  0.0998  0.3344  0.0897
24025W        W39156   5.694   4.927   0.883 -0.3900 -0.1198 -0.0801
24026W        W39157   0.523  10.499   3.423 -0.0438 -0.1121  0.0188
24027W        W39158  17.077  17.757  12.827  0.5557  0.2038  0.2696
24028W        W39159  18.058  17.562   3.378  0.1887  0.1496  0.0173
24029W        W39160  16.600   1.430   3.230  0.0300 -0.1502  0.1232
24030W        W39161  15.816   2.448  11.076 -0.1991 -0.0194 -0.1856
24031W        W39162   7.298   7.783   1.065  0.1510  0.1788  0.4662
24032W        W39163   5.383   7.963  12.095 -0.0321 -0.0478 -0.0758
24033W        W39164  13.679  13.521  14.588 -0.0131  0.2876 -0.0963
24034W        W39165   6.308   5.952   0.282 -0.0838 -0.3469  0.0121
24035W        W39166   9.098   2.467  15.951  0.0843  0.1193  0.1196
24036W        W39167   3.403   7.568  15.307  0.2060 -0.3096  0.0723
24037W        W39168   9.839   1.275  13.858  0.2355 -0.0729 -0.0017
24038W        W39169  15.274  13.233   2.725 -0.2058  0.2215 -0.0420
24039W        W39170   5.595   6.205   0.490  0.0521  0.1805  0.0584
24040W        W39171  17.267  14.563   1.448 -0.0799  0.0511  0.0857
24041W        W39172  17.090  12.093   1.536 -0.0331  0.4392  0.0465
24042W        W39173  13.181  12.127   3.324  0.2593  0.0832  0.1994
24043W        W39174   5.786   4.040   5.587  0.0919  0.0300  0.0928
24044W        W39175  13.231  16.110   3.222  0.0877 -0.1612 -0.2252
24045W        W39176  17.741  12.071   2.101 -0.0856 -0.0176  0.2187
24046W        W39177  17.089  17.204  16.227  0.2311 -0.0489  0.1946
24047W        W39178   6.337   4.405  14.440  0.0842  0.2140 -0.3776
24048W        W39179  14.266  17.590   3.502  0.0335  0.2083 -0.0308
24049W        W39180   8.179  12.778   1.847  0.2384  0.1207  0.1668
24050W        W39181   5.435   4.232   3.744  0.0950  0.0989  0.0033
24051W        W39182  12.736   4.657   1.071 -0.2295 -0.1620 -0.0554
24052W        W39183   4.006   2.200  15.035  0.0113  0.2624  0.0962
24053W        W39184   0.573   8.561  14.507 -0.3278  0.0440  0.3803
24054W        W39185  13.538  16.011  11.144  0.3905 -0.1897  0.1029
24055W        W39186   0.756   4.399  13.074 -0.0268  0.0613  0.1009
24056W        W39187  10.327   7.054  16.006  0.1546  0.0962 -0.2197
24057W        W39188  11.382  16.479   1.492 -0.2622  0.2866  0.2263
24058W        W39189  17.415   0.903  14.173  0.0272  0.3216 -0.0417
24059W        W39190  14.950  11.546  13.630 -0.0860  0.1948  0.0211
24060W        W39191  17.578   2.282  12.133  0.1343  0.2589 -0.0808
24061W        W39192  10.042   0.118  10.553 -0.3371 -0.0118 -0.3013
24062W        W39193   4.678   8.889   2.607  0.3248 -0.0594  0.4743
24063W        W39194  14.559   2.897   0.530  0.0235  0.0875 -0.0973
24064W        W39195  12.192   5.698   5.013  0.0000 -0.0657  0.0395
24065W        W39196   3.063   0.720  10.967 -0.0223 -0.0263 -0.0099
24066W        W39197  10.879  16.841   2.873 -0.0039  0.2506 -0.0156
24067W        W39198  10.855  14.211   0.972 -0.2117 -0.0447 -0.1051
24068W        W39199  14.341   3.974  12.670 -0.0910 -0.1863  0.2334
24069W        W39200  17.556   2.805   4.643  0.0468 -0.3018  0.0817
24070W        W39201   1.830   1.893   1.903  0.1324 -0.2666 -0.0211
24071W        W39202   6.148  18.018  14.877 -0.2398  0.2013 -0.0157
24072W        W39203  17.211  12.346   4.831 -0.2481  0.0206 -0.1999
24073W        W39204   6.562   9.052   0.664 -0.0007  0.0476 -0.0436
24074W        W39205  10.475  17.021   3.526 -0.4216 -0.3436 -0.0982
24075W        W39206   1.134  14.686   1.007  0.1778 -0.1099 -0.0676
24076W        W39207  11.294   0.974  14.658 -0.1334 -0.1386  0.0742
24077W        W39208   8.582   9.810   4.786 -0.0727  0.1315 -0.2152
24078W        W39209   0.786  13.559  12.441  0.2657 -0.2149  0.0254
24079W        W39210  18.151   3.214   2.049  0.0647 -0.0083 -0.0885
24080W        W39211  11.026  16.095   1.017 -0.0945 -0.0012  0.1775
24081W        W39212   5.474  10.575  11.265  0.2423  0.0672  0.2521
24082W        W39213   1.983   0.002   2.434  0.0673 -0.1567 -0.0039
24083W        W39214  15.294  11.435   0.388  0.0833 -0.2937  0.0971
24084W        W39215  11.195  14.450  14.135 -0.3584 -0.0038  0.1425
24085W        W39216  12.194  11.979  15.646 -0.1285  0.2026 -0.0122
24086W        W39217  10.070   6.139   4.770 -0.0697  0.0161  0.0163
24087W        W39218  16.467   4.673   4.381  0.1192  0.0671 -0.3341
24088W        W39219  14.294   4.929  13.617 -0.0837 -0.2818 -0.1160
24089W        W39220  13.011  17.293  12.785  0.3004 -0.0035 -0.0650
24090W        W39221  12.639   1.013  16.121  0.7999 -0.0262  0.0463
24091W        W39222   9.386   5.149  14.598  0.1538  0.0368  0.0575
24092W        W39223   5.273  17.099   2.467 -0.0039 -0.0734 -0.0045
24093W        W39224  10.891   2.887  15.001  0.0834 -0.1391 -0.0319
24094W        W39225   5.363   3.106   1.390 -0.0082  0.2900  0.3659
24095W        W39226   5.653  13.502  10.105  0.1102  0.2760 -0.1182
24096W        W39227   4.937   0.080   4.173  0.0179  0.3163  0.2543
24097W        W39228  14.819   0.394  12.170  0.2443  0.4544  0.0983
24098W        W39229  11.906   3.563  13.772 -0.2912 -0.2665  0.1685
24099W        W39230  10.024   1.672  12.295 -0.0094  0.1823  0.1523
24100W        W39231  17.632   8.850   0.863 -0.0862  0.0023 -0.0633
24101W        W39232  10.967  15.098   5.034  0.3761  0.0177  0.5302
24102W        W39233  14.651  16.877  12.185  0.0197 -0.1462  0.2143
24103W        W39234   0.309   9.626  12.883 -0.3032 -0.2705 -0.2603
24104W        W39235   6.831   5.338   3.902  0.2153  0.0174 -0.1181
24105W        W39236   6.937  14.278  13.796 -0.0878  0.2192 -0.0351
24106W        W39237  16.305   2.591   1.688 -0.1386  0.2254 -0.1363
24107W        W39238  15.466   9.721  12.124 -0.1379  0.1972 -0.2211
24108W        W39239   7.619   3.065  14.652  0.0259  0.2258  0.0791
24109W        W39240  17.990  10.123   2.884 -0.1131  0.0867  0.1384
24110W        W39241  14.991  10.816   4.462 -0.2879  0.1901 -0.2972
24111W        W39242   2.875   4.476   6.287  0.0248 -0.1426  0.0756
24112W        W39243   4.432  11.165  10.231  0.0765 -0.0097  0.2101
24113W        W39244   7.929   4.325  15.977 -0.1259 -0.0718  0.3044
24114W        W39245  12.763   7.807  15.393 -0.3643 -0.0239 -0.1814
24115W        W39246   2.559  11.947   2.582 -0.4007 -0.0041 -0.1681
24116W        W39247  14.208  16.024   2.194  0.2738  0.0630 -0.3975
24117W        W39248  17.113  11.005  14.162  0.2228 -0.0265 -0.1642
24118W        W39249   6.556   3.713  14.010 -0.1312 -0.0935  0.0594
24119W        W39250  13.492  13.871  10.709 -0.2055  0.2772 -0.0550
24120W        W39251   0.061  12.616   1.534  0.1656 -0.2101  0.3153
24121W        W39252   1.128  10.243   1.981  0.1425 -0.1184  0.1448
24122W        W39253   5.804  17.963   2.280 -0.0096 -0.4006  0.0181
24123W        W39254   9.657  13.847  11.627  0.0097 -0.1186  0.0452
24124W        W39255   6.508  11.702   4.378 -0.2472 -0.2765 -0.0068
24125W        W39256  11.826   7.722  12.840 -0.4294 -0.1309  0.0189
24126W        W39257   9.383  10.839   1.415 -0.2794  0.1212 -0.0686
24127W        W39258  10.561   6.570  11.931 -0.2204  0.1107 -0.0031
24128W        W39259   3.827   3.836   3.251  0.0366  0.0342  0.0309
24129W        W39260  16.056  12.593   4.508  0.0767  0.1407 -0.1886
24130W        W39261  17.076   9.057  11.861 -0.3485  0.3316 -0.0624
24131W        W39262   2.975   9.732  12.637  0.0616  0.0959  0.1800
24132W        W39263  11.875   9.592   2.340  0.2473  0.0878 -0.0496
24133W        W39264   6.067  11.714  11.136 -0.0356  0.3607  0.0329
24134W        W39265  10.783  16.349  11.577  0.3772  0.3684  0.0803
24135W        W39266  16.452   7.627   4.470  0.1269  0.2259 -0.1650
24136W        W39267   2.161   4.351  14.474  0.0828  0.1403  0.2502
24137W        W39268   1.773   5.750   1.858  0.1094  0.3577  0.0738
24138W        W39269   4.894  17.182   3.516  0.1221  0.0761  0.0555
24139W        W39270  11.341  14.673   0.779 -0.1431  0.2267  0.0813
24140W        W39271   9.863  11.515  15.520 -0.2320 -0.4384 -0.2433
24141W        W39272  16.408  13.447   4.837 -0.0353  0.0274 -0.2871
24142W        W39273   5.379   7.746   3.268 -0.1236 -0.0251  0.1936
24143W        W39274   0.230   1.477  16.113 -0.1396 -0.3096 -0.4938
24144W        W39275   6.908  14.875  13.928  0.2527 -0.0188  0.2674
24145W        W39276  10.763   7.295  16.179 -0.0245  0.2323 -0.2117
24146W        W39277   9.951  15.743   3.213  0.2934 -0.0384  0.0113
24147W        W39278  13.052   5.090  15.705  0.2471 -0.1584  0.1312
24148W        W39279  14.481  13.292   4.991  0.4842 -0.1477  0.2629
24149W        W39280  10.043  17.233   4.375  0.2340  0.0064 -0.1032
24150W        W39281  15.387  10.383   4.553  0.0120 -0.0034  0.0450
24151W        W39282   2.062   3.546  14.958  0.3733 -0.0862  0.1454
24152W        W39283   8.993  15.346   5.884 -0.3339 -0.2374 -0.0122
24153W        W39284   9.915   2.407   2.232 -0.1630 -0.0557 -0.2060
24154W        W39285  10.421   9.985  12.482  0.1384 -0.1238 -0.0560
24155W        W39286   8.730   0.681   3.419  0.3784  0.1005  0.1569
24156W        W39287   0.452  14.625   1.852 -0.1203  0.0790 -0.2525
24157W        W39288   4.540  14.019   2.500  0.1417 -0.2580  0.0554
24158W        W39289   5.199  11.427  10.584  0.0019 -0.2019 -0.0330
24159W        W39290   0.086   5.625  10.312 -0.2152  0.3773  0.2848
24160W        W39291  14.302  16.996  11.265  0.3075 -0.1463 -0.0211
24161W        W39292   7.874  17.927   0.602 -0.0639  0.0689 -0.0164
24162W        W39293  13.922   4.955  14.755  0.1890 -0.3147  0.5244
24163W        W39294   9.183  15.216   1.462 -0.2430  0.0334  0.0768
24164W        W39295  12.570  13.309   0.570 -0.0679 -0.3505  0.0384
24165W        W39296  12.369   4.420   3.118  0.1731 -0.2405  0.2611
24166W        W39297  10.777   1.291  10.004  0.0455 -0.3118  0.1042
24167W        W39298  16.285   2.637  13.193  0.0567  0.1743 -0.1721
24168W        W39299  16.953   1.788   3.136  0.2137  0.1262  0.0238
24169W        W39300   3.026  14.683   0.040  0.0046 -0.3335  0.0768
24170W        W39301   6.421  13.132   1.207  0.0478 -0.1058  0.0368
24171W        W39302   4.168  10.982  16.204  0.4916  0.0522  0.2484
24172W        W39303   7.907  13.918  10.927 -0.2654 -0.0108  0.0197
24173W        W39304  12.941   0.367   3.434 -0.2405 -0.0737  0.0525
24174W        W39305   0.565  11.711   3.815 -0.1207 -0.0073 -0.0008
24175W        W39306   6.532  13.660  14.254 -0.0139  0.3574  0.1136
24176W        W39307   5.896   0.829   0.387 -0.0698 -0.1579 -0.4346
24177W        W39308   7.938  15.031  11.391  0.0246  0.3662  0.1854
24178W        W39309  12.856  11.092   0.939 -0.0503 -0.1940 -0.0384
24179W        W39310  14.945  17.096   3.082 -0.1444  0.2452 -0.1146
24180W        W39311   9.800  17.517  11.028  0.2388  0.1999  0.2500
24181W        W39312  10.709  14.582  14.851 -0.1608 -0.0218 -0.0238
24182W        W39313   8.562  12.550  15.179  0.1960 -0.0974 -0.2267
24183W        W39314   0.437   9.828   0.023 -0.2154  0.1692 -0.0479
24184W        W39315   0.232  16.466  13.324  0.1740 -0.0047  0.0711
24185W        W39316   3.346   5.019   0.124  0.3714 -0.0004  0.0045
24186W        W39317  12.651   1.967   4.525 -0.2588 -0.0474  0.0110
24187W        W39318  17.387  11.653   4.465 -0.2954  0.1025 -0.2617
24188W        W39319  15.904  14.297   0.715  0.0814 -0.1494 -0.1638
24189W        W39320  11.953   1.154  11.642 -0.0782  0.0757  0.0314
24190W        W39321  13.300   0.188   4.650  0.0861  0.0475  0.3424
24191W        W39322   0.558  10.878  11.170  0.1691 -0.0270  0.0800
24192W        W39323   5.838  11.481  12.228 -0.2308  0.0458  0.0794
24193W        W39324   0.971  14.575   2.185  0.1877 -0.2035  0.2499
24194W        W39325  17.515  17.526  10.553  0.3520  0.0248 -0.1995
24195W        W39326  18.144  17.247   1.594  0.0082 -0.2911  0.2383
24196W        W39327  14.611   4.531  11.770 -0.1171  0.1135 -0.0297
24197W        W39328  17.856   4.068   0.975  0.0655 -0.2942  0.3902
24198W        W39329  13.299  14.025   4.867 -0.1157 -0.0695 -0.0790
24199W        W39330  14.355  12.612  14.210  0.1882 -0.0011 -0.1086
24200W        W39331   3.275   6.397   2.505  0.0840  0.0770  0.2249
24201W        W39332  12.056   3.486   2.990  0.2905  0.0104  0.0941
24202W        W39333  11.128   2.177  11.362 -0.2205  0.0863  0.0968
24203W        W39334   5.491   4.777  13.925  0.1030 -0.2996  0.0152
24204W        W39335  15.366   8.083   2.282  0.0028  0.0105 -0.1906
24205W        W39336   3.833  11.367  15.467  0.0425  0.1403 -0.4531
24206W        W39337  10.529  14.591   4.423 -0.0134 -0.2212  0.1027
24207W        W39338  11.611  10.289   0.732  0.1966 -0.1692 -0.0890
24208W        W39339   3.896   6.732  12.697 -0.3334  0.2354 -0.0832
24209W        W39340   7.092   8.801  14.367 -0.1582  0.1559 -0.1750
24210W        W39341   0.092  11.893  15.623  0.1720 -0.0697  0.3633
24211W        W39342  16.554   5.230  13.362 -0.0521  0.2459 -0.0274
24212W        W39343  15.105  16.385   1.376 -0.1158 -0.0209  0.2120
24213W        W39344   5.407  10.001  11.071 -0.1712  0.1824 -0.3172
24214W        W39345  15.125  11.398  15.009 -0.1826 -0.0107  0.1174
24215W        W39346   3.380   4.774   5.300  0.0942 -0.0539 -0.1539
24216W        W39347  11.930   8.343  13.469 -0.3276 -0.1924 -0.1074
24217W        W39348   7.151   4.589   3.439 -0.1739 -0.0191 -0.0788
24218W        W39349  10.381   5.375  11.764 -0.1188 -0.2494 -0.5005
24219W        W39350   8.800   1.117   3.687  0.0781 -0.0554 -0.0406
24220W        W39351   9.297   2.365   4.259  0.1271  0.3478 -0.2544
24221W        W39352   9.995  11.002   0.831  0.1200  0.0110  0.0665
24222W        W39353   7.076   9.529  11.417  0.0968  0.1831 -0.0186
24223W        W39354  16.038  11.695  16.190  0.1738 -0.0040  0.1463
24224W        W39355  10.817   1.508   3.676  0.0414 -0.0741 -0.1076
24225W        W39356  13.891   9.440  14.596 -0.1678  0.0413 -0.3386
24226W        W39357  12.504   3.850   0.070  0.3205  0.0511  0.3495
24227W        W39358  12.604  11.395   4.851  0.3382  0.1155  0.1590
24228W        W39359   7.375   5.959   3.587  0.0197  0.0404  0.0047
24229W        W39360  17.357  11.034   3.056  0.0999 -0.1386  0.0973
24230W        W39361   6.238  16.251   1.852 -0.2370 -0.2885 -0.1504
24231W        W39362  17.750  11.854  14.435 -0.0801 -0.1677 -0.0147
24232W        W39363   1.665   1.043   0.913 -0.2896  0.1703 -0.0489
24233W        W39364   8.708   6.666  13.142 -0.1592  0.0178 -0.1535
24234W        W39365   1.805   0.272   3.560  0.0525  0.1654 -0.2157
24235W        W39366   6.339  18.092  15.484  0.2280 -0.1548  0.0395
24236W        W39367   9.461  13.509   2.018  0.0790  0.2163  0.0125
24237W        W39368  16.053  11.335  15.862 -0.0075  0.0182 -0.1231
24238W        W39369   1.276  16.926  14.577  0.2068 -0.0122 -0.1234
24239W        W39370   6.309   7.433  12.459  0.0398 -0.0896  0.0398
24240W        W39371   4.375   4.925   3.580  0.2306 -0.0512 -0.0503
24241W        W39372   2.324   0.856   3.170  0.0677  0.0183 -0.2133
24242W        W39373  14.497   3.460   2.131  0.0761  0.0372 -0.1765
24243W        W39374  16.641   3.899   4.658 -0.2938  0.1470  0.2415
24244W        W39375  16.179  13.118  13.395 -0.0905  0.2062  0.0896
24245W        W39376   8.501   9.860  10.876 -0.3240 -0.0683 -0.1622
24246W        W39377   0.814   2.818  15.581 -0.1962 -0.1622 -0.1235
24247W        W39378  17.753   8.842  12.768  0.0042  0.0149  0.0623
24248W        W39379   0.174   3.986   4.696  0.1078  0.2181 -0.0183
24249W        W39380  13.765   4.171   5.525 -0.1887 -0.0436 -0.0789
24250W        W39381  14.479  17.797   1.850 -0.0267 -0.1256  0.3024
24251W        W39382   0.643   3.026  12.091 -0.1965 -0.1591 -0.0908
24252W        W39383   3.050   4.904  13.634  0.1335 -0.1612 -0.1081
24253W        W39384  10.932   8.044   4.993 -0.2848  0.0254 -0.0291
24254W        W39385   0.663  15.860   0.073  0.0357  0.3630 -0.4085
24255W        W39386   9.226  17.510   3.021  0.2372 -0.0877 -0.0542
24256W        W39387   1.369  17.072  13.153  0.0828 -0.1515  0.0382
24257W        W39388   3.829  17.503  11.424  0.0359 -0.0278 -0.0687
24258W        W39389   8.734   4.074  11.643  0.1297  0.1455  0.0109
24259W        W39390   5.943   6.179  11.040  0.0472 -0.1555 -0.0120
24260W        W39391  17.167   6.811  12.895 -0.2057 -0.1805  0.0534
24261W        W39392  17.565  15.723   4.488  0.1422  0.0166  0.1267
24262W        W39393   0.912   4.828   3.163  0.0511 -0.2459  0.0837
24263W        W39394   4.729   8.740   3.112 -0.3019 -0.0793  0.3114
24264W        W39395   8.125   7.487  16.103 -0.0838  0.2592 -0.0778
24265W        W39396  12.260  16.291  10.867 -0.1645  0.1410  0.0158
24266W        W39397   4.214   5.860   3.127  0.0300 -0.0345 -0.1466
24267W        W39398  12.622  10.552  14.884 -0.0429  0.4117 -0.0682
24268W        W39399  17.438   2.579   0.873  0.2190  0.0273  0.0721
24269W        W39400   1.556  15.748  14.220  0.0804 -0.2186 -0.2339
24270W        W39401  17.695  13.392  13.737  0.2402 -0.2603 -0.1063
24271W        W39402  14.980   7.404  12.111  0.1209 -0.0724  0.0534
24272W        W39403   4.309  14.699  16.180  0.0361 -0.1242 -0.4600
24273W        W39404  16.495  17.213  12.791 -0.0645 -0.0080 -0.1230
24274W        W39405   8.257   9.544  12.272  0.3125  0.1988 -0.0770
24275W        W39406   7.876   7.695   4.751  0.2213  0.2726 -0.0930
24276W        W39407   8.258  17.102  15.019  0.0370  0.0896  0.0654
24277W        W39408   8.703   1.903  13.696  0.1503 -0.1843 -0.0745
24278W        W39409  13.602   7.746   0.604  0.1602 -0.0376  0.1562
24279W        W39410   8.156  12.848  12.908 -0.1991  0.3446 -0.1672
24280W        W39411   7.049  16.968  11.991  0.1692 -0.0799 -0.0241
24281W        W39412   7.195   6.389   0.137 -0.0177 -0.0800 -0.0768
24282W        W39413   4.801   7.912   9.813 -0.0270  0.4385 -0.0947
24283W        W39414  12.059   0.043   1.816  0.2449  0.0863  0.0198
24284W        W39415   6.131  11.009  10.281 -0.1366 -0.1310  0.2753
24285W        W39416   1.612   0.418  12.591  0.1172  0.0027 -0.2776
24286W        W39417   8.141  16.266  11.504  0.4397  0.2478  0.2296
24287W        W39418  12.538  16.347   4.712  0.0635 -0.1152 -0.2018
24288W        W39419   5.031   1.626   3.549  0.2616 -0.0308  0.1590
24289W        W39420  15.579   0.837   5.794 -0.1203  0.0701  0.3256
24290W        W39421   0.610   2.992   4.057  0.2280 -0.0913 -0.0184
24291W        W39422  14.477   9.583  11.943  0.3090  0.1580 -0.2578
24292W        W39423   2.303   0.278   3.393  0.3613  0.3954  0.4076
24293W        W39424   6.754   6.757  15.912  0.1163  0.0872  0.1275
24294W        W39425   4.195   3.695   0.211 -0.2238  0.0993  0.0910
24295W        W39426   7.511  14.472   5.358 -0.0297  0.0422 -0.3660
24296W        W39427  12.620  17.212  13.111 -0.1611  0.1615  0.0154
24297W        W39428  11.828  14.161   4.934  0.0314 -0.1228 -0.1384
24298W        W39429   3.877   8.801  15.990  0.0047 -0.3719  0.1470
24299W        W39430  12.809   1.625  11.326 -0.1410 -0.1952 -0.0689
24300W        W39431   1.996  17.329   5.097  0.1717 -0.0992 -0.0631
24301W        W39432   5.955   3.736   1.197  0.3718  0.1651  0.1292
24302W        W39433  11.392  17.307  12.519  0.1230  0.0238  0.2233
24303W        W39434   2.722  17.287   1.636  0.1755  0.2309 -0.4098
24304W        W39435  12.059  14.943   2.897  0.3129 -0.0696  0.0904
24305W        W39436   3.966   6.838  14.877 -0.2838 -0.1729  0.0055
24306W        W39437   6.118   5.745  12.364 -0.1747  0.3136 -0.1057
24307W        W39438   9.394  11.939   5.299  0.1753 -0.0714 -0.0532
24308W        W39439  17.023  15.026   5.491 -0.1425  0.1052 -0.0056
24309W        W39440  16.785   3.543   5.059  0.0901 -0.2559  0.0547
24310W        W39441  14.470   6.497   5.358 -0.1667  0.1551  0.1751
24311W        W39442  13.391   7.153   2.185  0.1754 -0.2102 -0.2327
24312W        W39443   8.717   8.581   0.367 -0.1263  0.1144 -0.1105
24313W        W39444   2.686   1.702   5.248 -0.0391  0.0464 -0.2643
24314W        W39445   6.187   6.501  14.211  0.3334 -0.1898 -0.2711
24315W        W39446  10.691  10.632   1.967 -0.3485 -0.0872 -0.1144
24316W        W39447   7.883  11.990  10.899  0.1033 -0.1552 -0.1679
24317W        W39448  17.079   6.434   3.405  0.0033 -0.2445 -0.0624
24318W        W39449  11.107   3.917   1.514 -0.0451  0.0478 -0.1879
24319W        W39450  11.972  10.382  15.516 -0.1296 -0.0916 -0.1602
24320W        W39451   6.059   8.904   0.019  0.1366  0.0938  0.2195
24321W        W39452   0.046  15.168  13.289  0.0005  0.1366 -0.2394
24322W        W39453  13.895  16.443   2.194  0.1062  0.1898  0.2260
24323W        W39454  10.922   1.088   0.161  0.2306  0.1366  0.3166
24324W        W39455   3.420   6.338  10.857  0.0143  0.1377 -0.3100
24325W        W39456   8.722  17.514  10.411 -0.0682 -0.1493 -0.1441
24326W        W39457  17.643   0.119  13.906  0.0914  0.0304  0.1625
24327W        W39458  14.574  10.912   2.384 -0.0559  0.1175 -0.2025
24328W        W39459  11.478  16.046   2.398  0.2323  0.1717  0.0993
24329W        W39460   1.965  14.347  12.974 -0.1325 -0.2046  0.1071
24330W        W39461  16.552  12.355   4.640  0.1544  0.3372 -0.1631
24331W        W39462   3.916  16.752   4.423 -0.1367 -0.2754  0.1965
24332W        W39463   0.695   9.346  16.225 -0.0082 -0.1387  0.1781
24333W        W39464  15.626  16.075   0.291 -0.2588 -0.0164 -0.1450
24334W        W39465   7.585  13.507  11.026 -0.2142  0.2861  0.0948
24335W        W39466  11.602   9.938   1.381  0.1384  0.0503  0.2773
24336W        W39467   0.748   9.826   0.692  0.2877  0.1926 -0.0664
24337W        W39468   1.777   4.280   5.552  0.0012 -0.3992  0.1967
24338W        W39469   4.725  11.143  14.990  0.1564 -0.0529 -0.2169
24339W        W39470   0.775  13.486   3.345 -0.1060 -0.0440  0.0520
24340W        W39471   6.901  17.579  11.766 -0.2016  0.0416  0.0555
24341W        W39472   6.934  13.032   1.865 -0.3551 -0.0791  0.4294
24342W        W39473   3.974   6.941   3.302  0.0893  0.0671  0.0962
24343W        W39474   6.794   4.777   3.103 -0.0424  0.1598 -0.1282
24344W        W39475  14.002   9.544  15.941 -0.0085  0.4328  0.1805
24345W        W39476  14.330   5.142  15.769  0.0690  0.3918 -0.2306
24346W        W39477   0.651   6.888   6.142 -0.2097 -0.0007 -0.1402
24347W        W39478  10.501  16.489   1.994 -0.0599  0.0569  0.0790
24348W        W39479   6.331   3.655  14.919  0.0671  0.1010 -0.0704
24349W        W39480  13.500   7.751  13.614  0.1236 -0.2107 -0.2747
24350W        W39481   1.837   8.618   3.098  0.1251 -0.0740 -0.0000
24351W        W39482   2.621   4.483  11.812  0.0322  0.4832 -0.2493
24352W        W39483   5.089   0.729   1.978 -0.0632 -0.0749  0.0293
24353W        W39484   3.723  13.535   4.028  0.1766  0.1856 -0.1060
24354W        W39485  10.600  16.882  13.910  0.2107  0.1382 -0.1169
24355W        W39486  12.925   0.007  15.477  0.0770 -0.1878  0.2513
24356W        W39487  11.264  13.629  15.994 -0.1324  0.0250  0.1064
24357W        W39488   8.521   4.826  11.168  0.2284 -0.1032  0.1583
24358W        W39489   9.652  10.011   3.098  0.3318 -0.0780 -0.1105
24359W        W39490  16.887   3.306   5.832 -0.1432 -0.2860 -0.1533
24360W        W39491   8.301  16.859  13.437  0.2861 -0.0601 -0.0301
24361W        W39492  12.408   4.028  11.115  0.1376  0.1251  0.2448
24362W        W39493  12.335   9.436  12.555  0.0389  0.1549  0.0624
24363W        W39494   7.689  17.916  14.974 -0.2154 -0.1247 -0.2074
24364W        W39495  10.211   5.427   2.190 -0.2530 -0.1172 -0.1149
24365W        W39496  17.032  13.250   4.910 -0.4423  0.0127 -0.0846
24366W        W39497  12.171   6.208   3.650 -0.2368 -0.0213  0.1157
24367W        W39498   0.587  12.987   0.129 -0.0842  0.1513 -0.2520
24368W        W39499  14.069   9.480  11.405 -0.0612  0.3356 -0.3524
24369W        W39500   3.937  10.488   1.371 -0.3718 -0.0045 -0.2376
24370W        W39501   1.784  10.250  13.426 -0.0811 -0.3606  0.0837
24371W        W39502  11.661  12.281   5.114  0.1560 -0.1214 -0.1967
24372W        W39503   0.091   2.411   2.679 -0.0265  0.3319  0.0031
24373W        W39504   9.471  14.535  12.982 -0.1201 -0.0993 -0.0871
24374W        W39505  13.611  16.391   0.828  0.0562 -0.0888 -0.2760
24375W        W39506  15.679   0.527   0.706 -0.1712  0.2697  0.1640
24376W        W39507  10.022   2.480  15.694 -0.2928 -0.0974  0.0840
24377W        W39508  15.127  11.927  13.889  0.1458  0.0001  0.0008
24378W        W39509  17.066   6.547   5.540  0.0407  0.0987  0.0808
24379W        W39510  14.692  11.461   4.958  0.0009 -0.1812  0.1651
24380W        W39511   4.975  17.595  13.551  0.0616 -0.2335  0.1031
24381W        W39512  12.387  11.191   0.668 -0.0749 -0.0487 -0.0545
24382W        W39513   7.644   7.596  11.289  0.0281  0.0322 -0.4165
24383W        W39514   3.117   6.295  15.242  0.1264 -0.2844 -0.1397
24384W        W39515   9.757  10.718  14.418  0.1329 -0.0599  0.0792
24385W        W39516   2.020   2.793  13.159  0.1957 -0.0702  0.3570
24386W        W39517   8.432   0.306  12.853  0.0777 -0.1180  0.1229
24387W        W39518   1.773   0.782  11.544  0.0704 -0.0745 -0.2034
24388W        W39519   6.779   1.648   2.787 -0.1618  0.0991  0.0148
24389W        W39520  15.923  13.449   0.781 -0.5079  0.0736  0.2232
24390W        W39521   7.583   5.102  10.759  0.0369 -0.1984  0.1367
24391W        W39522  13.667   6.658  16.089  0.2344 -0.1821  0.2019
24392W        W39523   0.756  13.848   1.529 -0.0545  0.4935 -0.0389
24393W        W39524   5.897   3.371  14.983  0.1779 -0.0305 -0.0959
24394W        W39525  17.087  17.540  15.429 -0.1277 -0.0624 -0.0710
24395W        W39526   0.256   4.552   0.392  0.2605 -0.0001 -0.1191
24396W        W39527  15.759   3.598   3.052 -0.1064 -0.1840 -0.4235
24397W        W39528  17.048  17.571   0.765  0.2272  0.0300 -0.0743
24398W        W39529  10.138   2.233  14.341 -0.0603  0.1214 -0.2986
24399W        W39530   3.831   0.140   3.811  0.0555 -0.2127 -0.3418
24400W        W39531  11.525   6.095   0.021 -0.2398 -0.0609 -0.1660
24401W        W39532   3.794   1.742   2.494  0.1308  0.3015 -0.0101
24402W        W39533   4.216   4.142  15.962 -0.2667  0.2813 -0.1213
24403W        W39534   3.525   2.578   0.646 -0.0533 -0.0895 -0.1899
24404W        W39535  11.682  17.891   4.215 -0.0282  0.4754 -0.0974
24405W        W39536   1.182  13.046   2.421  0.2240 -0.5020 -0.3052
24406W        W39537   2.625   5.401  11.065 -0.0391 -0.0748  0.0675
24407W        W39538  17.670   3.773  11.477  0.1420 -0.1312 -0.0599
24408W        W39539  15.786  13.976   3.696  0.2058  0.0289 -0.1539
24409W        W39540  15.699  16.854   2.540 -0.3150  0.1192  0.0200
24410W        W39541  14.499   6.427   0.084  0.2163  0.2151 -0.2895
24411W        W39542   4.347  15.735  15.649  0.0820 -0.0002 -0.0970
24412W        W39543  13.887  14.343  14.562  0.4577  0.0689 -0.0281
24413W        W39544   0.547  12.925  11.870 -0.1897 -0.0761  0.0609
24414W        W39545  14.965   0.211  11.259  0.0637  0.3100  0.0979
24415W        W39546  12.660  14.000   6.145  0.2559  0.3684 -0.1424
24416W        W39547   6.416   0.013   3.965 -0.4111 -0.0591  0.1116
24417W        W39548   4.316   2.204  11.526  0.1286  0.1925  0.0209
24418W        W39549   1.365   0.599   0.854 -0.0309  0.0725  0.2678
24419W        W39550   7.866   8.179   2.800  0.3398  0.5500  0.0954
24420W        W39551   7.465  15.924   2.216  0.2040 -0.1225  0.0784
24421W        W39552  17.657   4.720   6.301 -0.4625 -0.1384  0.0416
24422W        W39553   6.159   1.246   5.493 -0.1792  0.3331 -0.0721
24423W        W39554  16.813  14.536  11.983  0.3002 -0.0270  0.0614
24424W        W39555   0.611   9.535   9.623  0.0995 -0.0878  0.2294
24425W        W39556  12.667  17.865  15.251 -0.1646 -0.0430  0.1817
24426W        W39557  16.092   5.271  14.931 -0.1161  0.0282  0.0206
24427W        W39558   3.671  14.136   3.554 -0.1074  0.0475  0.1299
24428W        W39559  18.017   0.716  12.324  0.0436 -0.0208  0.3173
24429W        W39560  11.485  15.454   2.225  0.0250  0.0582 -0.2126
24430W        W39561   2.102  15.222   0.952  0.0098 -0.3435  0.1628
24431W        W39562   3.063   5.089   0.577 -0.0114 -0.2611  0.0900
24432W        W39563  17.658  11.143  12.090 -0.4320  0.0128 -0.1231
24433W        W39564   8.461  14.334  10.304  0.1024 -0.3654 -0.0839
24434W        W39565  14.911   4.208   2.134 -0.0620  0.1055  0.1116
24435W        W39566  13.622  15.995  16.232  0.3737  0.1486  0.1798
24436W        W39567  16.379   1.310  14.347 -0.1336 -0.0546 -0.2571
24437W        W39568  12.273  14.606  12.078 -0.0664  0.1158  0.2294
24438W        W39569   0.295   5.237   5.197  0.1801 -0.1850  0.1100
24439W        W39570   0.549   7.134  12.983  0.1114 -0.0047 -0.2217
24440W        W39571   9.353  12.438  12.164  0.3882  0.0865  0.0103
24441W        W39572   9.241   0.199  10.288  0.0574 -0.1063 -0.0245
24442W        W39573  15.881   3.978   4.883 -0.0498  0.0420 -0.0411
24443W        W39574   6.422  17.683   3.010 -0.2185  0.0345  0.1753
24444W        W39575  13.921  13.621  10.779  0.1338 -0.1794 -0.2724
24445W        W39576   2.734  16.949   2.485 -0.0823  0.0650 -0.0372
24446W        W39577  12.839  14.357  16.068 -0.1240  0.1022 -0.1268
24447W        W39578  15.195  10.103   2.639  0.2638  0.0243  0.0820
24448W        W39579   9.440   5.858  15.082 -0.2716 -0.0676  0.0025
24449W        W39580  16.887  16.816   2.840 -0.0770 -0.1937  0.1422
24450W        W39581  17.815  10.605   1.805  0.1816  0.0415  0.3100
24451W        W39582   3.541  14.095  15.682  0.1257  0.0862  0.0907
24452W        W39583  15.579  10.147   3.932 -0.0312  0.2215 -0.2470
24453W        W39584   3.588   6.490   4.893 -0.0701  0.1214 -0.0784
24454W        W39585   2.304   8.051  10.934  0.0080 -0.1014  0.2888
24455W        W39586  16.022  13.809   5.325 -0.2576  0.2217 -0.1687
24456W        W39587  16.358   7.991   2.243 -0.3813  0.2103 -0.0930
24457W        W39588   3.753   4.897  10.593 -0.2217  0.1954  0.4296
24458W        W39589   4.607   3.469  12.536  0.2148  0.0229  0.1001
24459W        W39590  18.031   0.142   2.615 -0.4214 -0.1639 -0.1526
24460W        W39591   2.754   9.598  13.054 -0.1532  0.2959  0.2674
24461W        W39592   1.769  14.723   4.872  0.1077 -0.0612 -0.0919
24462W        W39593  17.305   3.159   1.587 -0.0419  0.0796 -0.0680
24463W        W39594  10.588  17.960   4.652 -0.0453  0.0172 -0.1245
24464W        W39595   3.791  13.294  14.785 -0.1513 -0.2005  0.0413
24465W        W39596  11.689  10.587   2.167  0.1110 -0.0107  0.4119
24466W        W39597  16.148   9.202  15.261  0.3127  0.3384  0.2534
24467W        W39598   7.468   8.305   3.348  0.0082  0.1168  0.2014
24468W        W39599  13.439   2.434   3.396  0.2799 -0.0619 -0.0479
24469W        W39600   7.065   0.936  14.906  0.2178  0.3580 -0.5456
24470W        W39601   7.812  16.078  12.580 -0.1837  0.1315 -0.1196
24471W        W39602   9.684   3.216   0.487  0.0531  0.0372  0.1122
24472W        W39603   5.203   3.846  11.305  0.0127  0.1883  0.2834
24473W        W39604  17.153  10.493   4.839  0.1522  0.0683  0.0201
24474W        W39605   6.580   6.228   2.883 -0.1612  0.1837 -0.1821
24475W        W39606  16.657   5.183   2.634  0.1284  0.1463  0.0429
24476W        W39607  16.222  17.675  15.022  0.0224  0.1138 -0.1058
24477W        W39608   6.352   1.424   2.692 -0.0650  0.2080  0.0201
24478W        W39609   5.480  17.950   2.669 -0.2822 -0.2514 -0.0508
24479W        W39610  15.159   4.589   3.989 -0.1747 -0.0345  0.0304
24480W        W39611  17.971  14.717  10.796 -0.1551  0.1348 -0.0283
24481W        W39612  10.956  17.245  13.994 -0.2450 -0.0066 -0.0055
24482W        W39613   8.592   3.772   1.169  0.5556 -0.0714 -0.0369
24483W        W39614   9.187  13.709  12.595  0.3494  0.0824  0.0612
24484W        W39615  14.631   3.369   5.436 -0.2043  0.1705 -0.1419
24485W        W39616  17.438   7.567  13.498 -0.1843 -0.0897  0.2695
24486W        W39617   2.171  15.169   2.417  0.1853 -0.0834  0.2300
24487W        W39618   6.835   0.527   0.398 -0.0654  0.0169 -0.2904
24488W        W39619  17.804  14.731   5.749 -0.1503  0.1885  0.3030
24489W        W39620   8.612   8.878  15.766 -0.0752  0.0054  0.0660
24490W        W39621   3.741  15.442   3.254 -0.1552 -0.4728  0.1064
24491W        W39622   6.065   7.499   0.711  0.2845 -0.0448 -0.0655
24492W        W39623   2.518  12.149   5.061  0.0863 -0.2304  0.0341
24493W        W39624   9.364  13.935  14.026 -0.0570  0.0826  0.1614
24494W        W39625   8.643   0.499  15.660 -0.1554  0.2945 -0.0944
24495W        W39626   4.299   8.519  15.663  0.1416  0.2236 -0.0305
24496W        W39627   2.368  16.424   5.956 -0.1101 -0.1279  0.0663
24497W        W39628  15.903  12.922  10.593 -0.0784 -0.1764 -0.0464
24498W        W39629   9.116  11.955   4.581  0.1179  0.1942  0.3324
24499W        W39630   8.120  13.467   0.601  0.1434 -0.2345 -0.2348
24500W        W39631   2.299  13.710   5.605  0.0203 -0.0693 -0.4925
24501W        W39632   9.088  13.208  12.423  0.0073 -0.1956 -0.1216
24502W        W39633  15.948   4.533   1.744  0.1819  0.1605  0.1563
24503W        W39634   4.550   6.160   4.551 -0.2526  0.0198  0.1197
24504W        W39635  13.424   0.569  12.536 -0.2263 -0.1594  0.1739
24505W        W39636  16.856   9.762   1.621 -0.0020 -0.3797 -0.0909
24506W        W39637  17.252  15.009   2.990 -0.0474 -0.0860 -0.1212
24507W        W39638  10.194  15.669  11.256  0.3730 -0.1168 -0.0333
24508W        W39639  13.078   8.860   0.848  0.1059 -0.0419  0.1929
24509W        W39640   9.275   8.784   1.832 -0.0588 -0.0692 -0.2588
24510W        W39641   2.577   3.924  14.794  0.0381 -0.3810  0.0841
24511W        W39642   2.536   7.000  15.451  0.1153  0.2065 -0.3606
24512W        W39643   3.873   4.699   3.559 -0.0120 -0.3668 -0.0607
24513W        W39644   0.520  17.249   2.813  0.0050  0.4108  0.0024
24514W        W39645   6.098  14.901  14.694 -0.3908 -0.2182  0.2981
24515W        W39646  14.943   3.694  12.007 -0.2158  0.0350 -0.0814
24516W        W39647   7.482   7.813   3.683  0.0574 -0.1740  0.2613
24517W        W39648   1.252  12.444   1.519 -0.0856  0.1240  0.1106
24518W        W39649  18.088  15.353   0.424  0.0016 -0.0023  0.3065
24519W        W39650   5.207  14.225  11.258 -0.2401  0.0963  0.0901
24520W        W39651  15.202  16.893   2.382  0.3233 -0.2257  0.1469
24521W        W39652   3.457  11.121   4.986 -0.2243 -0.0083 -0.0289
24522W        W39653  13.462  17.573   0.073 -0.2403 -0.1627 -0.0113
24523W        W39654  10.518   8.087  13.484  0.1047  0.0733  0.0564
24524W        W39655   3.632  13.373  15.883  0.1533  0.1587 -0.0122
24525W        W39656   2.461   4.892  15.194 -0.0548  0.3467  0.0061
24526W        W39657   0.313   9.021   5.097 -0.0314  0.1191 -0.0074
24527W        W39658   1.305  16.184   3.306  0.0683  0.1655  0.0089
24528W        W39659   2.970   4.455   2.913  0.1921  0.2794 -0.0491
24529W        W39660  13.364   3.355  16.212 -0.0784  0.3063 -0.0659
24530W        W39661  13.720  11.492   3.931  0.1354  0.0200 -0.0799
24531W        W39662   2.617  10.947   5.207  0.0459 -0.0343  0.1824
24532W        W39663   6.177   5.691   3.750  0.1358  0.2346 -0.2156
24533W        W39664   4.732   8.074   5.970  0.0792 -0.4094 -0.2576
24534W        W39665   8.006   6.645   0.899 -0.3030  0.2483 -0.2927
24535W        W39666  15.307  11.793   3.833  0.0722 -0.2480  0.3563
24536W        W39667   4.601   0.817  10.636 -0.2762 -0.0021  0.0290
24537W        W39668   6.416   6.323  15.218 -0.0197  0.2522 -0.3338
24538W        W39669   6.366  12.192  12.798 -0.0329 -0.1345 -0.2321
24539W        W39670  10.072   6.002   3.428 -0.2818 -0.0411 -0.2751
24540W        W39671   4.325  17.607   4.734  0.0832  0.1797 -0.0399
24541W        W39672   7.994   5.935  12.784  0.2956  0.3000 -0.1859
24542W        W39673  15.244   2.920   0.540  0.2661  0.2557 -0.2961
24543W        W39674  12.538  15.499  15.013  0.1209 -0.2374  0.0658
24544W        W39675   2.450   2.142   2.740 -0.2618 -0.1909 -0.0004
24545W        W39676  12.703  16.910   2.025 -0.0227 -0.2394 -0.0522
24546W        W39677   4.234   0.876  10.960  0.0588 -0.1757 -0.0075
24547W        W39678   1.457   8.339   6.252 -0.2597  0.1146  0.4370
24548W        W39679   3.794   1.080  11.513  0.4707  0.1382 -0.4481
24549W        W39680  12.015  15.430   2.645 -0.0855  0.0714  0.2543
24550W        W39681   6.196   6.578   2.955  0.2892 -0.0353  0.0593
24551W        W39682  12.911   3.395   2.100  0.0832 -0.0724 -0.1033
24552W        W39683  10.712   7.496  14.525 -0.0787 -0.0688 -0.4653
24553W        W39684  16.253  15.705  14.466  0.0183  0.1185  0.1116
24554W        W39685   9.174   4.154   2.479  0.0760 -0.1740  0.0597
24555W        W39686   8.535  16.169  11.776 -0.0848 -0.3981  0.1246
24556W        W39687   1.928   1.016   3.976 -0.3057 -0.1667  0.1033
24557W        W39688  14.530   7.231   0.068 -0.0839  0.2692  0.0274
24558W        W39689   2.441   9.594   4.523 -0.0556 -0.3133  0.0486
24559W        W39690  12.734   3.992  15.745  0.5423  0.0997  0.2304
24560W        W39691   3.074  10.380  11.785 -0.1469 -0.3461  0.3994
24561W        W39692  10.191  17.421   2.271  0.1081 -0.4019 -0.2586
24562W        W39693   9.115  11.206   1.241 -0.2062  0.2788 -0.3731
24563W        W39694  13.046   4.490   0.717  0.2293  0.1302  0.1487
24564W        W39695   0.767  14.571   0.667 -0.1976  0.1499 -0.1062
24565W        W39696   1.149   2.843  12.290 -0.4523  0.2897 -0.1794
24566W        W39697  12.670   9.118  12.202  0.0786  0.2802 -0.2356
24567W        W39698   5.450   7.447  14.979 -0.2587 -0.1486 -0.2279
24568W        W39699   4.428   6.844  14.326 -0.3518  0.3188 -0.0568
24569W        W39700  11.108   7.547  12.259 -0.1373 -0.1058 -0.0129
24570W        W39701   4.532  16.702  11.756  0.0015  0.0801  0.2427
24571W        W39702  12.617  16.765  11.612 -0.0241  0.2270  0.2823
24572W        W39703  11.567  16.711   0.938 -0.0436 -0.2995  0.3262
24573W        W39704  10.025  10.069   4.373 -0.1532  0.4183 -0.1125
24574W        W39705  13.570   7.441  15.296 -0.1116 -0.4261 -0.0626
24575W        W39706   4.214  16.456   3.592  0.1509  0.0762 -0.2070
24576W        W39707  11.425  13.524   3.772  0.0639  0.0582  0.0913
24577W        W39708  15.883  13.489  13.841  0.1236  0.1179 -0.0770
24578W        W39709  10.535   9.383   0.679  0.0494  0.0579  0.0150
24579W        W39710   7.813   4.945   4.157 -0.0554  0.1266  0.2716
24580W        W39711  15.722   2.729   0.580 -0.2309  0.1541  0.2584
24581W        W39712   5.552  13.203   1.524  0.1291  0.0079  0.2163
24582W        W39713   1.191   2.235  11.845  0.0658  0.1163 -0.0774
24583W        W39714  15.484   1.483  12.117  0.0347 -0.0302 -0.0115
24584W        W39715  17.124   3.281  14.369 -0.2879 -0.0483  0.1309
24585W        W39716   1.036   8.853  15.512 -0.1676  0.0772 -0.0157
24586W        W39717   0.229   4.395  12.893 -0.0155  0.0561 -0.2423
24587W        W39718   8.084   3.874  11.786  0.1016 -0.1523 -0.2279
24588W        W39719   7.563   4.453   5.143  0.1190  0.4764  0.0434
24589W        W39720  17.364   3.122  15.392 -0.1026  0.0458 -0.1240
24590W        W39721  11.437   9.291  15.989  0.1155  0.0141 -0.1178
24591W        W39722   7.057   8.530   2.993  0.0431  0.3402  0.2344
24592W        W39723   7.096  11.722  10.624 -0.1408  0.0340 -0.2009
24593W        W39724   5.684   3.108  11.507 -0.1733 -0.0218  0.0703
24594W        W39725  12.671  15.247   0.873  0.0718  0.0402 -0.0914
24595W        W39726   8.367  13.642  14.164  0.0040 -0.0697 -0.0944
24596W        W39727   7.609   1.024  10.777 -0.1318  0.0286 -0.0647
24597W        W39728   1.958  15.386  14.178  0.1254 -0.2735  0.1820
24598W        W39729   8.169  17.310  12.024 -0.2164  0.0545 -0.3822
24599W        W39730   6.922   2.415   2.653  0.0388 -0.0544  0.0682
24600W        W39731  10.193   3.593  15.501  0.3744 -0.1509 -0.2362
24601W        W39732   5.519   4.146  16.121 -0.0833  0.1974 -0.1746
24602W        W39733   0.228  11.732   0.241  0.2217 -0.1701 -0.0858
24603W        W39734   6.318   8.434  14.361  0.2214 -0.0151  0.0711
24604W        W39735  12.837   2.825  14.705 -0.2632 -0.1383  0.0131
24605W        W39736   1.210   2.490  15.458  0.0600  0.0579  0.1092
24606W        W39737   7.907  10.648  13.549  0.4144  0.3315 -0.0557
24607W        W39738   6.751  15.374   4.429 -0.2392 -0.0265 -0.2864
24608W        W39739   3.628  11.619   4.830  0.3265  0.2092 -0.0234
24609W        W39740  11.419  14.904  11.103  0.1971  0.2569 -0.3833
24610W        W39741  15.972  10.161  13.630  0.0748  0.0588 -0.0371
24611W        W39742   6.724   2.151  15.943 -0.4378  0.0557  0.1517
24612W        W39743  17.162   5.998   0.167 -0.2318  0.0057  0.3907
24613W        W39744   8.089  13.545   1.199  0.0936  0.1273 -0.0532
24614W        W39745   7.275   3.507   2.676 -0.0639  0.0064  0.0701
24615W        W39746   5.816   2.854   1.425  0.0827 -0.2983  0.1890
24616W        W39747   1.484   3.250  16.214  0.0892 -0.1910  0.1667
24617W        W39748  11.569  16.810   2.750 -0.0369  0.2006 -0.1341
24618W        W39749   7.107  14.332  10.923 -0.1886  0.0948 -0.0699
24619W        W39750   5.302  10.324  12.685  0.1435  0.1289  0.0080
24620W        W39751   6.207  13.559   1.956  0.2211 -0.2691  0.0254
24621W        W39752   2.039  13.144   5.580 -0.1498  0.1964 -0.2170
24622W        W39753   9.909   6.196  10.827  0.0734  0.0838 -0.0217
24623W        W39754  15.268   6.224  11.102 -0.2450 -0.2279 -0.2521
24624W        W39755  17.262  16.411  12.999  0.0597 -0.3251 -0.1932
24625W        W39756   4.299  13.189   2.329  0.3359 -0.1882 -0.0345
24626W        W39757  10.506  15.062   5.011 -0.1428  0.1548  0.0525
24627W        W39758   0.798  15.793   2.232  0.1843 -0.0950 -0.0560
24628W        W39759  14.264  15.730   3.315 -0.1288  0.2791 -0.0083
24629W        W39760   7.139   4.225   4.329  0.1622 -0.1726  0.2547
24630W        W39761   4.434   7.070  11.397 -0.0348 -0.1948  0.1616
24631W        W39762   4.685   2.619  14.742  0.0583  0.0859 -0.1680
24632W        W39763   6.571   0.492  13.929 -0.0429 -0.1360  0.2005
24633W        W39764   4.703   6.364   1.474 -0.0782 -0.0825 -0.2089
24634W        W39765   3.234   5.933   2.623 -0.1370  0.3138  0.1135
24635W        W39766   2.736   2.380   0.875 -0.0517 -0.0289  0.3107
24636W        W39767  15.066   4.430   4.723 -0.2863 -0.2037 -0.2679
24637W        W39768   2.370  13.008  16.094 -0.1229 -0.3384 -0.0859
24638W        W39769   3.617  10.186  12.832  0.0802 -0.1158 -0.2409
24639W        W39770   4.073   8.122   3.281  0.2438  0.1636 -0.0439
24640W        W39771  14.733  17.731   2.916  0.0333  0.0027 -0.0866
24641W        W39772   6.950  15.887  11.835  0.0377 -0.2340 -0.1916
24642W        W39773  13.296   6.730   0.746  0.1769  0.0651  0.0827
24643W        W39774  10.156   6.516   5.592 -0.1587 -0.0723 -0.3412
24644W        W39775   5.207   6.426   0.720  0.0870  0.0964 -0.1450
24645W        W39776  14.923  13.631  12.613 -0.1067  0.0089 -0.2867
24646W        W39777   7.608   3.085   2.704  0.1098 -0.1548  0.2795
24647W        W39778   8.334  13.593   3.145 -0.1586 -0.1067  0.0323
24648W        W39779   4.863  17.992   3.559 -0.2442 -0.0675  0.0591
24649W        W39780  12.227   3.069   2.645 -0.3246  0.1946  0.0561
24650W        W39781  10.925   2.013  11.821  0.0924 -0.2484 -0.1571
24651W        W39782   0.173  12.344  10.202 -0.1792 -0.3591 -0.0307
24652W        W39783  11.087  13.861   3.612 -0.0684 -0.1973  0.1363
24653W        W39784   0.889  10.447  14.088  0.0332  0.1995  0.2322
24654W        W39785  11.324  13.974  14.245 -0.0909  0.3022 -0.1769
24655W        W39786  14.364   8.312   5.886  0.2738 -0.0851 -0.0605
24656W        W39787   0.374   2.193   6.155  0.3064 -0.3666  0.0460
24657W        W39788  13.656   8.336   5.061  0.2219 -0.2902 -0.2010
24658W        W39789  10.099   2.926  11.549  0.1712 -0.1451  0.0509
24659W        W39790   2.556  16.093   9.886 -0.0018 -0.0828  0.0819
24660W        W39791   7.278   2.528   0.202 -0.0555  0.1813 -0.0077
24661W        W39792  10.464   9.011   0.071 -0.1396  0.2741 -0.3253
24662W        W39793   9.147   4.944  15.008 -0.0793 -0.0150 -0.0573
24663W        W39794  11.261   1.962   5.106 -0.1695  0.0474 -0.2504
24664W        W39795   9.359   3.337  14.136 -0.4748 -0.1116  0.0764
24665W        W39796   0.587   9.201  12.871  0.1704  0.0689  0.0715
24666W        W39797  16.680   9.521  13.598  0.1042  0.2481 -0.0160
24667W        W39798   7.250  13.505  12.297  0.2269  0.1961 -0.3931
24668W        W39799   7.035  14.249   2.065 -0.0493 -0.2996 -0.0919
24669W        W39800  11.942   7.152  14.109 -0.0485  0.2208 -0.0645
24670W        W39801  10.270  15.659  12.854  0.0479  0.1558  0.0542
24671W        W39802   0.474  13.778   1.981  0.0609  0.1935  0.0766
24672W        W39803   7.175   1.750  11.269  0.1051 -0.0106 -0.1602
24673W        W39804  16.131  11.472   4.898  0.2158 -0.3245 -0.1002
24674W        W39805   3.484   7.588   4.138 -0.1869 -0.0161 -0.1265
24675W        W39806   5.183   3.927   4.632 -0.1745 -0.2825  0.2072
24676W        W39807  13.807  15.484   3.415 -0.0420  0.0821 -0.1966
24677W        W39808   1.778   7.041   4.567 -0.2809 -0.0796 -0.2111
24678W        W39809   6.221   4.765   5.166  0.1364  0.0303  0.1098
24679W        W39810  17.655  10.711   4.146 -0.0533  0.1763 -0.0343
24680W        W39811  18.012  14.370  11.699  0.0972  0.0644 -0.1781
24681W        W39812   7.022  17.774  15.928 -0.0174  0.2940  0.1220
24682W        W39813   0.144   7.224  14.201  0.2673 -0.1684  0.1390
24683W        W39814  14.098   2.526  13.772 -0.2052  0.0205 -0.0401
24684W        W39815   2.211  12.090   1.355  0.4082  0.0972 -0.2952
24685W        W39816   2.969  12.159   4.460 -0.0220 -0.1281  0.1944
24686W        W39817  14.702  12.856  15.325 -0.1710 -0.0021 -0.0509
24687W        W39818  11.636   1.804  16.172  0.0698  0.2773 -0.0408
24688W        W39819   2.358   8.646   0.816 -0.3501 -0.1257  0.0904
24689W        W39820  16.891  10.699  11.745  0.2925  0.0885  0.1489
24690W        W39821   9.532  17.557   2.544  0.0046  0.3548  0.0157
24691W        W39822   4.359   3.593  10.472 -0.0436  0.0301  0.1888
24692W        W39823  16.279   7.936  14.610 -0.2595 -0.0736  0.1954
24693W        W39824  17.416  12.841   4.727 -0.0122  0.1171 -0.0601
24694W        W39825  16.912   1.516   1.648  0.0591 -0.0445  0.1576
24695W        W39826   2.792   2.743  11.523 -0.0723  0.3151 -0.1255
24696W        W39827  12.305   6.176  11.076 -0.0044 -0.0118  0.1693
24697W        W39828  10.393  10.634  15.863  0.1563 -0.0764 -0.1563
24698W        W39829   0.212   0.876  14.354 -0.0723  0.1921  0.1585
24699W        W39830   9.384  11.403  15.509 -0.0420  0.0957  0.0130
24700W        W39831   0.250  13.652   0.362  0.2980 -0.1142  0.1575
24701W        W39832  15.406   2.498  13.371  0.2315 -0.1852  0.2286
24702W        W39833   3.125   9.055   5.776 -0.1166  0.1207 -0.1211
24703W        W39834  14.228   0.831  15.834  0.1477 -0.0216 -0.2202
24704W        W39835  16.400   9.269  11.095 -0.2324 -0.5145 -0.0280
24705W        W39836  16.982   8.208   4.158 -0.0582  0.2210  0.2469
24706W        W39837   0.774   5.679   4.415  0.1857  0.0712 -0.1439
24707W        W39838   3.220   8.756  13.914 -0.0092 -0.1527  0.2430
24708W        W39839  10.034   7.016   2.323 -0.0780  0.0042 -0.2404
24709W        W39840   7.202   5.847   3.169 -0.1701  0.1212 -0.0227
24710W        W39841  11.927   6.860  15.383  0.1516 -0.1689  0.0571
24711W        W39842  14.827   0.905  13.065  0.1914 -0.0470  0.1387
24712W        W39843   7.842  14.281  14.721  0.2404 -0.0680 -0.0499
24713W        W39844  16.438   8.547  14.909 -0.0205  0.1384 -0.2271
24714W        W39845   8.954   3.005   1.059 -0.1828  0.0095  0.0588
24715W        W39846  15.632  11.466   3.113 -0.2699 -0.3138  0.1908
24716W        W39847  12.930   3.332   1.333 -0.1246 -0.2041  0.1469
24717W        W39848   2.023   4.085   2.570  0.0018 -0.1278 -0.1506
24718W        W39849   9.470  14.966  14.439  0.0504  0.0350 -0.0783
24719W        W39850   3.864   0.622  11.282 -0.0822 -0.0433 -0.0168
24720W        W39851  10.395   3.464   4.519 -0.0140  0.1456  0.0951
24721W        W39852  14.715  13.114   1.628 -0.2538 -0.0064  0.0496
24722W        W39853  13.233   7.810  15.173  0.4849  0.0912  0.0932
24723W        W39854   9.902  11.178  12.115 -0.0140  0.0753 -0.2992
24724W        W39855  15.061   2.821  11.748  0.1473  0.1393 -0.1140
24725W        W39856  11.834  17.739   3.705  0.2863  0.1506  0.1329
24726W        W39857   5.419   4.331   0.810  0.1347 -0.0300  0.1192
24727W        W39858  14.216   8.978  12.346 -0.2519 -0.0329  0.0061
24728W        W39859   9.414  18.055   4.293 -0.0943 -0.0446  0.1844
24729W        W39860   3.089  16.694  14.073 -0.0380  0.1237 -0.1430
24730W        W39861   4.213  15.542   2.052  0.0998  0.3128  0.0484
24731W        W39862   5.004  16.762   3.259 -0.1164  0.2042 -0.2779
24732W        W39863   6.062   6.030  11.529  0.0123 -0.1365 -0.0716
24733W        W39864   8.246  15.595  14.798  0.1748  0.0478 -0.2616
24734W        W39865   1.092  16.288   1.509 -0.1741  0.4525  0.0599
24735W        W39866   8.024   6.395  14.792 -0.0792  0.0150  0.1480
24736W        W39867  14.034  10.701  11.486  0.4320 -0.0112 -0.3518
24737W        W39868   4.811  13.028   0.963 -0.0508 -0.0056 -0.0708
24738W        W39869   5.275   4.935   5.534  0.2150 -0.1469  0.3679
24739W        W39870  14.062   7.952   2.865  0.0846 -0.0963  0.0361
24740W        W39871   7.067   0.673   1.150  0.1887 -0.2981 -0.0514
24741W        W39872  17.830   3.546   1.233 -0.2339 -0.2167  0.0848
24742W        W39873  12.841   7.966   4.977  0.0587 -0.2246  0.0401
24743W        W39874   1.851  17.885  13.951 -0.1033  0.0206 -0.0222
24744W        W39875   8.088  10.403   3.089  0.0844 -0.3610 -0.1288
24745W        W39876   9.228   2.276   5.121 -0.2650 -0.2048 -0.0911
24746W        W39877   0.585   8.910   3.936 -0.0738 -0.1346 -0.2771
24747W        W39878   7.637  15.545   1.240 -0.2814 -0.2588 -0.0623
24748W        W39879   4.779  11.679   5.142 -0.1722  0.2377 -0.3341
24749W        W39880   4.212  10.086  15.000  0.0371  0.1213  0.0704
24750W        W39881   7.282   4.051   2.635 -0.1756 -0.0414 -0.1847
24751W        W39882  10.333   5.767   1.261  0.2128 -0.0700 -0.0158
24752W        W39883   2.819   4.758   0.938  0.2608 -0.2748  0.1308
24753W        W39884  10.563  17.465   0.076 -0.2102  0.1563  0.2168
24754W        W39885   1.735  14.849   1.687  0.1640 -0.0754  0.0102
24755W        W39886  15.678  13.018  14.065  0.0197 -0.1737 -0.1266
24756W        W39887  11.300  11.497  12.748 -0.4086  0.2347 -0.1790
24757W        W39888  12.075  13.934   1.939 -0.0860  0.0155  0.3375
24758W        W39889  10.037  12.013   3.480  0.3803 -0.3256  0.0827
24759W        W39890  15.020   9.900   1.294  0.1255 -0.0686 -0.0122
24760W        W39891   1.498  15.644  15.042  0.2092 -0.0918 -0.2589
24761W        W39892  13.080  14.573   1.445 -0.3022 -0.1511 -0.0833
24762W        W39893  17.050   2.374   5.789  0.2021 -0.0562  0.0462
24763W        W39894  13.033   7.700  16.077  0.0063  0.0649 -0.0680
24764W        W39895  15.263   0.263  13.354  0.1081  0.1132  0.1172
24765W        W39896  17.381   8.361  16.207  0.1780  0.1937 -0.3089
24766W        W39897  11.893   2.186   2.691 -0.0693 -0.2288 -0.1158
24767W        W39898   6.720   4.921  13.250 -0.0237  0.2311  0.0278
24768W        W39899  17.781  15.855  13.557  0.0085  0.0732  0.0229
24769W        W39900  12.292   8.177   4.090 -0.0623 -0.0747  0.1905
24770W        W39901   3.267   7.194  14.353 -0.0967  0.0329  0.2785
24771W        W39902   0.816  15.530  15.339  0.1845 -0.0107  0.1310
24772W        W39903   5.057   4.424   9.921 -0.0661  0.0077  0.0770
24773W        W39904  14.185   9.581   1.787 -0.1754 -0.4250 -0.4162
24774W        W39905   9.931   5.133   2.969 -0.1864  0.3562  0.1639
24775W        W39906  14.182  13.980  11.876  0.1076  0.0873  0.0952
24776W        W39907  11.316   6.738  16.090 -0.5220 -0.1087  0.2237
24777W        W39908   5.809   6.850   4.582  0.3227 -0.2174  0.0777
24778W        W39909  12.763  15.060  14.722  0.1942  0.1921 -0.0102
24779W        W39910   6.540  12.508  11.277 -0.0055 -0.3450 -0.2072
24780W        W39911  17.616   5.920  11.543 -0.2668 -0.1050 -0.2064
24781W        W39912  14.625  18.132   1.475  0.2057  0.0909  0.4591
24782W        W39913  16.685   3.610  14.074 -0.0806 -0.2305 -0.0541
24783W        W39914  17.367   0.140  14.543 -0.0242  0.2919  0.0153
24784W        W39915   9.518   2.727  15.942 -0.4157  0.4277  0.1143
24785W        W39916   8.510  10.990   1.863 -0.0387  0.1566  0.0155
24786W        W39917   6.279   3.133   4.378 -0.1394 -0.0707 -0.1747
24787W        W39918   0.284   3.895   5.345  0.0077  0.4729  0.3350
24788W        W39919   4.450   1.691  11.332  0.1855 -0.0608 -0.0994
24789W        W39920   8.681   3.545  12.484 -0.1005  0.1150  0.1154
24790W        W39921   1.739  11.569   2.420  0.0597 -0.1853 -0.1427
24791W        W39922   8.406  15.109   0.307 -0.1480 -0.0211 -0.0010
24792W        W39923  17.611  10.361  11.795  0.0399 -0.1363 -0.0489
24793W        W39924   4.046   8.769  13.084 -0.0816 -0.0144 -0.4211
24794W        W39925   4.583   5.564   1.113  0.1798  0.0138 -0.1904
24795W        W39926   0.886  12.031   4.163  0.4504 -0.1137  0.1896
24796W        W39927  11.482  11.317   2.833  0.3670  0.3105 -0.0554
24797W        W39928   3.493   2.418   2.108 -0.3107 -0.2774  0.1498
24798W        W39929  15.263   8.515   4.439 -0.0923  0.1103  0.2477
24799W        W39930   0.393   5.558   0.134 -0.1532  0.0220 -0.1137
24800W        W39931  17.882   7.012   5.801 -0.0412 -0.2915 -0.2615
24801W        W39932   6.581   4.783  11.153 -0.2145  0.1770  0.2868
24802W        W39933   6.527  13.387  12.918  0.1633  0.1078 -0.4405
24803W        W39934   3.958  11.980  13.389  0.0418  0.0651  0.1017
24804W        W39935   0.388   9.798   2.546 -0.1421  0.1515 -0.0769
24805W        W39936   6.592   2.401   5.016 -0.1948 -0.0194  0.1182
24806W        W39937  10.629   9.977   5.119  0.0285  0.0814 -0.0461
24807W        W39938   6.445  13.014  14.294 -0.0260  0.0003  0.1011
24808W        W39939  13.241   5.636   5.797 -0.3570  0.2519 -0.0344
24809W        W39940   1.874   0.740   1.559 -0.1033 -0.0722  0.0134
24810W        W39941   2.682  17.226  11.857 -0.2436 -0.0863  0.2934
24811W        W39942  13.410  11.968   5.980  0.1651 -0.1434 -0.2009
24812W        W39943  12.081   4.003  13.254  0.1644  0.5027 -0.2040
24813W        W39944  14.063   7.636  12.019  0.0706  0.0166 -0.5095
24814W        W39945   8.040  11.792   1.232 -0.2917  0.1469 -0.1959
24815W        W39946  13.193   1.586   5.760 -0.0558  0.1454 -0.1776
24816W        W39947  12.873   6.919  15.797  0.2851 -0.1065  0.0415
24817W        W39948   5.800   0.310   0.531  0.0515  0.0544 -0.1090
24818W        W39949   8.054   8.460   5.054  0.0302 -0.2249 -0.2246
24819W        W39950   4.365  17.669   2.342  0.0637  0.2894 -0.0184
24820W        W39951  16.473  10.646  16.226 -0.0617  0.0088  0.4552
24821W        W39952  12.896  10.450   3.345  0.0179  0.3284  0.2673
24822W        W39953   9.349   9.878  11.183  0.0960  0.2804 -0.0461
24823W        W39954   7.401   4.550   5.652 -0.0220 -0.1504  0.1890
24824W        W39955   7.924   9.233   4.515  0.2419  0.2220  0.0659
24825W        W39956   4.047   0.432  15.939 -0.3425  0.0413  0.2210
24826W        W39957  12.756   0.160  14.719 -0.4118 -0.0564 -0.0561
24827W        W39958  13.928   0.624   0.389  0.1621  0.3715  0.0379
24828W        W39959  16.652  11.496  12.351 -0.1431 -0.0171 -0.1820
24829W        W39960  10.751  16.813  14.954 -0.1828  0.1113 -0.0246
24830W        W39961   5.365   8.692  15.244 -0.0083  0.1211  0.4152
24831W        W39962   2.973  14.190  10.758 -0.0998 -0.0533  0.0472
24832W        W39963  11.063  14.664   4.125  0.1066 -0.4431  0.0841
24833W        W39964  17.148   0.625  14.510  0.2629 -0.0248  0.0264
24834W        W39965  10.689  12.110  12.762  0.2708  0.0285 -0.2109
24835W        W39966   8.506  16.875   4.616 -0.2066  0.0697  0.1216
24836W        W39967  12.555   8.887   0.894 -0.0087  0.0419  0.2994
24837W        W39968   8.363  13.724  12.674 -0.0168  0.0375 -0.0433
24838W        W39969  16.858  11.729   1.910  0.0819 -0.0428  0.1597
24839W        W39970   5.559   2.332  14.026 -0.0568  0.1442  0.4174
24840W        W39971  18.138   7.613   1.350  0.1351 -0.4286 -0.1408
24841W        W39972  15.575   8.378   3.549 -0.0321 -0.1842  0.3808
24842W        W39973  10.091  11.564  15.048 -0.0464  0.0082  0.0268
24843W        W39974  13.831  15.826  15.349 -0.0084  0.1693  0.4106
24844W        W39975   0.601   6.375  10.322  0.1192  0.1176  0.1562
24845W        W39976   0.747   6.702   1.194 -0.1720 -0.0745 -0.0488
24846W        W39977  15.353   6.603   1.372  0.2152 -0.3104 -0.2265
24847W        W39978   3.754   2.093  16.202 -0.0998 -0.1701 -0.0450
24848W        W39979   1.591   2.829   3.501  0.0264  0.0509 -0.0868
24849W        W39980  17.596  14.024  14.606  0.2132 -0.2337  0.0671
24850W        W39981   5.118   2.297   1.760 -0.0831 -0.0537 -0.0698
24851W        W39982  14.449   9.565  10.066 -0.1961 -0.2635  0.4121
24852W        W39983  17.558   6.675   3.448 -0.1694  0.1739  0.0799
24853W        W39984  13.705   4.011   3.534  0.4053 -0.1873  0.1675
24854W        W39985   4.416   1.785  13.204 -0.0947  0.1991 -0.1224
24855W        W39986   7.930  11.500  10.850 -0.1090 -0.1681 -0.2777
24856W        W39987   3.930  17.028  13.620  0.0839 -0.1976  0.5164
24857W        W39988   0.020  17.182  11.183 -0.1342  0.0710 -0.1099
24858W        W39989   8.625   2.200  14.245 -0.2412  0.0703  0.3423
24859W        W39990   5.645   1.287  13.628  0.0718 -0.2092 -0.3044
24860W        W39991   4.404   0.325  14.568 -0.0082  0.1747  0.0501
24861W        W39992  13.129   7.565   0.737 -0.0586 -0.0381 -0.1969
24862W        W39993   1.208  14.146   1.735  0.0139  0.1543  0.3327
24863W        W39994  10.983  10.311   5.183 -0.4094 -0.1043 -0.2085
24864W        W39995  16.253   3.819   2.849  0.2326  0.0810 -0.3747
24865W        W39996  16.999  10.252   1.777 -0.0686  0.0734  0.3079
24866W        W39997  13.679   8.288  13.405 -0.3094 -0.2960  0.0398
24867W        W39998   4.576   4.123  10.158 -0.2695  0.1681  0.1455
24868W        W39999   7.323   7.218   2.269  0.0657  0.0810 -0.3441
24869W        W40000  13.009  15.380   3.629 -0.0153  0.0147 -0.2476
24870W        W40001  14.577  17.602  16.074 -0.4281 -0.0164 -0.0452
24871W        W40002  11.998  17.599   3.187 -0.2887 -0.0726 -0.2510
24872W        W40003  10.763   3.842  12.404 -0.2129  0.0642 -0.0704
24873W        W40004  13.126  11.351  15.054 -0.0041  0.0292  0.1625
24874W        W40005   9.601  15.825   2.877  0.1851  0.0183 -0.3308
24875W        W40006  14.929  15.723   2.691 -0.0427 -0.1047 -0.2083
24876W        W40007  13.865   5.313  15.826  0.1360 -0.0506 -0.1100
24877W        W40008  13.010   4.721   2.380 -0.0634  0.3407  0.1439
24878W        W40009   8.845  12.569  10.908 -0.2072 -0.0285 -0.2835
24879W        W40010  11.569   0.574   0.394  0.5510  0.1348  0.0778
24880W        W40011   9.638  13.683  10.854  0.2509  0.1672  0.1462
24881W        W40012   0.953   1.245  13.546  0.0040  0.2671 -0.0234
24882W        W40013  12.757  16.118  12.697  0.2321 -0.0167  0.0357
24883W        W40014   0.945   8.338   2.207  0.0714 -0.0124 -0.0850
24884W        W40015  13.546   9.388   3.843  0.2191  0.0434  0.1975
24885W        W40016   6.982  13.577   2.974  0.1213 -0.0255  0.0217
24886W        W40017  11.149  15.857  13.212  0.1000 -0.1164  0.0065
24887W        W40018   9.381  15.988   3.996  0.1330  0.3853  0.1836
24888W        W40019   4.881  14.062  13.574  0.0343 -0.1779 -0.1850
24889W        W40020  14.905  16.431   2.232  0.0858 -0.1434 -0.2096
24890W        W40021  11.395   9.215  13.240 -0.3270  0.2955 -0.2646
24891W        W40022  13.534  10.977   5.026  0.5147  0.0129  0.1122
24892W        W40023   4.633   5.266   3.982 -0.0567  0.0499 -0.0858
24893W        W40024   1.865  17.644   3.672 -0.2939  0.3463  0.1804
24894W        W40025   4.804   5.415  15.571 -0.1404  0.1563 -0.1221
24895W        W40026   6.137  12.385   2.461 -0.0481 -0.3161  0.1207
24896W        W40027  13.795  14.238   5.498 -0.0531 -0.1462 -0.1680
24897W        W40028   1.286   0.224  11.548 -0.0613 -0.0431 -0.2581
24898W        W40029  15.963  16.035   5.468  0.0175 -0.3916  0.0891
24899W        W40030   3.244   8.065   4.960 -0.1457  0.0752  0.4089
24900W        W40031   9.290  11.695   4.209  0.2150 -0.0867 -0.1957
24901W        W40032  17.590   1.459   4.425  0.2603  0.0913 -0.2118
24902W        W40033   8.476   5.873   0.503 -0.1593  0.0279 -0.4171
24903W        W40034   3.737   3.702  12.861  0.0076 -0.0874  0.0320
24904W        W40035  10.351   8.789   1.829  0.0184  0.1031  0.0212
24905W        W40036  15.534  14.450   4.635 -0.2516 -0.1156 -0.1328
24906W        W40037  14.943   2.273  10.566 -0.1809  0.4637 -0.2390
24907W        W40038   9.606   8.228   0.796  0.3079  0.1273  0.3417
24908W        W40039   7.680   9.729  12.059 -0.0010  0.0220 -0.1448
24909W        W40040  16.286  16.524   2.787 -0.0379 -0.6771  0.2871
24910W        W40041  11.884   8.543  11.383 -0.1003 -0.0786  0.1160
24911W        W40042  16.008   0.994  12.156 -0.0287  0.0778 -0.1686
24912W        W40043  16.237   9.580  12.395  0.1944  0.0180 -0.0407
24913W        W40044   9.454  11.602  12.857  0.2542  0.2753 -0.1102
24914W        W40045   9.569   9.739   3.516 -0.1295 -0.1064  0.1670
24915W        W40046  14.512  15.548  11.757 -0.1589 -0.1604 -0.0978
24916W        W40047   1.609  13.560   3.822 -0.0988 -0.1780 -0.2230
24917W        W40048   0.812   3.684  12.353  0.2651 -0.3183 -0.0641
24918W        W40049  10.867  10.840  10.680  0.1077 -0.0393 -0.1795
24919W        W40050   7.641  12.909  15.645  0.1171 -0.0404 -0.0197
24920W        W40051   2.940   5.816   3.746  0.0232 -0.0566 -0.3436
24921W        W40052   4.344   0.332  11.099  0.0546  0.0825 -0.1433
24922W        W40053   3.078   5.038  13.177 -0.2137 -0.2172 -0.1502
24923W        W40054  14.946  10.086  14.169 -0.1769  0.2165  0.3398
24924W        W40055   3.019   3.846   3.888  0.1115  0.3235 -0.0361
24925W        W40056   6.421   1.516   4.912 -0.1282  0.2403 -0.3067
24926W        W40057   1.994   3.560   2.660  0.0333 -0.0847  0.1316
24927W        W40058  15.925   2.187  13.395 -0.2227  0.0864  0.1065
24928W        W40059  11.016  17.622  13.242  0.0479  0.2243  0.3184
24929W        W40060   9.734  12.158  14.960  0.0942  0.0293  0.0043
24930W        W40061  17.688   7.726   1.129  0.0775  0.1248  0.0046
24931W        W40062   1.515  15.201  14.258 -0.1632 -0.1591  0.1543
24932W        W40063   2.001   1.176  14.169  0.1584  0.0825  0.2889
24933W        W40064   0.560  16.220  12.616  0.1063  0.1445 -0.2628
24934W        W40065  17.780   8.469  16.011  0.0194 -0.1627  0.2409
24935W        W40066   1.989   1.224   4.531  0.1917  0.3335 -0.0323
24936W        W40067  13.359  11.057   0.926  0.1526  0.2299  0.0852
24937W        W40068  12.364   4.501   1.878  0.0439 -0.2036  0.1760
24938W        W40069   3.771   5.653   4.989 -0.0618  0.0396  0.1706
24939W        W40070   3.376  11.585  15.601  0.1298  0.0448  0.1262
24940W        W40071   4.476   1.793   3.515 -0.0830 -0.2776  0.3546
24941W        W40072  12.844   5.777  12.701 -0.0567  0.0202  0.2654
24942W        W40073  13.841   9.180  12.762  0.1233  0.0323  0.0923
24943W        W40074  12.844  10.370  14.334  0.1029 -0.0006  0.2148
24944W        W40075   1.405   1.769   2.259 -0.1984  0.0247 -0.1106
24945W        W40076  12.596  10.798   4.160 -0.1003 -0.4709  0.1034
24946W        W40077  11.054   4.193   5.785  0.0509  0.1389  0.0191
24947W        W40078  11.438   2.080  14.043 -0.0211  0.0193  0.0745
24948W        W40079   2.724   3.576   4.873  0.2824 -0.2185  0.2935
24949W        W40080  11.517  17.900  16.174  0.1062  0.1054  0.0419
24950W        W40081  10.631   9.937   3.457 -0.1889 -0.1275 -0.0563
24951W        W40082   5.760   1.962  11.861  0.0928 -0.0005 -0.2899
24952W        W40083   6.324   9.301   0.230  0.0697 -0.1285  0.2698
24953W        W40084   3.567   4.164  13.443 -0.0735 -0.0870 -0.0765
24954W        W40085   6.904  10.107   3.967 -0.1445 -0.1156  0.3084
24955W        W40086   5.541   4.441   3.168 -0.0675  0.2271 -0.0366
24956W        W40087  15.198  12.675  11.707  0.0802 -0.1899  0.0576
24957W        W40088   5.033   6.481   4.023  0.0379 -0.1792  0.0036
24958W        W40089  10.925  14.876   1.139 -0.4076 -0.1684 -0.1131
24959W        W40090  13.610  17.178  13.602 -0.0442 -0.1183 -0.0288
24960W        W40091  11.532  14.110  15.003 -0.0182  0.1716  0.1146
24961W        W40092  17.720   8.354  15.368 -0.1021 -0.1459 -0.2668
24962W        W40093   2.187   9.429  11.513 -0.0672 -0.1261 -0.1015
24963W        W40094  12.079   7.085   0.552 -0.1603  0.3885  0.2727
24964W        W40095   8.330  12.866   0.004 -0.0926 -0.0156  0.1778
24965W        W40096  12.233  11.957  12.640 -0.0103  0.1457 -0.0040
24966W        W40097   0.425   2.406  14.404  0.0453 -0.0475  0.1522
24967W        W40098   7.108  13.670  11.857  0.1170  0.3087  0.1822
24968W        W40099   1.657   7.370   0.593  0.0679 -0.2302 -0.0985
24969W        W40100  13.502  17.571  14.730  0.0654 -0.2310 -0.0154
24970W        W40101  15.790   2.209   5.537  0.1209  0.0645  0.1927
24971W        W40102   8.973   0.431  14.602  0.1358  0.2651  0.0004
24972W        W40103   6.637   1.138   9.719 -0.0823  0.2914 -0.0860
24973W        W40104   5.541  11.101  12.035 -0.0648 -0.0878  0.0061
24974W        W40105   2.139  12.646  15.833 -0.1970  0.1275  0.0717
24975W        W40106   5.165   0.998   2.355  0.2712  0.2931 -0.3840
24976W        W40107   3.535  13.991  13.613  0.0443  0.0685 -0.0413
24977W        W40108   3.334   5.712   3.108 -0.2139 -0.1223  0.0179
24978W        W40109  13.055   3.337   4.834 -0.1862 -0.1975 -0.0899
24979W        W40110   4.458   2.606   1.120  0.2445 -0.2658 -0.0268
24980W        W40111   0.171   4.966  15.093 -0.1073  0.1493 -0.1614
24981W        W40112   1.946   5.187   0.711 -0.1666  0.1127 -0.2318
24982W        W40113  10.984  10.011  14.816 -0.0230  0.1668  0.2336
24983W        W40114  16.757   4.525  15.122 -0.0031 -0.2208 -0.1877
24984W        W40115   8.751  15.230  10.906  0.0568 -0.1467 -0.1959
24985W        W40116  14.477  11.767   3.578  0.1702  0.0169 -0.0335
24986W        W40117   5.995  15.165  16.028 -0.1059  0.2037  0.3157
24987W        W40118   9.802  14.592  15.975  0.2483  0.1893  0.1450
24988W        W40119   3.515   8.413   2.352 -0.4800  0.4876  0.0129
24989W        W40120   9.797  10.369  14.763 -0.1678 -0.2483 -0.0601
24990W        W40121  16.253   2.334   4.305  0.1833 -0.0902  0.0472
24991W        W40122  17.358   2.533  11.364 -0.0199 -0.2825  0.0595
24992W        W40123   4.392   8.714  12.731 -0.0646 -0.0883  0.2482
24993W        W40124   4.984  15.432  14.837  0.0800  0.1754  0.1105
24994W        W40125   5.815   1.099   1.475  0.4665  0.1361  0.0279
24995W        W40126   4.435  12.013   4.943  0.0873  0.0378 -0.2403
24996W        W40127  16.440  14.291  12.352  0.0345 -0.1262  0.0979
24997W        W40128   9.264   7.964   4.357  0.0672  0.1303  0.4653
24998W        W40129   5.407   5.282   6.006  0.0459 -0.0853  0.2567
24999W        W40130   8.923  12.689  12.358 -0.0764  0.0123 -0.1959
25000W        W40131   6.749   7.317  12.079 -0.1758 -0.0710  0.2026
25001W        W40132  16.187  14.075  12.759  0.0655  0.1566 -0.0866
25002W        W40133  12.693  14.591  15.684  0.1522  0.1327 -0.1093
25003W        W40134  12.454   8.550  13.480  0.2591  0.3619  0.6176
25004W        W40135   9.672  17.152   0.152  0.1638 -0.1248 -0.3172
25005W        W40136   0.076   0.445   3.083 -0.1183  0.1707  0.0329
25006W        W40137   5.235  15.688   0.590 -0.3075 -0.3234  0.1373
25007W        W40138   6.662   8.054  10.076  0.1718  0.0616 -0.0603
25008W        W40139  13.461  16.576  15.661  0.1213 -0.0359 -0.0213
25009W        W40140  13.021  12.982   3.453  0.0374  0.0495  0.0935
25010W        W40141  14.920   2.371   5.083 -0.1299 -0.1592 -0.1251
25011W        W40142  11.535   7.655   0.131 -0.1645 -0.0044  0.2671
25012W        W40143   5.380   0.660   3.194  0.0019 -0.1115  0.0085
25013W        W40144  14.031   8.866   4.700  0.0045 -0.1708  0.0831
25014W        W40145   8.954   0.400  12.891  0.2339 -0.2464 -0.1985
25015W        W40146   5.194   8.193   3.724 -0.2490 -0.2335 -0.1300
25016W        W40147  15.678  11.876   4.938  0.0733  0.2414 -0.0937
25017W        W40148   0.714   7.817   2.220 -0.1039 -0.0035  0.1346
25018W        W40149   3.949   9.290   2.184  0.0763 -0.1949 -0.1072
25019W        W40150  13.094  13.290  12.325 -0.0331  0.1586 -0.0393
25020W        W40151   1.821  11.885  12.830 -0.0387  0.1112 -0.2131
25021W        W40152   3.214   4.479  11.811  0.4586 -0.2462 -0.0310
25022W        W40153  12.258  10.798  12.143 -0.0402  0.1386  0.1351
25023W        W40154  13.104   3.412   0.799  0.0647  0.2620 -0.0495
25024W        W40155   1.028   6.484   5.006  0.1345  0.1172 -0.0913
25025W        W40156   4.620   9.252   3.005  0.1591  0.1211 -0.1592
25026W        W40157  13.700   6.403  14.738 -0.0363  0.3512  0.0996
25027W        W40158   7.661   2.495  15.996 -0.0283 -0.0655  0.1981
25028W        W40159  16.492   2.002   3.131 -0.1397  0.2100 -0.2088
25029W        W40160  17.644   8.611  13.245  0.3230 -0.0168  0.0775
25030W        W40161   4.324  12.232  10.566  0.0434  0.0374 -0.1205
25031W        W40162  12.096  16.415  15.908 -0.2628  0.0273 -0.0453
25032W        W40163  11.382  10.159   2.150  0.1625 -0.0972  0.1674
25033W        W40164  11.837   3.978  14.129  0.1801  0.1831 -0.1494
25034W        W40165  16.061   7.155  12.068 -0.2820 -0.0315 -0.2269
25035W        W40166   0.855  10.459  12.687 -0.0889 -0.2269 -0.1236
25036W        W40167  17.999  14.210   1.562  0.0511 -0.1742 -0.0595
25037W        W40168  11.008  14.012  15.657 -0.1521 -0.1403 -0.0404
25038W        W40169  11.160  16.279  14.302 -0.1554  0.2051 -0.0638
25039W        W40170  17.451  16.075   3.230 -0.0485  0.1143 -0.1392
25040W        W40171   4.542   8.739  11.014  0.0648  0.0528 -0.1937
25041W        W40172   9.765  11.464  10.082 -0.1000 -0.2111  0.1105
25042W        W40173   3.416   5.911  15.402 -0.0960  0.0170  0.0147
25043W        W40174   4.017   8.562   1.071  0.1202  0.1209 -0.2193
25044W        W40175   6.558   3.940   1.797 -0.0323 -0.1498 -0.4337
25045W        W40176  17.295  10.701   0.306  0.2116  0.0210 -0.1334
25046W        W40177   3.807  11.396   2.003 -0.0572 -0.0015  0.1459
25047W        W40178   3.277   4.411   4.017 -0.0079 -0.2351  0.1882
25048W        W40179   3.482   5.940   0.008 -0.1263 -0.0655  0.1345
25049W        W40180   4.042  15.570   3.653  0.2195  0.0046 -0.1788
25050W        W40181   9.569  11.463  14.996  0.1569 -0.0082 -0.0653
25051W        W40182  10.098  15.147  11.306 -0.1284 -0.2407  0.0290
25052W        W40183  11.358   8.355   0.874  0.0352  0.1117 -0.0566
25053W        W40184   1.003  14.406  15.223 -0.0843 -0.0055 -0.1346
25054W        W40185   7.993  12.081   4.501  0.2212 -0.2703 -0.1041
25055W        W40186   4.864   3.163  10.011  0.0305  0.3263 -0.1769
25056W        W40187   4.078   3.358   1.747 -0.1138  0.1311  0.0743
25057W        W40188   8.162  16.250  15.188 -0.1019 -0.0191 -0.0419
25058W        W40189   1.328  10.519  12.722 -0.2640  0.2666 -0.2116
25059W        W40190   0.458  15.740   5.907 -0.1617 -0.0745 -0.1791
25060W        W40191  14.689  16.011   2.002 -0.3198  0.0602 -0.0744
25061W        W40192  10.541  11.199  12.958 -0.0140  0.0374  0.0461
25062W        W40193   3.794  15.758  15.048  0.0603 -0.1422  0.1679
25063W        W40194   3.105  13.962  13.930 -0.0402 -0.1310  0.3353
25064W        W40195   0.170   6.459   2.997  0.0347 -0.2793  0.2352
25065W        W40196  12.962   4.268  14.904 -0.0666 -0.0618 -0.1930
25066W        W40197  12.000   0.720  11.880 -0.0217 -0.1502 -0.0584
25067W        W40198   1.754   9.617   2.083 -0.0689 -0.1515 -0.1209
25068W        W40199  13.304   0.566  15.906 -0.0885 -0.0610 -0.0825
25069W        W40200   4.996   9.113   9.678  0.0384  0.1778  0.0679
25070W        W40201   3.463  17.129  13.773  0.2185 -0.0457 -0.0340
25071W        W40202   4.345  12.417  11.041 -0.0000  0.1704 -0.0137
25072W        W40203  15.165  10.386  15.573 -0.0026 -0.0257 -0.0671
25073W        W40204  10.216  16.160   5.413 -0.1262  0.1686  0.0552
25074W        W40205   7.716   5.915  11.775  0.0984  0.0398 -0.2120
25075W        W40206  10.336   6.643   1.691  0.1822  0.2483  0.1752
25076W        W40207  14.727  11.300   2.789  0.0273  0.0017  0.2429
25077W        W40208   6.185   1.115   1.067  0.1868  0.0462  0.0289
25078W        W40209   4.156   3.453  14.601  0.0708  0.0274 -0.0934
25079W        W40210   4.917  16.882  11.193  0.1471  0.2359 -0.1213
25080W        W40211  12.137   8.419  12.653  0.1417  0.0263 -0.0984
25081W        W40212   6.862  13.532   1.173 -0.0468 -0.2822  0.1273
25082W        W40213   1.904   4.265   0.785  0.1783  0.0723  0.1183
25083W        W40214   6.813  10.824  10.873 -0.1546 -0.0471  0.2274
25084W        W40215   3.926  15.479  15.509  0.1940  0.0850 -0.1423
25085W        W40216   5.544  15.402  15.849 -0.1183 -0.1684 -0.1570
25086W        W40217   0.894  16.633  12.561 -0.1570 -0.4412  0.0770
25087W        W40218  16.159   5.022   4.144 -0.0325  0.0883  0.0198
25088W        W40219  17.525   3.186  11.875 -0.0612  0.0058 -0.0121
25089W        W40220   5.901  13.068   1.115 -0.0546  0.1920 -0.1119
25090W        W40221  17.194   7.702  12.479  0.2357 -0.2323 -0.2992
25091W        W40222  10.583  10.788  12.615 -0.1125 -0.1020 -0.0897
25092W        W40223  11.035   4.006  15.307  0.0770 -0.2280 -0.0180
25093W        W40224   5.940   8.295  14.057 -0.0747  0.0109 -0.1218
25094W        W40225  10.939   2.311   1.203 -0.0841 -0.0898 -0.0850
25095W        W40226  16.025  14.307  14.373 -0.0448 -0.1415  0.1637
25096W        W40227   9.489   6.592   4.206  0.0172  0.2270  0.0674
25097W        W40228   6.822  12.073   3.203 -0.2935 -0.3025  0.1156
25098W        W40229   0.838  16.719   0.165  0.0521  0.2757 -0.0132
25099W        W40230   8.988   1.908  14.759 -0.0493  0.0638 -0.0389
25100W        W40231  18.087   8.528  11.811  0.2600  0.2126 -0.2700
25101W        W40232  16.186   3.912  13.833  0.0229  0.0409 -0.2719
25102W        W40233   4.317  11.035   4.646  0.5233 -0.0755 -0.0794
25103W        W40234   4.954  13.812  11.434  0.2056  0.0424  0.2343
25104W        W40235   9.528   8.354  13.420  0.0873  0.1732  0.1620
25105W        W40236   2.281  14.778   0.718 -0.0462 -0.1477  0.0604
25106W        W40237  10.014  17.936   1.373 -0.2405  0.0111  0.1996
25107W        W40238   1.519   2.702  13.217 -0.2252 -0.1812  0.1041
25108W        W40239  14.893  16.839   1.379 -0.1675 -0.0761 -0.1227
25109W        W40240  15.644   4.463   3.874 -0.2531  0.2646  0.4062
25110W        W40241  16.748  12.335   3.182 -0.1611  0.1236 -0.0795
25111W        W40242   2.622   3.888  11.999 -0.3260 -0.1601  0.1936
25112W        W40243   6.383   3.708  11.426 -0.3068 -0.1399 -0.1355
25113W        W40244  17.552   0.940   2.867 -0.0393  0.0456  0.0797
25114W        W40245   4.095   9.240   0.030 -0.0228  0.2909  0.0253
25115W        W40246  16.031  15.769   3.423  0.1482 -0.2225  0.1056
25116W        W40247  15.785  10.679   4.296 -0.0523 -0.1031  0.0866
25117W        W40248   1.086  13.271  10.576 -0.1072 -0.0589 -0.3010
25118W        W40249  12.775   9.293  15.063 -0.0154 -0.2931  0.0672
25119W        W40250   3.816  11.867  15.536  0.2907  0.2130  0.2343
25120W        W40251   0.266   4.991   0.320  0.1264  0.0094 -0.2438
25121W        W40252   4.067   9.199  13.362 -0.2616 -0.0501  0.4335
25122W        W40253   7.526   2.599  13.728  0.0865 -0.0811  0.0948
25123W        W40254  17.108  17.175   4.830 -0.0576  0.1521 -0.0303
25124W        W40255   3.908  13.060  10.624 -0.1002  0.3490  0.3154
25125W        W40256  15.382  12.736   2.280 -0.0506  0.1446 -0.0877
25126W        W40257  15.670  12.373  12.667  0.0570  0.2405  0.0374
25127W        W40258   1.635  10.363   9.884 -0.0933 -0.1143 -0.1384
25128W        W40259  17.291   9.376  14.391  0.0369  0.0031  0.1028
25129W        W40260   5.042   5.594  14.726  0.0353 -0.2346  0.4716
25130W        W40261  15.280   4.221  11.250 -0.1463  0.0734 -0.0896
25131W        W40262   0.031   3.855   1.361 -0.1693 -0.1446  0.3246
25132W        W40263  10.326  16.191  11.477  0.0458 -0.0725  0.0852
25133W        W40264   2.892   6.436   3.359  0.0017  0.0889  0.1299
25134W        W40265  14.558   4.582   1.656  0.1669  0.0647 -0.1372
25135W        W40266  16.238  15.329   5.001  0.0826 -0.1990 -0.0437
25136W        W40267   1.253   3.932   0.660  0.1196  0.2201 -0.1186
25137W        W40268   8.834   5.120   2.760 -0.3355  0.4568 -0.0398
25138W        W40269  14.639  16.056  14.795 -0.3481  0.1760  0.3059
25139W        W40270  14.149   3.745  15.067  0.0216  0.1474  0.4216
25140W        W40271  16.380   1.121  13.156 -0.1976 -0.0427  0.0568
25141W        W40272   4.324  10.638  13.369  0.0323 -0.2067 -0.1075
25142W        W40273  11.425   9.799   0.915  0.0104 -0.2062 -0.0016
25143W        W40274   6.609   0.529  13.169  0.0436  0.1084  0.0863
25144W        W40275   3.297   4.604   2.194 -0.0250  0.1577  0.1681
25145W        W40276   1.487   9.585  14.969  0.0060 -0.0473  0.1809
25146W        W40277   1.948   2.321   2.852  0.0005  0.1110 -0.1732
25147W        W40278   5.349  15.463  10.057  0.1496 -0.1353 -0.1395
25148W        W40279   8.637  10.963  15.270 -0.1152 -0.0569  0.2340
25149W        W40280  10.687  15.967  11.976 -0.2388 -0.2999 -0.2440
25150W        W40281  13.583  16.542  16.137 -0.3262  0.1759 -0.1862
25151W        W40282  14.728   1.396  16.090  0.1937 -0.0501  0.2754
25152W        W40283  11.010   9.303  15.703 -0.3040  0.3624 -0.0910
25153W        W40284   3.825   6.300   1.040 -0.0223  0.1953 -0.0823
25154W        W40285   2.490  15.095   4.475 -0.0030  0.1820 -0.0423
25155W        W40286  16.538  17.802  15.990 -0.1287 -0.1097  0.2048
25156W        W40287  13.915  17.598  15.147 -0.5170 -0.2212  0.2711
25157W        W40288  10.984  16.720  11.350 -0.2098 -0.1770 -0.2059
25158W        W40289  14.823  16.531  14.902  0.0500 -0.3758 -0.0650
25159W        W40290   3.055  14.575   2.474 -0.1497  0.0728  0.2486
25160W        W40291   5.201   3.067   4.213  0.1586  0.0645  0.0489
25161W        W40292   7.190  15.622   4.559  0.1025  0.2268  0.0816
25162W        W40293   9.025   9.943   3.180  0.0932 -0.2035  0.0669
25163W        W40294  10.976  16.461   3.863 -0.0617 -0.0216 -0.0607
25164W        W40295   6.561  10.092   0.747 -0.0159 -0.2930  0.4617
25165W        W40296   4.334  12.576   2.894 -0.3686  0.0289 -0.0150
25166W        W40297   9.943  13.562   1.936  0.3292  0.0659  0.0038
25167W        W40298   0.408  18.164  13.737  0.1638 -0.2290 -0.0084
25168W        W40299   4.047  17.805  16.157  0.1475 -0.2778 -0.0209
25169W        W40300   1.907  12.194  14.365  0.3142 -0.1549  0.0675
25170W        W40301   9.377   5.296  10.529  0.0193 -0.2126 -0.0734
25171W        W40302   5.197  11.779  13.657  0.0616  0.0840  0.0324
25172W        W40303   3.684  13.087  12.479 -0.0930 -0.0702 -0.2050
25173W        W40304  12.958   1.379   2.761 -0.2674  0.0490  0.3178
25174W        W40305  14.079   4.850   2.391  0.0818  0.2202  0.1720
25175W        W40306   4.311  10.742  12.807  0.0194 -0.0189  0.1778
25176W        W40307   6.084  11.830  10.648  0.0849 -0.2545  0.0415
25177W        W40308  16.178   6.803   0.175  0.0426  0.0739  0.2008
25178W        W40309  16.579  15.639   4.820 -0.1925  0.1167 -0.1061
25179W        W40310  15.842   4.186   4.378  0.2054 -0.1138  0.3135
25180W        W40311  11.165  11.936  12.591 -0.2830 -0.1953  0.2355
25181W        W40312  11.347  12.578   4.812  0.1670  0.0652 -0.0496
25182W        W40313   9.024   1.812  14.151  0.3193 -0.1697  0.1706
25183W        W40314   7.396   9.014   1.273  0.1828  0.0159 -0.1524
25184W        W40315  16.597   7.372   3.419  0.1945  0.0690 -0.0120
25185W        W40316   0.602  17.175   3.687 -0.2693 -0.0283  0.0572
25186W        W40317   8.562   0.551  13.440 -0.2600  0.0174 -0.0763
25187W        W40318  14.424   7.689   1.038  0.1609 -0.0064 -0.0413
25188W        W40319  17.560  13.552  15.041 -0.1053 -0.1411 -0.1865
25189W        W40320   8.799   7.361  11.516 -0.0708 -0.2124  0.0537
25190W        W40321  18.045  10.781   4.877 -0.1007  0.5243 -0.0769
25191W        W40322   8.555  11.232  12.964 -0.1605 -0.0680  0.3834
25192W        W40323   7.654  11.080  13.346  0.2252 -0.3499 -0.0943
25193W        W40324   3.483  15.651  15.444 -0.1136 -0.1569  0.3017
25194W        W40325  17.982   1.738   4.261 -0.0697  0.1052 -0.0731
25195W        W40326   1.654   5.285  12.678  0.1887  0.0694  0.2250
25196W        W40327   4.548   4.469  16.032  0.1186 -0.3331  0.4044
25197W        W40328   6.115  10.990   1.582  0.2356 -0.1467 -0.0171
25198W        W40329  16.229   3.750  14.296 -0.3249  0.4947 -0.3091
25199W        W40330  18.040   0.818  10.890  0.2390  0.2258 -0.1917
25200W        W40331  15.392  13.274   0.575  0.1898  0.1630 -0.0739
25201W        W40332  10.811  11.345   0.271 -0.0180 -0.0464  0.1474
25202W        W40333   3.903   3.113   2.763  0.1088 -0.1445  0.0526
25203W        W40334   7.415  11.156  13.888  0.0755  0.1714  0.0877
25204W        W40335   0.403  12.178   5.923 -0.0234  0.1439 -0.0104
25205W        W40336  14.236   7.100   3.484 -0.2184  0.0686  0.0634
25206W        W40337   9.131   4.995   0.091  0.1072 -0.0643 -0.0566
25207W        W40338   9.344   4.634  16.022 -0.2112  0.0650 -0.0794
25208W        W40339   9.321   0.037  11.524  0.0782 -0.0897 -0.0033
25209W        W40340   7.120  11.351  10.236  0.1241  0.2058 -0.1020
25210W        W40341   1.463   9.382   1.755  0.0922 -0.1299 -0.2954
25211W        W40342  16.892  12.048  10.580 -0.1908 -0.0555  0.1430
25212W        W40343   0.129  13.077   2.927  0.1876  0.0221  0.0521
25213W        W40344  17.577   2.094   4.534  0.0497 -0.3106  0.0430
25214W        W40345  11.675  12.544   3.936 -0.0189 -0.1525  0.0738
25215W        W40346  12.320   1.589   2.759  0.1002 -0.1663 -0.0208
25216W        W40347  12.940   0.441  12.493  0.2090  0.1568  0.1424
25217W        W40348   9.746  12.238  11.309  0.3606 -0.0434  0.1143
25218W        W40349  17.351  10.068  12.806 -0.2259 -0.2872  0.3511
25219W        W40350  12.885  11.504  10.109 -0.2258  0.0506 -0.2058
25220W        W40351  10.058   7.935  13.680 -0.0597 -0.1893  0.0971
25221W        W40352  15.233  16.871  14.923  0.0385 -0.0586 -0.0406
25222W        W40353   3.837  15.847   0.369  0.2866 -0.0741 -0.1556
25223W        W40354  11.122   2.263   3.172 -0.3130  0.1412  0.1766
25224W        W40355   9.653   2.305   3.942  0.0795  0.2170  0.0372
25225W        W40356  16.810  12.116   1.091  0.1983 -0.2242 -0.0441
25226W        W40357  16.785   8.589  12.753 -0.0377  0.0828 -0.2785
25227W        W40358   7.101   9.457  14.841  0.0596 -0.2149 -0.1339
25228W        W40359   3.748  17.388   0.146  0.2208 -0.1405 -0.2490
25229W        W40360  14.358  11.793  14.383  0.1172 -0.1364  0.0548
25230W        W40361   0.678   2.051   1.208  0.3639  0.0930 -0.1994
25231W        W40362  14.789   4.214  15.693  0.0864 -0.1848 -0.0795
25232W        W40363   1.170   7.492   1.984  0.2010  0.0025 -0.0957
25233W        W40364   3.146  13.563  12.055  0.2666  0.1197 -0.1241
25234W        W40365   9.914  11.184  14.192  0.2573  0.0085 -0.2088
25235W        W40366  12.976   9.501  10.044  0.1161 -0.2161 -0.2273
25236W        W40367   9.026   3.271  11.694 -0.0071  0.0900 -0.0057
25237W        W40368  17.299  11.532   2.720  0.2119 -0.1654 -0.0911
25238W        W40369   2.862  12.879   3.614 -0.1500  0.3041  0.0476
25239W        W40370  11.414   4.930   5.756 -0.1894 -0.0810 -0.1097
25240W        W40371   6.611   0.831   3.540 -0.1605 -0.3524 -0.2735
25241W        W40372   7.450   9.001  14.038 -0.1528 -0.5048  0.0367
25242W        W40373   8.694   1.604   3.891  0.0623 -0.1142 -0.0684
25243W        W40374   8.014   4.297   3.167  0.3156  0.0028  0.1968
25244W        W40375  13.341  10.166   0.682 -0.0185  0.3054  0.2313
25245W        W40376  16.355   2.137  16.220 -0.1165  0.1387 -0.1702
25246W        W40377   2.495  12.649   0.763  0.1723  0.0790 -0.0289
25247W        W40378  10.889  15.893  15.516 -0.0433  0.1332 -0.1419
25248W        W40379   3.060   1.525  11.560 -0.0432 -0.3391  0.0503
25249W        W40380   2.488  15.884   4.079  0.1401  0.1909 -0.0266
25250W        W40381   2.369  17.052  12.813 -0.1862 -0.0768 -0.2515
25251W        W40382  10.764  14.843  12.939  0.0345 -0.2324 -0.0374
25252W        W40383   9.189  12.793   0.593 -0.3051  0.1397  0.2733
25253W        W40384  15.362   7.546  11.355  0.2810  0.1805 -0.2474
25254W        W40385  12.364   0.065  15.062 -0.2164  0.0109  0.0859
25255W        W40386   4.088   7.247   2.837 -0.0372 -0.0322 -0.1636
25256W        W40387   5.145   8.208   3.115  0.1908 -0.2778 -0.3681
25257W        W40388  14.604   6.986  12.386 -0.0993  0.3374  0.3281
25258W        W40389   0.166   4.979   4.368 -0.2711 -0.1766 -0.0729
25259W        W40390   9.834  16.871   3.077 -0.0688 -0.1604 -0.0486
25260W        W40391  10.640  17.038   2.062 -0.1143  0.2980 -0.1108
25261W        W40392  11.970   7.740   0.348 -0.0266 -0.1506 -0.2600
25262W        W40393   5.772   7.106   0.502  0.1845 -0.1152  0.0903
25263W        W40394  14.157  17.584   2.225  0.0377  0.1309 -0.4201
25264W        W40395  16.584   5.479   5.463 -0.0993 -0.1557 -0.3011
25265W        W40396  12.160   5.160   1.533  0.1432  0.0716  0.0648
25266W        W40397  17.903  11.547  10.934 -0.0134 -0.1959  0.0143
25267W        W40398  14.705  16.617  11.654  0.2661 -0.3718  0.0537
25268W        W40399  16.487  15.778  15.218 -0.0489  0.1047  0.0452
25269W        W40400   5.833   0.392   5.295  0.2195  0.0261 -0.1090
25270W        W40401   5.497  11.960  14.459  0.2918  0.1736 -0.2434
25271W        W40402  16.945   6.777  13.606 -0.4673 -0.1137 -0.1267
25272W        W40403   8.327  15.688  12.632  0.3787 -0.0086 -0.0393
25273W        W40404   1.605  10.808  14.829 -0.1275 -0.1953 -0.0685
25274W        W40405   0.622   8.909  11.551 -0.1230 -0.0093 -0.2010
25275W        W40406   0.098   0.050  15.548  0.0930 -0.1954  0.0584
25276W        W40407   6.436   4.111   2.281 -0.0065 -0.1541 -0.0060
25277W        W40408   9.124  14.008   2.025 -0.0097 -0.2985  0.0918
25278W        W40409   3.916   0.024  14.605 -0.0812  0.4899  0.0841
25279W        W40410  11.942   4.476  13.568  0.2267 -0.1034  0.0679
25280W        W40411  17.139  15.434   4.374 -0.1395  0.0558  0.4004
25281W        W40412   7.944   0.438  12.725 -0.0902  0.2275  0.1179
25282W        W40413   2.857  12.733   5.628 -0.2786 -0.3013 -0.0744
25283W        W40414   9.351  12.979   1.991  0.2527 -0.0397 -0.0875
25284W        W40415   9.337   1.653   1.867  0.0728  0.0074 -0.1726
25285W        W40416   8.105   9.259   0.640 -0.0355 -0.1037 -0.1005
25286W        W40417   9.759   6.893   0.968  0.0891 -0.0549 -0.2204
25287W        W40418  12.820  14.348   5.856 -0.3150  0.2276  0.1815
25288W        W40419  12.052  15.532   4.952 -0.1343 -0.1146 -0.2874
25289W        W40420   0.389   7.959   3.807  0.1001  0.1778 -0.2853
25290W        W40421   1.096   3.516   0.909  0.1034  0.0523  0.0618
25291W        W40422  14.871   6.353  15.815 -0.0505 -0.1671 -0.2061
25292W        W40423  11.680  17.937   0.967 -0.4319  0.0022 -0.0738
25293W        W40424   4.715  12.285  12.878  0.0267  0.0391  0.0411
25294W        W40425   9.310  17.341  11.075  0.1370 -0.3687 -0.0878
25295W        W40426  12.916   7.027   2.019 -0.1287 -0.1334 -0.1504
25296W        W40427  16.872  17.614  14.958  0.0710  0.1175 -0.4127
25297W        W40428  13.401  15.099   3.650  0.1055 -0.0741 -0.0467
25298W        W40429  11.720   9.227   2.027 -0.0202  0.0298  0.2792
25299W        W40430   3.213  15.960  10.282  0.1441 -0.2446 -0.1406
25300W        W40431   9.071   7.056   4.437 -0.0302  0.1298 -0.2102
25301W        W40432  16.899   0.078  14.668 -0.2990 -0.1936  0.0321
25302W        W40433   9.962   6.316   3.793  0.0109 -0.2144 -0.0878
25303W        W40434  14.829  15.291   0.231 -0.0564 -0.0309 -0.0782
25304W        W40435   2.569  15.911  12.135 -0.1631  0.2820 -0.0375
25305W        W40436  17.884  11.966   4.896 -0.0244  0.1258 -0.1515
25306W        W40437   5.802   5.901   5.740  0.0647  0.0227 -0.2648
25307W        W40438   5.183  10.256  15.259  0.0904  0.0649 -0.3422
25308W        W40439   2.393  13.663   0.731  0.0412 -0.0922  0.2646
25309W        W40440   5.202  13.841  13.163 -0.1902 -0.0292  0.0793
25310W        W40441   5.284   7.871  10.655  0.2719 -0.1893  0.1041
25311W        W40442   7.146   1.004  12.712  0.1117  0.0260  0.0235
25312W        W40443   2.519   5.816  10.813  0.0978  0.1322  0.2798
25313W        W40444   1.504  14.427   4.474  0.3108  0.4010  0.1873
25314W        W40445  16.278  17.281  14.225 -0.0304 -0.2578  0.0256
25315W        W40446  13.519   8.178   0.777 -0.0310 -0.0185 -0.0683
25316W        W40447  11.319   2.628  15.235  0.0255  0.1440 -0.1503
25317W        W40448   5.070   7.032   2.941  0.1085 -0.2011 -0.2665
25318W        W40449  11.026  14.839   3.397  0.0915  0.0819 -0.2077
25319W        W40450  10.413  11.938   4.801  0.0455  0.1255 -0.1115
25320W        W40451   5.272  14.689   2.260  0.1359  0.1611 -0.1758
25321W        W40452   8.401   4.264   0.903  0.2555 -0.0504  0.0154
25322W        W40453  16.781  15.958   1.572  0.1499  0.1509  0.1124
25323W        W40454  17.544  15.281   1.457 -0.1832 -0.0273  0.4644
25324W        W40455  18.141   4.466  10.882  0.1405  0.3110  0.0841
25325W        W40456  13.115  14.116   2.877 -0.0560  0.1106  0.1250
25326W        W40457   6.600   7.344  14.392  0.0622 -0.0552 -0.0845
25327W        W40458  14.023  10.162   3.976  0.2215 -0.0053 -0.0107
25328W        W40459  13.494   5.726  11.255  0.0035  0.3068  0.1059
25329W        W40460   5.792  11.425   3.729  0.0555 -0.0267 -0.0847
25330W        W40461  10.109   4.851  11.670 -0.2060 -0.0784  0.2050
25331W        W40462   6.299   3.224   1.610 -0.0624  0.2771  0.0690
25332W        W40463  14.005  15.607   1.173  0.0455 -0.2010  0.1861
25333W        W40464   4.407   6.586  14.749  0.1425 -0.2704 -0.1880
25334W        W40465   3.693   6.512   3.409 -0.1436 -0.1425 -0.1564
25335W        W40466   2.077   7.881  12.157 -0.1582 -0.0521  0.1944
25336W        W40467  16.216  17.803  14.215  0.2019 -0.0298  0.0765
25337W        W40468   1.790   5.735  12.019 -0.1198 -0.0971  0.0411
25338W        W40469  16.710   7.825   3.659 -0.2867  0.3362 -0.0490
25339W        W40470   1.225   3.202  15.308  0.1867 -0.1896  0.2968
25340W        W40471   1.612   4.412   0.425  0.1391  0.1048  0.1899
25341W        W40472  18.055  16.929  14.452  0.0383 -0.2267 -0.3137
25342W        W40473   2.131  16.082  13.505  0.0506  0.6680  0.0612
25343W        W40474   5.930   5.056  14.846  0.0545 -0.2186  0.1525
25344W        W40475   3.954   3.652   1.362 -0.2281  0.1512  0.2009
25345W        W40476  11.544   5.533  13.945 -0.1369 -0.0705 -0.1670
25346W        W40477   7.350   7.728  14.993  0.1653  0.3187  0.2595
25347W        W40478   1.048  15.118  15.468  0.0531 -0.0175 -0.2752
25348W        W40479  10.080   2.696  12.033  0.4219  0.0641 -0.7165
25349W        W40480   8.372  13.847   3.573  0.2451 -0.1007  0.2226
25350W        W40481  16.857  16.427   4.466  0.0103 -0.3627  0.1483
25351W        W40482   7.784   4.710  16.219 -0.2626  0.0710  0.0326
25352W        W40483  15.831  15.376  14.316 -0.0494 -0.0025  0.1905
25353W        W40484   0.092  14.013  13.339  0.1485 -0.2868 -0.0038
25354W        W40485   2.874  14.086   2.578  0.0276 -0.0629 -0.0917
25355W        W40486  15.867   9.612   6.285 -0.0152 -0.0235 -0.1284
25356W        W40487  15.421  12.805  10.432 -0.1268 -0.0418  0.0324
25357W        W40488   3.855   1.223   0.285  0.3257 -0.0251  0.1151
25358W        W40489   9.308  11.371   5.222  0.0134 -0.0726  0.0528
25359W        W40490   5.464   8.072  11.067  0.2387 -0.3791 -0.0715
25360W        W40491   0.294  16.296   0.800 -0.0497 -0.1081 -0.0549
25361W        W40492  12.164   4.300  15.014 -0.2355 -0.0123  0.2813
25362W        W40493  11.506  10.995  13.792 -0.1255  0.0916  0.0376
25363W        W40494  13.175  17.438   1.363 -0.1529  0.0115  0.2391
25364W        W40495   6.353  18.169  11.306 -0.6182  0.1686  0.0845
25365W        W40496   3.678  14.947  13.683  0.0873  0.3550 -0.1979
25366W        W40497   8.513   7.155  14.445  0.3741 -0.0922 -0.1501
25367W        W40498  18.136   8.089  16.127  0.1363  0.0994  0.4776
25368W        W40499   0.298   8.370  11.536 -0.0242  0.1830 -0.0688
25369W        W40500   1.308  18.017  14.821  0.0506  0.2669 -0.3405
25370W        W40501  17.097  11.186   2.337 -0.1290  0.1632  0.2025
25371W        W40502   2.689   3.672   1.639  0.0046 -0.0258 -0.1840
25372W        W40503  17.824  16.492  15.239 -0.2796 -0.3559 -0.3743
25373W        W40504  14.236   7.085   1.123 -0.0066 -0.1740 -0.1619
25374W        W40505   9.081   2.068   0.145  0.1790  0.0426 -0.0370
25375W        W40506  16.438   9.067  16.168 -0.0522  0.2356 -0.0684
25376W        W40507   4.945   2.365  13.149 -0.1702  0.4490 -0.1581
25377W        W40508  13.754  15.953   2.399 -0.0024 -0.3822  0.0409
25378W        W40509   7.677   6.421   2.335  0.2253  0.4164  0.0010
25379W        W40510  16.940  12.049  13.859 -0.3211  0.1304  0.4224
25380W        W40511   2.035  18.135  13.531 -0.0355  0.0470  0.0542
25381W        W40512  14.072  13.680   4.246  0.0845  0.1307  0.0217
25382W        W40513   2.822  15.268   1.617  0.3056 -0.1589 -0.2541
25383W        W40514   9.426  16.174   1.123  0.0746  0.1092  0.1107
25384W        W40515  13.721  14.726   5.378  0.0989 -0.0595  0.0747
25385W        W40516   0.195  10.342  14.224 -0.1812 -0.1165  0.0355
25386W        W40517   2.339   5.249  11.950 -0.3820 -0.2971  0.2219
25387W        W40518   3.666  12.915   1.931 -0.0657 -0.1077  0.5703
25388W        W40519   0.796  11.987  15.185  0.0893  0.0559  0.3222
25389W        W40520  15.370  10.888  14.152 -0.2388  0.3089 -0.1699
25390W        W40521  16.249  10.104  14.502 -0.2477 -0.1880  0.1008
25391W        W40522  17.545  11.190  11.195  0.1171 -0.0491 -0.2274
25392W        W40523   4.119   8.255  12.773  0.1249  0.3178 -0.2054
25393W        W40524  12.142   8.973   1.918 -0.4219  0.1622  0.0427
25394W        W40525   7.846   7.915   2.300  0.1352 -0.1447  0.3064
25395W        W40526  17.127  14.792   5.928  0.2681 -0.1174 -0.0869
25396W        W40527  14.696  11.328  15.268 -0.0494 -0.2428  0.0927
25397W        W40528  14.452  11.164   5.320  0.2083 -0.1047  0.0438
25398W        W40529  15.335   4.658  15.080  0.2289  0.2558 -0.4322
25399W        W40530  13.013  11.101  11.322 -0.0105 -0.1278  0.2260
25400W        W40531   4.604   4.794   3.109  0.2277  0.0438  0.3731
25401W        W40532  14.250   6.918   5.086 -0.0615  0.0740 -0.2987
25402W        W40533   2.269   1.196   3.600  0.0109 -0.1728 -0.0177
25403W        W40534  14.502  16.366   6.302 -0.4581 -0.0623 -0.2794
25404W        W40535   4.222   9.725   2.362 -0.1189 -0.1392 -0.2403
25405W        W40536  17.611   1.765  12.162  0.3122 -0.1723  0.1970
25406W        W40537   1.114  13.875  14.757  0.2621  0.0763 -0.1076
25407W        W40538   2.518  13.810  13.335 -0.1090  0.1137  0.2204
25408W        W40539   7.008   4.228  11.967 -0.2617  0.2030 -0.2652
25409W        W40540  15.255   8.789   3.829  0.2681  0.3159  0.1562
25410W        W40541   0.056  10.863   6.332 -0.2369 -0.0568  0.2540
25411W        W40542  14.232   9.781  14.397  0.3049 -0.0912 -0.0384
25412W        W40543  13.897  11.271  12.966  0.0441 -0.1903 -0.1445
25413W        W40544  11.477  17.008  14.020 -0.1372 -0.1311  0.0659
25414W        W40545  15.592  12.203  15.594 -0.1844  0.1186 -0.1665
25415W        W40546   8.684  13.419   4.384 -0.0839 -0.1646 -0.3480
25416W        W40547   8.854   8.879  13.826  0.0662  0.3881 -0.1990
25417W        W40548  16.180  16.925   0.210 -0.2617  0.0854  0.1113
25418W        W40549  14.442   2.155  12.535 -0.2945  0.2658 -0.2969
25419W        W40550   8.884  14.494  12.894 -0.0749 -0.2690  0.0475
25420W        W40551  13.173  15.009   4.159  0.1286 -0.1819 -0.0099
25421W        W40552  11.347  13.863   3.153  0.1579 -0.3501 -0.0108
25422W        W40553   2.501   2.372   3.592 -0.1014  0.0748 -0.3376
25423W        W40554   2.151  16.652   4.210  0.1799 -0.2712  0.2870
25424W        W40555  10.148   3.431  11.805  0.0534  0.2023 -0.0564
25425W        W40556   3.929  12.354  13.689 -0.1725 -0.2125  0.0741
25426W        W40557   4.912   6.204  13.778  0.0507  0.0770  0.0445
25427W        W40558   2.790  15.069  14.502  0.1625 -0.0563 -0.0753
25428W        W40559   1.584   7.136   5.120  0.2636 -0.2983 -0.2893
25429W        W40560   5.994   4.540  12.487 -0.1553  0.0865 -0.0345
25430W        W40561   3.001   7.312   3.412  0.0854 -0.0783 -0.0750
25431W        W40562   8.157   5.929  14.186  0.1689 -0.1133  0.2295
25432W        W40563   7.044  16.267  11.393  0.0116 -0.2187  0.4225
25433W        W40564  14.211  10.901  13.612 -0.0500 -0.1068 -0.2124
25434W        W40565   2.350   6.833  14.089  0.0239  0.1895  0.0360
25435W        W40566   6.311   3.163  15.229  0.0070 -0.0662 -0.0517
25436W        W40567  14.766   7.335  13.749 -0.0208 -0.0560 -0.1127
25437W        W40568   6.616   9.351  11.662 -0.3591  0.1061 -0.3515
25438W        W40569   8.965  13.066  15.619  0.1333  0.5205  0.1043
25439W        W40570  15.035  15.165  10.600 -0.0279 -0.2338  0.0398
25440W        W40571  11.388  10.355   3.891  0.3286  0.0241 -0.1346
25441W        W40572  12.086  16.252  14.888  0.1953 -0.1806 -0.5204
25442W        W40573   0.241  10.245   2.607 -0.2215 -0.1110  0.0615
25443W        W40574  12.140  17.644  11.764  0.2197 -0.1535 -0.0627
25444W        W40575   5.822   4.445  11.449  0.0120  0.2027 -0.0392
25445W        W40576   5.348  16.160   2.589  0.0251  0.1502  0.3137
25446W        W40577   8.318  11.912   2.870 -0.0581 -0.1788 -0.1368
25447W        W40578   0.101   6.262  13.759  0.0798 -0.0502 -0.1953
25448W        W40579  12.123   3.602  14.262  0.0797 -0.0742  0.2176
25449W        W40580   9.087   5.476  15.020  0.2051 -0.1177 -0.0994
25450W        W40581  16.890  13.921   0.120 -0.3774 -0.1346  0.0348
25451W        W40582   4.730   5.737  12.212 -0.4401  0.3476 -0.3110
25452W        W40583  15.348  18.181   1.938  0.3642 -0.1661  0.2849
25453W        W40584  14.662   1.988   2.022  0.4747  0.1203 -0.4864
25454W        W40585   6.262   9.341   1.963 -0.2100 -0.0289  0.2127
25455W        W40586  11.916  10.780   0.740  0.0505 -0.2123  0.0080
25456W        W40587  15.324   1.099   2.854  0.2363  0.0658  0.0819
25457W        W40588  11.851   4.830   4.614 -0.0492  0.4057  0.1203
25458W        W40589   1.255  16.389  12.173  0.0347 -0.3018 -0.2310
25459W        W40590  10.415   9.602   1.234 -0.4474  0.2499 -0.0400
25460W        W40591   7.506  17.718   4.986 -0.1562  0.1256  0.2017
25461W        W40592   5.937   7.361  15.035 -0.0874 -0.0610 -0.1605
25462W        W40593  13.038  13.609  11.835 -0.2769  0.0799 -0.2389
25463W        W40594  16.399   7.247  11.665  0.1379  0.1183  0.2219
25464W        W40595   1.362   7.667   1.516 -0.0526  0.3593 -0.3044
25465W        W40596   6.616   4.963   4.912  0.2218 -0.0792  0.1907
25466W        W40597   4.913   8.809   0.111  0.0549  0.0712 -0.0604
25467W        W40598   2.282  12.090  12.707  0.3172  0.1820 -0.2630
25468W        W40599  10.398  15.211  12.635 -0.1700  0.1507  0.0924
25469W        W40600  14.234   0.006   4.221 -0.1130  0.3348 -0.1174
25470W        W40601  12.883  13.877  14.536  0.1440  0.2150  0.1765
25471W        W40602   1.566   9.213  12.901  0.0097 -0.1716 -0.0593
25472W        W40603  13.653  17.855  15.905 -0.3541 -0.1934  0.0586
25473W        W40604  11.810  12.233   2.375  0.1861 -0.0339  0.0317
25474W        W40605   8.772  15.214  12.572  0.1065 -0.3383  0.1124
25475W        W40606  13.218   1.839   2.785 -0.0915  0.0195  0.0609
25476W        W40607  16.249   1.485   2.348  0.1913 -0.0808 -0.2458
25477W        W40608   0.867   3.350   0.293 -0.2576 -0.1468 -0.0700
25478W        W40609   5.753   2.684   3.231 -0.0486 -0.0452  0.0324
25479W        W40610   9.746   4.491   5.305 -0.2775  0.0738 -0.2033
25480W        W40611  16.729  15.757  14.405 -0.3422  0.0531 -0.1448
25481W        W40612  16.249   3.539   1.403 -0.0895  0.0792 -0.0546
25482W        W40613   3.204   1.932  12.536  0.1247  0.1852  0.0913
25483W        W40614   6.372  13.387   0.194 -0.0517  0.0151 -0.0681
25484W        W40615   7.521   1.061   3.117 -0.0460 -0.0094 -0.0217
25485W        W40616  17.858   5.342   3.674  0.0670 -0.3740 -0.0347
25486W        W40617  16.110  11.645  12.998 -0.2037  0.0147  0.0448
25487W        W40618   7.055   5.427  15.946 -0.1409 -0.1299  0.0071
25488W        W40619  15.976  17.073   5.780  0.4181  0.3846 -0.0382
25489W        W40620   6.947   8.759  13.865 -0.4477 -0.0699  0.0883
25490W        W40621  15.795  10.245  12.057  0.2256 -0.1029 -0.0947
25491W        W40622  10.983   8.420   1.734 -0.0437 -0.1063 -0.1117
25492W        W40623   1.029   6.680   0.804 -0.2273 -0.0549 -0.1987
25493W        W40624  18.023  17.618   1.157  0.0008 -0.0202  0.1271
25494W        W40625  11.847  11.625   4.487  0.4383 -0.0205 -0.0751
25495W        W40626  17.123   9.915   6.091  0.2048 -0.1288 -0.1055
25496W        W40627   9.223   7.866   0.977 -0.1776  0.2491  0.0120
25497W        W40628   6.283  13.287  12.451  0.2847  0.0143  0.1158
25498W        W40629   6.228   0.131  13.216 -0.1081 -0.0226 -0.2870
25499W        W40630   5.107   2.601   2.792  0.1991  0.3807  0.0854
25500W        W40631   4.554   3.001   1.615  0.1103  0.0325  0.1663
25501W        W40632  15.431   6.612   5.020 -0.0899 -0.0597  0.0173
25502W        W40633  10.259   9.792  15.910 -0.2736 -0.1047  0.1573
25503W        W40634   4.160   3.136  15.385  0.2341 -0.0471  0.0095
25504W        W40635  17.126   9.652  16.040 -0.0845  0.0432  0.3309
25505W        W40636   0.990   7.248  15.994  0.1239 -0.1527  0.1952
25506W        W40637  11.260   2.936   2.559 -0.3618 -0.2429  0.2123
25507W        W40638  15.386   6.338  15.170  0.2140 -0.0724 -0.1087
25508W        W40639  13.064   0.835   2.065  0.4323  0.1160 -0.0549
25509W        W40640  12.936  16.421   0.496 -0.1447 -0.1027  0.1293
25510W        W40641   8.505   0.037  13.267  0.1498 -0.1010  0.2454
25511W        W40642   6.643  13.379   1.577 -0.0180 -0.0814 -0.2079
25512W        W40643   3.842   5.573  15.160  0.0367  0.0925 -0.1223
25513W        W40644  10.419   7.108   1.664  0.0305  0.2502  0.1870
25514W        W40645  13.760   4.438  11.275 -0.0996  0.0599 -0.0648
25515W        W40646  10.513   5.150   3.141 -0.0272 -0.0068 -0.1227
25516W        W40647  16.739  12.628  14.721  0.0311 -0.2175  0.0999
25517W        W40648   7.445   4.490  13.542  0.1024 -0.2294 -0.2260
25518W        W40649  12.984  17.597   0.487 -0.2428 -0.1597 -0.0305
25519W        W40650  12.615   2.425   1.930  0.2097 -0.0050 -0.2606
25520W        W40651  17.753   0.038   1.068  0.1845 -0.0817 -0.1199
25521W        W40652  13.585   1.145  12.667 -0.2548 -0.0136 -0.3022
25522W        W40653  14.054  11.642  12.591  0.0023 -0.1221  0.1591
25523W        W40654  10.994  14.135  11.585  0.0241  0.1724 -0.0549
25524W        W40655  13.736  16.842  10.686 -0.0243  0.2032 -0.1012
25525W        W40656  12.098  11.650  15.245 -0.0380  0.1290 -0.2307
25526W        W40657   2.189   3.267  13.209  0.1424 -0.0250 -0.1022
25527W        W40658  10.683   1.320   2.395  0.4746 -0.0089 -0.1969
25528W        W40659  17.642   0.557   1.132  0.2332  0.0096  0.3144
25529W        W40660   0.002   8.238  15.087  0.0273  0.0060 -0.0100
25530W        W40661   1.060  14.165   1.230 -0.1740 -0.3525 -0.3783
25531W        W40662   4.132  17.341  13.317 -0.4803  0.1113  0.1977
25532W        W40663   6.138  15.805  10.456 -0.1390  0.1236  0.1185
25533W        W40664   7.018  16.491  13.057  0.4516  0.1059  0.3609
25534W        W40665  15.819   8.093  12.612 -0.2941 -0.1228 -0.0096
25535W        W40666   1.892  16.947  12.349  0.1357 -0.0366 -0.1461
25536W        W40667   0.247   0.439  12.700  0.0235 -0.4079  0.1645
25537W        W40668   2.976  10.151  16.037  0.0408 -0.4394 -0.1174
25538W        W40669   5.895   0.361   1.359 -0.1032 -0.1568 -0.0923
25539W        W40670  10.932   1.795  14.106  0.1186  0.2015 -0.3190
25540W        W40671   3.237   9.654   0.185  0.0067  0.0177  0.2114
25541W        W40672   1.582   1.886   3.937 -0.1134 -0.2800  0.0134
25542W        W40673   4.592   4.696   4.246  0.0460  0.0810  0.1046
25543W        W40674   4.893   7.817  13.701  0.0082  0.0463  0.1688
25544W        W40675  17.080   6.218  11.640  0.0357  0.2267 -0.2465
25545W        W40676   9.121   0.568   0.321  0.1728 -0.1493 -0.0755
25546W        W40677  17.043   1.716  16.036  0.1142 -0.1098  0.0702
25547W        W40678   2.111   7.694  11.668 -0.0732  0.0332  0.1061
25548W        W40679  12.629  17.979   5.391 -0.0562  0.0750 -0.1671
25549W        W40680  14.774   9.771  14.967  0.3499 -0.0402 -0.2599
25550W        W40681   1.062  10.149   0.359  0.1288 -0.1089 -0.0536
25551W        W40682   5.892   6.188  15.703  0.2493  0.0100  0.2452
25552W        W40683  11.003   6.190   5.208 -0.1954  0.0436  0.2334
25553W        W40684  17.755  17.361   5.001 -0.1866  0.1458 -0.1590
25554W        W40685  10.802  13.153   3.239 -0.0781 -0.0572 -0.1474
25555W        W40686  17.845  15.509  13.110  0.3382  0.2543 -0.0881
25556W        W40687  14.144  17.305  13.686 -0.0512  0.1908 -0.0120
25557W        W40688  11.548   6.176  11.489 -0.0378 -0.0694 -0.1263
25558W        W40689   1.678  15.632   2.522 -0.3094 -0.0425  0.2652
25559W        W40690  11.675   5.112   1.698 -0.1798 -0.0744 -0.2330
25560W        W40691  11.386  11.325   4.379 -0.4369  0.1687  0.0923
25561W        W40692  13.675   6.970  14.644  0.2741  0.0995  0.1765
25562W        W40693  11.866  12.100   6.133  0.1372  0.2769  0.0601
25563W        W40694  11.278   0.525  15.753 -0.0056  0.1139 -0.0394
25564W        W40695  18.057   7.167  15.167  0.0326  0.1163 -0.1539
25565W        W40696   9.230  15.890  10.470 -0.1954  0.2780  0.0579
25566W        W40697  18.175   5.016   0.825  0.1610 -0.0893  0.2067
25567W        W40698  17.951  10.273   2.377 -0.1263 -0.0976 -0.1178
25568W        W40699  13.861  12.173   3.257  0.0424 -0.1156  0.0099
25569W        W40700  14.636  16.238  15.300  0.0812  0.0860 -0.1871
25570W        W40701   6.235   1.046   3.038  0.1967  0.0135  0.0499
25571W        W40702  16.670  11.326  13.303 -0.1456  0.1411 -0.0588
25572W        W40703   1.857   5.181  11.876  0.1611  0.0835  0.0011
25573W        W40704  15.354   1.624   2.586  0.0454  0.2279 -0.3369
25574W        W40705  10.500  13.660  10.542 -0.0675 -0.0934 -0.3196
25575W        W40706   6.108   1.704  11.258  0.0983 -0.1371 -0.1669
25576W        W40707   1.420   5.568  12.341 -0.0048  0.0159 -0.1318
25577W        W40708  10.765  17.398   1.709  0.1513  0.0675 -0.0058
25578W        W40709   0.506   5.912   3.363 -0.1470  0.0115 -0.0769
25579W        W40710   3.715  11.639   2.724 -0.1100 -0.1032  0.0700
25580W        W40711   1.005   5.207  16.164  0.1634  0.3018  0.0975
25581W        W40712   1.496   0.257   2.507  0.4808 -0.1771  0.0872
25582W        W40713  14.089   6.994  16.131  0.1085  0.0159 -0.5610
25583W        W40714   3.601  14.357   4.383  0.1265 -0.3689 -0.1792
25584W        W40715   5.659  17.426   4.151  0.2793 -0.3150  0.1276
25585W        W40716   6.402   9.929   4.031 -0.1031 -0.1196 -0.2021
25586W        W40717   1.528  13.185   5.648  0.0823  0.1188 -0.1584
25587W        W40718  11.945  14.650  14.518 -0.0585  0.1316 -0.1165
25588W        W40719   9.204   5.250   5.122  0.1012  0.0701 -0.0374
25589W        W40720   7.404   6.222   5.251 -0.2398 -0.0441 -0.2037
25590W        W40721  14.080   7.510  16.079  0.0627 -0.2316 -0.2732
25591W        W40722   6.784   4.548  15.695  0.1459 -0.1862  0.3137
25592W        W40723  16.774  10.526   3.462  0.1344  0.0714  0.2437
25593W        W40724  11.563   7.231  11.968 -0.0149  0.0929  0.0094
25594W        W40725  13.492  10.539  15.996 -0.0172 -0.0197  0.1603
25595W        W40726   2.106   7.186   4.163 -0.1299 -0.1600  0.1735
25596W        W40727   7.457   4.276  12.247 -0.3744  0.0089 -0.1840
25597W        W40728  16.801  14.880   0.924 -0.0583  0.1652 -0.1321
25598W        W40729  10.208   7.844   1.382  0.0565 -0.0474  0.0440
25599W        W40730   0.957   9.694   0.239 -0.2175 -0.0256  0.0996
25600W        W40731  12.356  12.421   1.112 -0.1579 -0.1348 -0.1065
25601W        W40732  13.601  14.253  12.569 -0.1469 -0.0663  0.0345
25602W        W40733  17.343   8.973  10.645  0.0833 -0.1713  0.0606
25603W        W40734   7.367  16.279   5.116 -0.4655  0.1689  0.2624
25604W        W40735  12.577   0.614   6.092  0.0931 -0.0737  0.2366
25605W        W40736  15.868  17.200  13.143  0.0842  0.0794  0.2500
25606W        W40737   3.323  10.381  13.192  0.0710 -0.2347 -0.2808
25607W        W40738   3.750   7.795   1.347  0.1344  0.2057 -0.0719
25608W        W40739  14.882  13.140   3.884  0.0117  0.2150 -0.3914
25609W        W40740   2.150   3.514  12.729 -0.1606  0.3887  0.4410
25610W        W40741   8.122   9.642   4.813 -0.0561 -0.0797 -0.0565
25611W        W40742   8.377   0.071   2.068 -0.1744  0.2198 -0.0525
25612W        W40743  14.922  11.831   5.200  0.2970 -0.1416 -0.0387
25613W        W40744  12.673   0.921   4.374  0.1156 -0.2524  0.1355
25614W        W40745   2.746  10.300   5.921 -0.0741  0.0358 -0.2591
25615W        W40746  17.872  14.332  11.182 -0.0377 -0.1010  0.0407
25616W        W40747   3.320  15.030  16.068  0.0217  0.0413  0.1046
25617W        W40748  11.222   7.155   4.902 -0.2498  0.2852  0.0341
25618W        W40749   0.654   2.404   2.637  0.2402  0.0760 -0.2064
25619W        W40750   8.537   0.020  11.057 -0.0402 -0.4533  0.1632
25620W        W40751  18.011   2.588  15.864  0.0334  0.2427 -0.0816
25621W        W40752  12.326   7.902  15.141 -0.1831  0.1138 -0.0287
25622W        W40753   2.947  10.453   3.313 -0.0468  0.0860  0.0805
25623W        W40754   1.792  15.200   0.146 -0.0107  0.2528 -0.1211
25624W        W40755   7.302  13.727   0.287  0.0663 -0.2683  0.1131
25625W        W40756   5.840   9.401  15.547  0.1041 -0.1093 -0.1143
25626W        W40757  17.614  10.545   5.170  0.1321 -0.1675  0.1367
25627W        W40758  10.238   1.836  14.671  0.0001 -0.1743 -0.0035
25628W        W40759   0.722  10.042  14.871  0.1762  0.3763 -0.3697
25629W        W40760   2.428  11.113  16.194 -0.1167  0.1256  0.0034
25630W        W40761   0.225   6.570  12.910 -0.0408  0.0495 -0.0590
25631W        W40762   5.636   1.492  15.791  0.2131 -0.1813  0.2738
25632W        W40763  13.476   6.517   5.399  0.3514 -0.0098 -0.1076
25633W        W40764   3.032  14.831  15.617  0.0079  0.1577  0.2506
25634W        W40765  17.978   1.689   5.229 -0.0329 -0.2497 -0.0964
25635W        W40766   8.205   8.312   0.186  0.3514 -0.1167 -0.1900
25636W        W40767  10.318  13.254   1.830  0.1497 -0.2795 -0.5970
25637W        W40768  15.686  11.913  12.969  0.1828 -0.1927 -0.2081
25638W        W40769   4.370   2.683  13.215  0.0980  0.1586 -0.0194
25639W        W40770   1.904  13.521  11.494 -0.1501  0.2213  0.2979
25640W        W40771  11.393  15.591  13.599  0.1000 -0.2750  0.2044
25641W        W40772   6.881   4.896  15.231  0.2290  0.4132 -0.1483
25642W        W40773   0.631  17.442  15.713  0.1177  0.1007 -0.0598
25643W        W40774  13.256  15.455   0.784  0.2319 -0.0836 -0.2474
25644W        W40775   6.091   6.015   1.691  0.0736  0.1031  0.1153
25645W        W40776  13.455   0.661   4.516 -0.0128 -0.2729 -0.2757
25646W        W40777   3.930   5.892   0.229 -0.1447 -0.0189 -0.2791
25647W        W40778   9.968   7.039  12.756  0.3795  0.0359  0.1276
25648W        W40779   3.667  15.896   4.543  0.0657  0.1582 -0.2710
25649W        W40780   3.224  13.473   3.030 -0.1251  0.2248 -0.1665
25650W        W40781   7.599   9.361   3.191  0.2918  0.3111  0.2872
25651W        W40782   8.121   9.420  14.004 -0.0185 -0.1166 -0.0521
25652W        W40783   6.256   1.652   0.674  0.0589  0.1172 -0.0408
25653W        W40784   8.533  13.609  11.673 -0.1454  0.0257  0.0417
25654W        W40785   5.677  14.322   2.280 -0.0515  0.3924  0.1397
25655W        W40786  14.699  12.748   0.485 -0.2836 -0.3014 -0.3933
25656W        W40787  17.627   6.083  15.631 -0.2677  0.0943 -0.2151
25657W        W40788   4.586   4.553   5.831  0.2924 -0.0909 -0.2315
25658W        W40789   4.483   6.150  13.519 -0.1379  0.1025 -0.0018
25659W        W40790  14.085   3.978   2.779  0.1260 -0.1353  0.0309
25660W        W40791   3.347  15.005   4.060 -0.1248  0.1163 -0.0582
25661W        W40792   9.153   5.538  12.929 -0.2723 -0.0337  0.1074
25662W        W40793   5.464   4.141  14.717 -0.6427 -0.0793  0.2299
25663W        W40794   0.754   7.682  14.777  0.2109 -0.1113 -0.0971
25664W        W40795   8.343   7.835   0.384  0.0959  0.4463 -0.0086
25665W        W40796   5.910  12.340  12.565  0.0548  0.0857 -0.0745
25666W        W40797   7.618   4.042   4.612  0.3502 -0.0304  0.2045
25667W        W40798   7.813   0.602   5.275 -0.3856 -0.0300 -0.0910
25668W        W40799  15.791   5.375   2.235  0.1799  0.1922  0.1481
25669W        W40800   9.495  15.256  14.820 -0.3967 -0.1125 -0.1436
25670W        W40801   9.105  12.401   4.344 -0.0748  0.1034 -0.0894
25671W        W40802   5.201   7.943  14.177  0.1251  0.0215 -0.1853
25672W        W40803   6.052  14.739  13.918  0.1260  0.0630  0.0453
25673W        W40804  17.550   0.078  15.015  0.3031 -0.4153  0.4704
25674W        W40805   2.140   9.777  15.598  0.0969 -0.0512  0.3216
25675W        W40806   4.506   2.156  14.855  0.3031  0.0467 -0.2175
25676W        W40807   1.123   1.066   0.763  0.3831  0.3352 -0.1787
25677W        W40808   0.975   6.804  14.210 -0.0249 -0.0524 -0.0099
25678W        W40809  15.695  12.051   0.775  0.0298  0.0491 -0.0951
25679W        W40810  15.173   7.587   3.164 -0.2472 -0.0593 -0.0252
25680W        W40811  10.132   2.494  11.133 -0.0359 -0.0688 -0.0087
25681W        W40812  18.023  10.465  13.363  0.2714 -0.2719  0.1011
25682W        W40813   6.207   5.658  13.088  0.1159 -0.0045 -0.0737
25683W        W40814  14.331   6.829   0.298 -0.1410  0.2495 -0.0018
25684W        W40815   6.149  11.068  12.213 -0.0655  0.0294  0.1060
25685W        W40816   9.091  15.442  10.612  0.0576 -0.1548  0.0562
25686W        W40817   8.120   4.398   0.170 -0.2199 -0.2901 -0.1526
25687W        W40818  14.458   8.341  11.622 -0.0880  0.2226 -0.2651
25688W        W40819   0.539  16.385   3.963  0.0051 -0.1688  0.0396
25689W        W40820   1.312   3.307   3.570 -0.1912  0.1680 -0.5957
25690W        W40821   4.169  10.816  15.510 -0.0614 -0.3010 -0.1376
25691W        W40822   6.984  10.717  14.475  0.2363  0.3005 -0.1545
25692W        W40823  17.129   4.433   5.055  0.0159 -0.4213  0.1137
25693W        W40824  12.985  12.448  15.571 -0.1862  0.1562  0.4121
25694W        W40825   9.453   7.286   3.140 -0.1250 -0.0341  0.1648
25695W        W40826  16.123  15.359  15.605  0.0997  0.3789 -0.0535
25696W        W40827  10.167   4.812  13.239  0.0640  0.0564 -0.1723
25697W        W40828   5.505  13.391  15.105 -0.2403 -0.0806  0.3609
25698W        W40829   7.109   7.205   3.277  0.1644  0.0900 -0.1794
25699W        W40830  11.843   8.015   1.582  0.3584 -0.1093  0.1364
25700W        W40831   6.800  17.428   3.342  0.1260 -0.2735 -0.0702
25701W        W40832   6.721   5.541   4.923 -0.1078  0.4647  0.0809
25702W        W40833   9.245   7.506  11.363 -0.0830  0.3129 -0.2284
25703W        W40834  14.521   6.316   4.297  0.0414 -0.2288 -0.1601
25704W        W40835  15.044  13.945   5.642 -0.0212 -0.1917  0.2637
25705W        W40836  13.084   5.136  11.183  0.0124  0.1211 -0.0043
25706W        W40837   7.221   1.297   3.916  0.2673 -0.1581 -0.1920
25707W        W40838   8.502   5.982   5.065 -0.0062 -0.2061  0.1297
25708W        W40839  14.605  16.518  13.800 -0.3173 -0.1777 -0.4039
25709W        W40840   5.665  14.161   5.363  0.2021 -0.1394 -0.1416
25710W        W40841   5.262  14.462  14.399  0.0581 -0.1392 -0.1412
25711W        W40842  11.584  11.149  14.631 -0.1342 -0.0292 -0.4339
25712W        W40843   4.279   3.115  13.512 -0.1524 -0.0230 -0.3815
25713W        W40844   9.163  12.426  13.202 -0.0195  0.2829 -0.0376
25714W        W40845  12.374  10.202  14.594  0.2665 -0.2094  0.0818
25715W        W40846  11.505  11.091   1.010  0.2653 -0.1146  0.1853
25716W        W40847  15.728   6.991   0.515  0.1967  0.1596  0.0628
25717W        W40848   7.702  15.738  13.510 -0.0780 -0.1570  0.0325
25718W        W40849  12.421   0.546  12.079  0.3164 -0.0966  0.1709
25719W        W40850   8.174   3.981  13.024  0.0057 -0.1799 -0.2229
25720W        W40851   6.706  15.294  12.611 -0.0236 -0.0899 -0.2761
25721W        W40852   8.084  10.112  12.137  0.2140 -0.0193 -0.2364
25722W        W40853   0.036  15.981   5.810  0.0811  0.0921  0.0003
25723W        W40854   0.466  17.247   4.957 -0.0992  0.0804  0.1824
25724W        W40855  11.765   7.612  14.240  0.0098 -0.0610  0.1591
25725W        W40856   7.228   3.207   4.310 -0.1125  0.0915  0.1228
25726W        W40857   9.415   3.182  14.611 -0.2948  0.3772  0.0936
25727W        W40858  15.013   9.766   0.778 -0.2044 -0.3573  0.1901
25728W        W40859   6.312  17.261  12.413  0.1382  0.0618  0.0753
25729W        W40860   2.519  15.320  15.741  0.2498  0.1399 -0.3456
25730W        W40861  15.873   3.261  13.590 -0.2638 -0.0784 -0.1189
25731W        W40862  10.954   0.925  12.999  0.1745 -0.0245  0.0063
25732W        W40863   2.882  15.572  10.377 -0.1544 -0.1045  0.0155
25733W        W40864   2.259   1.831  14.519 -0.2178 -0.0212  0.1195
25734W        W40865  16.522  17.083   5.645 -0.1048 -0.2353  0.0448
25735W        W40866  17.161   3.151  12.232 -0.0122  0.0832 -0.1024
25736W        W40867  15.653   0.116   4.079 -0.2845  0.1146 -0.0422
25737W        W40868   8.609   5.578   5.451  0.0233 -0.2046 -0.4081
25738W        W40869  12.510  11.402  11.488  0.1252  0.1801 -0.0723
25739W        W40870  16.096   1.924   0.336  0.2297  0.0398 -0.3395
25740W        W40871  11.903  13.658   5.336  0.3093 -0.1234 -0.0038
25741W        W40872   3.829  10.405   3.007 -0.1286  0.2436  0.0992
25742W        W40873   4.031  14.675  14.449 -0.2790 -0.1067 -0.2003
25743W        W40874   1.641  12.294  11.666 -0.2009 -0.4006  0.1105
25744W        W40875  13.488   1.089   3.400  0.0731 -0.0092  0.1775
25745W        W40876  13.607  12.548  14.730  0.1399 -0.0860  0.3841
25746W        W40877  16.263  11.125   0.105 -0.0410  0.3362  0.1349
25747W        W40878   2.136   4.019  12.756 -0.1624  0.1913 -0.0062
25748W        W40879   3.256   5.013  12.210 -0.2685 -0.1162  0.2395
25749W        W40880  12.718   4.592  14.192 -0.0791 -0.0849  0.3442
25750W        W40881  16.381  10.857  15.676  0.2214  0.2923 -0.3371
25751W        W40882  17.057  15.882   3.439 -0.2718 -0.2560  0.0539
25752W        W40883  17.128   0.628   3.948 -0.0448 -0.1013  0.1498
25753W        W40884  18.069   4.366  13.437  0.0838  0.1003  0.0360
25754W        W40885  17.565  12.137   1.582  0.0086 -0.1663 -0.0324
25755W        W40886  16.024   0.523  13.750  0.2492 -0.0687 -0.0048
25756W        W40887  12.593   6.854  11.956  0.3366  0.2200  0.2075
25757W        W40888   7.016   5.085  14.117 -0.1787 -0.1414 -0.1136
25758W        W40889  11.219   4.183  10.578 -0.0167  0.1607 -0.2394
25759W        W40890   9.971   0.945   5.979  0.2500 -0.0692 -0.1463
25760W        W40891   0.479   1.528   1.181  0.1870 -0.1980  0.0114
25761W        W40892  15.367  18.027   0.047  0.0390  0.0518 -0.0604
25762W        W40893  16.919  11.112   1.285  0.1103 -0.1291 -0.1471
25763W        W40894  11.397  10.037  12.410 -0.1698 -0.2881 -0.0118
25764W        W40895   2.924   5.519  14.283  0.1300  0.0056  0.2922
25765W        W40896   1.833   5.551  11.415 -0.0752 -0.0759 -0.2086
25766W        W40897  10.042   6.307  14.018 -0.2830  0.2070  0.2054
25767W        W40898   0.130   8.956  12.744  0.0637 -0.3028 -0.4639
25768W        W40899  17.329  14.347  14.140  0.1634  0.1255 -0.2913
25769W        W40900   9.825   9.796  16.150  0.0369 -0.0797 -0.0934
25770W        W40901   2.642   7.316  12.441  0.3983 -0.2084 -0.0304
25771W        W40902  17.264  10.995  13.302 -0.2308 -0.1389  0.0682
25772W        W40903   0.974  17.552   3.120  0.4376  0.0704 -0.1403
25773W        W40904  17.387   1.369  12.506  0.2405  0.1477 -0.0864
25774W        W40905   0.796  11.194   5.137  0.0520  0.0186  0.0889
25775W        W40906   9.718   5.274   5.892 -0.0329 -0.1796 -0.0869
25776W        W40907   4.648   4.380   2.833  0.1293 -0.0827 -0.0931
25777W        W40908  11.111   7.496   2.163  0.0446  0.0754 -0.0816
25778W        W40909   5.423  12.849  15.432 -0.1350 -0.2130  0.0804
25779W        W40910   5.488   0.508  14.391  0.1098 -0.0689  0.0515
25780W        W40911   6.006   2.427   4.751 -0.1463  0.1996 -0.0990
25781W        W40912   3.978   8.221  12.221 -0.0655  0.0003 -0.2735
25782W        W40913   4.582   0.147  12.918 -0.1266 -0.0229 -0.2495
25783W        W40914   5.925   5.234   5.353  0.1915  0.1547 -0.0569
25784W        W40915   4.052   1.899   0.367 -0.1821 -0.0403  0.0036
25785W        W40916   6.551   4.388   2.837  0.2324 -0.1131 -0.0818
25786W        W40917   8.242  14.004   2.284  0.0387  0.2016 -0.0659
25787W        W40918  12.368  14.649   3.581  0.0660 -0.2440 -0.2488
25788W        W40919   5.022   5.135   0.371 -0.2939 -0.0042 -0.0958
25789W        W40920   1.525  13.024   4.653 -0.2572 -0.0121 -0.0436
25790W        W40921   8.382   8.707   0.675  0.1763 -0.1633 -0.1806
25791W        W40922   4.684   2.451   4.249 -0.1485  0.0272 -0.2453
25792W        W40923  17.164  12.847  11.775  0.0415 -0.1647 -0.1296
25793W        W40924   7.951   7.435  12.665  0.1654  0.0003 -0.0734
25794W        W40925  14.541  11.608   5.453 -0.0728  0.0094 -0.1083
25795W        W40926  14.783  11.884   3.991  0.0819  0.0202  0.2141
25796W        W40927   4.449  15.516   3.409  0.1636  0.2486 -0.2464
25797W        W40928   4.396  15.271   3.946 -0.1783 -0.0548  0.0492
25798W        W40929  15.582   9.283  15.146  0.0813  0.3488 -0.1165
25799W        W40930  15.046  11.494  16.119  0.0124  0.2406 -0.2485
25800W        W40931  13.195  16.033   0.269 -0.0702  0.2547 -0.0330
25801W        W40932   4.791  14.803   2.264  0.2437 -0.0084 -0.1486
25802W        W40933   2.422   1.369   1.402 -0.1812 -0.4028  0.1970
25803W        W40934  12.825   1.694   4.964 -0.0280 -0.0381  0.0152
25804W        W40935  16.391  12.986   1.321  0.1131  0.0614 -0.0036
25805W        W40936  10.552   6.543   3.853 -0.0101  0.2533 -0.1220
25806W        W40937   3.839  17.037  12.686 -0.0335  0.0212  0.1352
25807W        W40938  12.763   3.019   3.536  0.0542 -0.1557  0.1368
25808W        W40939  10.640   4.975   5.408 -0.0790 -0.0872 -0.0343
25809W        W40940  11.794   3.041   2.270  0.0182 -0.0591  0.0072
25810W        W40941  16.767   9.795  12.432 -0.1256  0.3107 -0.1154
25811W        W40942   0.182   3.084   0.098 -0.4015  0.1310 -0.1735
25812W        W40943  10.203   8.562   3.873 -0.1237  0.1101 -0.1027
25813W        W40944  11.106  15.264   2.560  0.0910  0.3304  0.0672
25814W        W40945   3.181   7.340   0.007  0.0956 -0.2056 -0.1083
25815W        W40946   4.769   7.140  15.708  0.4424 -0.2388  0.3629
25816W        W40947  14.463  12.029   4.498 -0.0215 -0.1158  0.0209
25817W        W40948   2.170   3.481  14.104  0.0286  0.0309 -0.0735
25818W        W40949   6.022  16.649  14.004 -0.0956  0.2001 -0.1801
25819W        W40950  12.318   2.575   0.033 -0.1358  0.1132 -0.1412
25820W        W40951  10.870  14.035  10.813  0.0246 -0.1925 -0.4578
25821W        W40952  10.376  11.416  13.376  0.0971 -0.1253  0.0136
25822W        W40953   6.275  14.264  11.895 -0.1627  0.1500  0.0903
25823W        W40954  16.056   2.311   3.266  0.0441 -0.0762 -0.0139
25824W        W40955   6.075  16.569  15.030  0.1956  0.0005 -0.1661
25825W        W40956  11.918  17.127  15.808 -0.1501 -0.0228 -0.2998
25826W        W40957   4.661  14.864   0.910 -0.2289 -0.2937 -0.2473
25827W        W40958   0.789   0.578   4.466  0.1246  0.2222 -0.2501
25828W        W40959  15.842   3.763  15.191  0.1262  0.0319  0.0765
25829W        W40960   2.645  14.887   3.665  0.0429 -0.1120 -0.1248
25830W        W40961   5.937   3.230   5.199  0.0158  0.2232 -0.0792
25831W        W40962   7.091   8.137   1.825  0.1396 -0.0568 -0.3699
25832W        W40963   2.183   4.725   4.550 -0.1373  0.0001  0.1079
25833W        W40964   0.904   5.958  14.201  0.0558  0.0865  0.1701
25834W        W40965   3.949  11.778  11.378  0.3171 -0.0704 -0.1203
25835W        W40966   5.060   6.842  15.360 -0.2037 -0.0878  0.0724
25836W        W40967   4.757  13.162  14.358  0.1916 -0.0213 -0.1962
25837W        W40968  10.827  15.666   1.065 -0.0798 -0.1076  0.1182
25838W        W40969   6.394  17.822  10.851  0.0355 -0.0139 -0.3682
25839W        W40970  13.433  13.017  12.520  0.0240  0.1831 -0.0012
25840W        W40971   7.912  18.041   9.772 -0.2895 -0.0021  0.1108
25841W        W40972   7.807   5.732  15.442  0.0266  0.1982 -0.1581
25842W        W40973  13.855   5.240   3.165  0.2018  0.0175  0.0371
25843W        W40974  17.235  12.710  12.421 -0.1569 -0.4543 -0.1276
25844W        W40975  11.701   0.131   5.484 -0.3494 -0.1566 -0.2010
25845W        W40976   9.982   7.127  14.051  0.1066  0.2344 -0.0505
25846W        W40977   9.630   9.153   6.214 -0.1504  0.2079  0.2045
25847W        W40978   8.965   0.080   2.236  0.0368  0.2050 -0.1741
25848W        W40979   2.220   9.228   5.704 -0.0249  0.0886  0.0029
25849W        W40980   5.683   4.745   2.673  0.1277 -0.3003  0.0354
25850W        W40981  13.750   0.072   4.339 -0.3705  0.0470 -0.1898
25851W        W40982   7.051  17.451   1.900 -0.1841 -0.1500 -0.1290
25852W        W40983  15.099  11.942   0.137 -0.2597  0.0125  0.2652
25853W        W40984  10.507   4.759   3.491  0.1778  0.0837 -0.2319
25854W        W40985   0.329   2.912   1.013  0.2770 -0.0212  0.1163
25855W        W40986  17.630   2.961  14.292  0.2816  0.0949 -0.0460
25856W        W40987   6.468  12.190   2.802  0.1634  0.1565  0.0477
25857W        W40988  10.135   2.093   4.871 -0.3793 -0.1412  0.1487
25858W        W40989  11.005  14.404  13.132  0.1567  0.2709 -0.0688
25859W        W40990  15.998   3.269  12.635 -0.1950  0.0431 -0.0197
25860W        W40991  17.979   6.472  15.783  0.0341 -0.0251  0.2183
25861W        W40992   6.759  10.563   3.911  0.1245 -0.0871 -0.4419
25862W        W40993   2.337   5.721   1.264  0.2041  0.4245 -0.2189
25863W        W40994  17.488  15.850   5.105 -0.1569  0.1063 -0.0101
25864W        W40995  16.592  16.025  15.712 -0.1078 -0.1154 -0.1711
25865W        W40996   9.985  10.851  16.177 -0.1781 -0.1085  0.0151
25866W        W40997  17.692  13.342   6.035  0.1469  0.0319 -0.2253
25867W        W40998   5.409   1.827   1.815  0.0109 -0.2068  0.1423
25868W        W40999   0.793  17.979  14.952  0.1294 -0.1889  0.3587
25869W        W41000  15.731  14.693  11.194 -0.1543 -0.1097 -0.2719
25870W        W41001  17.344   5.076   3.355  0.1711  0.3169 -0.1255
25871W        W41002   7.626  10.560   1.060  0.2269  0.0008  0.3833
25872W        W41003   5.511   0.633   0.035  0.1486  0.0140  0.3141
25873W        W41004   6.615  15.010  14.764 -0.1875 -0.0443 -0.0672
25874W        W41005   4.764  12.622   1.812 -0.0806 -0.0002  0.2668
25875W        W41006  17.918   0.693   4.340 -0.0048  0.0356  0.3473
25876W        W41007  10.694  15.261   1.291 -0.0331 -0.0739 -0.0689
25877W        W41008   8.652   4.829  10.183  0.0873 -0.0079 -0.0089
25878W        W41009  16.749  14.800  11.042  0.0358  0.2816 -0.0725
25879W        W41010   5.948   8.709  13.795 -0.0911  0.0207  0.1301
25880W        W41011  12.335   1.474   0.462  0.4640  0.0954 -0.0495
25881W        W41012   0.434  12.928   1.826 -0.0645  0.0593  0.0893
25882W        W41013   3.229  12.544   4.340  0.3684 -0.0235 -0.4493
25883W        W41014  14.223  12.682  11.470 -0.3240  0.1939 -0.2931
25884W        W41015   9.661  18.135  15.359  0.2637 -0.2577  0.0151
25885W        W41016  17.643   7.892   0.587  0.0781  0.0766 -0.0515
25886W        W41017   7.749  16.931  15.778 -0.1670 -0.0212  0.1417
25887W        W41018  10.930   9.636   4.207 -0.0063  0.3899 -0.2869
25888W        W41019   8.545   3.955  10.720  0.1419 -0.0273  0.4534
25889W        W41020  17.129  15.859  13.105  0.2612 -0.0349  0.4498
25890W        W41021  17.147   4.933  10.438  0.1622  0.0728  0.1029
25891W        W41022   6.148   6.977  13.191 -0.1819  0.1119 -0.1098
25892W        W41023  14.821   6.824   4.281  0.2986  0.2261 -0.0683
25893W        W41024   0.668  12.583   5.739  0.4281 -0.1598 -0.1217
25894W        W41025   2.650  11.096  12.046 -0.0036 -0.0864 -0.2808
25895W        W41026   3.487  12.102  15.836 -0.1493 -0.1853  0.1163
25896W        W41027  16.951  10.602  12.630 -0.2982 -0.0815  0.2315
25897W        W41028  10.536  11.875   3.590 -0.1037 -0.2288 -0.0262
25898W        W41029   9.505   7.820  12.623  0.2985 -0.0152 -0.0717
25899W        W41030  12.225   8.858  14.489  0.1002 -0.0209 -0.0816
25900W        W41031  11.902  10.691  13.889 -0.1327 -0.2956  0.1929
25901W        W41032   8.212   7.442   5.872  0.0913 -0.1950  0.0651
25902W        W41033  10.889  15.893  14.102 -0.0588 -0.1208  0.0665
25903W        W41034  16.113  17.669  11.487  0.3321  0.0353  0.1430
25904W        W41035   8.219  14.621   9.941  0.0002 -0.1744 -0.1330
25905W        W41036   9.863   4.062   0.133 -0.1962 -0.3191  0.1948
25906W        W41037   6.167   0.474  13.567 -0.1165 -0.2731  0.1937
25907W        W41038   1.450   3.196  11.696 -0.1093  0.1742 -0.1728
25908W        W41039  15.177   7.560  12.842  0.0915  0.1275 -0.1435
25909W        W41040   6.998  13.202  12.935  0.0769 -0.0062  0.1152
25910W        W41041   5.620  16.810   2.873  0.3971 -0.0662  0.1972
25911W        W41042   5.695   0.761  12.627  0.0534  0.2412  0.0328
25912W        W41043   0.169   9.722  12.273  0.2088  0.0309 -0.1822
25913W        W41044  12.856   8.147   5.479 -0.0354 -0.0411 -0.2487
25914W        W41045   0.860  10.126  16.137  0.0599  0.0017 -0.0354
25915W        W41046   3.966  16.929   0.289  0.1992  0.1582 -0.1803
25916W        W41047   4.010   9.309   4.321 -0.0737  0.1414 -0.0504
25917W        W41048   5.584  16.378   4.637  0.0491 -0.1935  0.1758
25918W        W41049   9.566   1.885  14.215  0.0703 -0.2840  0.0839
25919W        W41050  11.252   3.707  14.908  0.2117  0.0243 -0.0760
25920W        W41051   1.944  14.573  12.306  0.0153 -0.3152  0.2226
25921W        W41052   5.236   2.663  11.288 -0.0245 -0.0935 -0.0623
25922W        W41053   9.581  14.905   2.031 -0.1966  0.3680  0.1126
25923W        W41054   6.024   4.768   3.527 -0.0815  0.1673 -0.1119
25924W        W41055   4.382   4.910  16.095 -0.1101  0.7922  0.0920
25925W        W41056   2.851   1.675  15.508  0.0211  0.0923  0.0976
25926W        W41057   3.601   1.058   3.591  0.0502 -0.3390  0.2756
25927W        W41058   0.079   2.321  11.200  0.2897  0.0617 -0.0967
25928W        W41059   9.292   7.584  13.969 -0.1695 -0.1369 -0.0319
25929W        W41060   3.317  17.191   5.009  0.0295 -0.1653  0.0455
25930W        W41061   0.882   5.174  10.950  0.0683  0.2701  0.0040
25931W        W41062   7.388   1.773  12.240  0.1893 -0.0178 -0.0951
25932W        W41063   8.018  17.502   4.989  0.3143  0.0004  0.1684
25933W        W41064   4.813   1.896  13.453 -0.1035  0.0258 -0.2912
25934W        W41065  12.978   7.700  13.530 -0.1992 -0.1805  0.0853
25935W        W41066   3.886   9.565  10.972 -0.0722  0.0521 -0.0529
25936W        W41067  14.267  11.553  11.222 -0.1316  0.0445 -0.2050
25937W        W41068  15.293   6.118   2.269 -0.2581 -0.1640  0.1946
25938W        W41069  14.685  14.808  15.509 -0.1392  0.3384 -0.0591
25939W        W41070   1.515  14.583   3.283  0.0599  0.1181 -0.1068
25940W        W41071  11.823  13.787  14.716  0.0715 -0.0950 -0.0296
25941W        W41072   0.718  11.039  15.468 -0.1578  0.2202 -0.0480
25942W        W41073   8.442   3.398  14.638 -0.0994 -0.0694  0.0416
25943W        W41074   9.105   3.005  13.003  0.0625 -0.0581  0.0284
25944W        W41075  17.415   8.395  13.677 -0.1635 -0.2825 -0.2988
25945W        W41076   9.953   6.764   4.110  0.2294  0.3423 -0.0713
25946W        W41077   5.439   1.946  14.890  0.1881 -0.0144 -0.1253
25947W        W41078   4.431  14.224  16.093  0.2106 -0.1636  0.0667
25948W        W41079  13.350  16.940  12.893  0.1610  0.2447 -0.0784
25949W        W41080   8.375   1.703  14.976  0.1847  0.0681  0.2888
25950W        W41081  16.725  14.203   1.935 -0.2121 -0.0345  0.0740
25951W        W41082   4.777   5.227  16.073 -0.1279 -0.0046 -0.0655
25952W        W41083   7.691   2.529   6.193 -0.2339  0.1618  0.0303
25953W        W41084  11.782   3.924  12.326  0.0381  0.2542  0.2376
25954W        W41085   7.838  15.169  10.929  0.2560 -0.0201  0.0653
25955W        W41086   3.388   2.799  15.728  0.2627 -0.0312 -0.1839
25956W        W41087   1.389   9.247  14.307  0.0747  0.1280  0.3347
25957W        W41088   5.748   4.487   2.274  0.0366  0.0278 -0.0642
25958W        W41089  11.580  10.729   2.676 -0.3143 -0.1475 -0.0395
25959W        W41090  13.102   4.765   1.494  0.0504  0.1147 -0.0268
25960W        W41091   3.823   8.341   0.705 -0.1777 -0.1477 -0.2404
25961W        W41092  14.126  17.163  10.784 -0.1659 -0.2727  0.0105
25962W        W41093   2.570  16.146   3.640  0.0938 -0.1959 -0.0277
25963W        W41094   7.944  15.585   3.435 -0.2471  0.0657  0.1099
25964W        W41095   2.735   2.053  14.548 -0.1204 -0.0373 -0.0697
25965W        W41096   6.595  14.716   4.201  0.0028 -0.1196 -0.0415
25966W        W41097  18.117   8.140   1.234  0.0374 -0.2591 -0.0241
25967W        W41098   4.208  18.045  12.000 -0.1002 -0.0618  0.0097
25968W        W41099   5.602   1.261   4.752 -0.2850  0.1472  0.0598
25969W        W41100  14.994  11.263   5.329  0.3449 -0.1854 -0.1553
25970W        W41101  11.299   3.576   0.231  0.1757  0.0050 -0.1345
25971W        W41102   5.389  11.551  14.077 -0.2561  0.0580 -0.1379
25972W        W41103   5.046   6.548  15.852  0.0231 -0.0843  0.3719
25973W        W41104  12.399   6.281   0.238  0.3480  0.0017 -0.0979
25974W        W41105   6.677   8.250  11.664 -0.0245  0.1924 -0.0656
25975W        W41106   5.045  17.954   1.604  0.2608 -0.0550 -0.0925
25976W        W41107   6.289  13.175   0.667 -0.1390  0.4170 -0.0785
25977W        W41108  16.698   3.789  14.549  0.2389  0.0704 -0.3394
25978W        W41109   0.644   4.006  12.710  0.1335 -0.0330  0.1070
25979W        W41110  13.395  12.406  11.610 -0.2370 -0.0632  0.2292
25980W        W41111  16.147  17.163  13.631 -0.1396  0.1492  0.0154
25981W        W41112   0.218  11.238   3.657 -0.0534  0.0703  0.0084
25982W        W41113   9.539   5.795  15.931 -0.0008 -0.0500  0.0438
25983W        W41114  17.772  10.117   0.108 -0.0630  0.2775 -0.2170
25984W        W41115  14.803  14.464   0.118 -0.1168  0.1883 -0.1939
25985W        W41116   4.642  10.804   5.433 -0.2829  0.2219 -0.0264
25986W        W41117   8.057  10.684   5.685  0.0921 -0.2262  0.1020
25987W        W41118   4.758   0.230   2.707  0.2313  0.0027  0.2748
25988W        W41119  14.293  15.836   2.802 -0.2696  0.0655  0.1830
25989W        W41120   3.110  11.744  15.036  0.0064  0.0508 -0.5755
25990W        W41121   0.696   4.925   1.271 -0.0830  0.2024 -0.0675
25991W        W41122  16.213   1.605  11.560  0.2666 -0.0782 -0.1634
25992W        W41123  12.540  13.826   0.496 -0.0687  0.2343 -0.3152
25993W        W41124  12.639   0.580   1.838 -0.1714  0.1813 -0.0782
25994W        W41125  10.738   4.485   3.792  0.1504 -0.0498 -0.0896
25995W        W41126  13.965   0.781   1.062  0.2676 -0.3169  0.3580
25996W        W41127   7.452   0.380   2.642 -0.0510  0.2385 -0.1383
25997W        W41128   9.569  15.519  12.102  0.2317  0.1086 -0.2844
25998W        W41129  15.853  12.270   1.154 -0.0369 -0.0520  0.0226
25999W        W41130  13.911  10.003   0.576  0.3353 -0.0263 -0.1202
26000W        W41131   8.389   6.955   5.049 -0.0271  0.1169 -0.0004
26001W        W41132  13.011   7.408  13.080  0.3544 -0.0114 -0.0645
26002W        W41133   7.931   5.937  15.903 -0.3351  0.0974 -0.0130
26003W        W41134  17.331   4.835  13.628 -0.0271  0.0009 -0.0665
26004W        W41135   0.931   4.656  12.682  0.0071  0.2012  0.1577
26005W        W41136   1.389  14.891   4.578 -0.2319  0.0376  0.2133
26006W        W41137  16.784  13.994   1.008 -0.0297 -0.1429 -0.1088
26007W        W41138   6.433   9.816  10.257  0.1291 -0.1875 -0.2246
26008W        W41139   6.057  12.087   3.150 -0.2169 -0.0001 -0.1217
26009W        W41140   6.994  17.325  10.562 -0.1881  0.0918  0.1766
26010W        W41141   7.926   8.789   1.489  0.0518  0.0487  0.0796
26011W        W41142   2.213   0.415   1.250  0.2130 -0.1469 -0.1378
26012W        W41143  17.704   4.771   2.984  0.0758  0.0526 -0.0575
26013W        W41144   8.403   7.304   0.225  0.0842  0.0404 -0.0886
26014W        W41145   8.923  15.113  15.558 -0.0659 -0.1874  0.0433
26015W        W41146  17.750  18.066  11.177 -0.0443  0.3249 -0.2200
26016W        W41147  13.914   0.046  12.733 -0.0575 -0.0575  0.0841
26017W        W41148  12.752  16.625   1.599 -0.0566  0.2198 -0.0840
26018W        W41149   2.548   1.663   3.129 -0.0211  0.2151 -0.1239
26019W        W41150  11.648  17.115  10.888 -0.3673  0.1081 -0.2143
26020W        W41151  10.367  13.517  14.215 -0.1553  0.1936  0.1833
26021W        W41152   1.337   3.344   1.346 -0.1950 -0.1444 -0.0159
26022W        W41153  14.019  11.362   1.113 -0.0362  0.0848 -0.0389
26023W        W41154   7.836   2.130  11.760 -0.1212 -0.2300 -0.0557
26024W        W41155  15.201  16.294  15.640 -0.0651 -0.0911 -0.1545
26025W        W41156  12.760   6.222   3.622  0.0517 -0.1742  0.2252
26026W        W41157   0.852  14.536   5.013  0.2334 -0.0769 -0.1439
26027W        W41158   7.091   3.267   5.780  0.0085  0.0079 -0.0334
26028W        W41159   0.543  14.023  12.452  0.0094 -0.1032 -0.0945
26029W        W41160   3.946   2.124   5.416  0.0333 -0.1998 -0.2847
26030W        W41161   6.135   1.910   1.065 -0.1420  0.3899 -0.3316
26031W        W41162   1.379   2.142   3.233  0.0810 -0.1382 -0.4301
26032W        W41163   2.575  18.121  15.481  0.0266  0.2003 -0.1249
26033W        W41164   3.620   9.876   0.914 -0.0630  0.0104  0.2210
26034W        W41165   0.232   9.356  16.149 -0.2220  0.0299 -0.2962
26035W        W41166   9.754  15.924   5.716  0.0283  0.0470  0.2296
26036W        W41167  15.107   7.118  14.087 -0.2870 -0.1946 -0.2291
26037W        W41168   4.341   0.688   5.042  0.2756 -0.1643 -0.0782
26038W        W41169   7.550  10.900   0.485  0.0707 -0.2439  0.2814
26039W        W41170   1.246  12.985  13.321 -0.2342 -0.1388 -0.4673
26040W        W41171   1.827   0.966   3.399 -0.0286 -0.0049 -0.1326
26041W        W41172   1.331   8.714   5.466  0.0655 -0.1060  0.3468
26042W        W41173   2.516  14.791   2.437 -0.0902  0.0545 -0.0574
26043W        W41174   0.384  14.377   5.896  0.3866  0.0895 -0.2565
26044W        W41175  12.101   7.344  13.140  0.1760 -0.1686  0.1192
26045W        W41176  11.358   6.614   2.243  0.0135  0.1225 -0.0937
26046W        W41177  15.108  17.757  12.118  0.0512 -0.0557 -0.0364
26047W        W41178  16.644  12.207  11.945 -0.0254  0.2216  0.3073
26048W        W41179  11.434  17.421  16.047 -0.2037 -0.0692  0.1941
26049W        W41180   6.423  11.635  11.443 -0.1503 -0.1319  0.2053
26050W        W41181  10.830  17.132  14.504 -0.2694  0.0275 -0.1299
26051W        W41182  14.215   2.469  12.888  0.1001 -0.1450  0.0364
26052W        W41183   8.386   1.908   2.653 -0.0133 -0.1264 -0.0053
26053W        W41184   1.913  12.345  12.536 -0.3260 -0.0211 -0.0660
26054W        W41185  17.463  10.672  12.742  0.2145  0.2062 -0.3071
26055W        W41186  11.354  15.677   3.194  0.0462 -0.1046  0.1000
26056W        W41187   3.555  11.188  11.226  0.0559 -0.1252 -0.0804
26057W        W41188  17.653  16.498   6.332  0.0471 -0.0165  0.2320
26058W        W41189   0.664  11.839  12.547  0.2653 -0.0679 -0.1095
26059W        W41190   7.418  12.603  13.219 -0.0595  0.2515 -0.2831
26060W        W41191   3.734  16.831   4.914  0.2919  0.1644 -0.3216
26061W        W41192   6.243  16.320   2.754  0.4709 -0.0545  0.3835
26062W        W41193  14.665   5.488   5.580  0.0497  0.1579  0.2076
26063W        W41194   1.799   0.804  10.456 -0.2598  0.2077  0.0877
26064W        W41195   2.108  11.192   9.837 -0.2550  0.0649 -0.4200
26065W        W41196   3.003  12.243   3.576 -0.0318  0.0176  0.2086
26066W        W41197  16.408   2.782  14.169  0.1450 -0.1674  0.0101
26067W        W41198  10.815   5.745  15.679 -0.1055 -0.2174  0.0560
26068W        W41199   2.246   5.930   0.378  0.2310  0.2513  0.3340
26069W        W41200   0.462  16.712  12.793 -0.1109 -0.0775 -0.2131
26070W        W41201   9.167  14.168   3.250  0.3647  0.0420 -0.1532
26071W        W41202   5.507   1.849  13.850  0.1279  0.1185 -0.0299
26072W        W41203  15.347   2.506   2.273  0.3839  0.0999  0.0215
26073W        W41204  11.460   4.896  15.409  0.0236 -0.3524  0.0119
26074W        W41205   5.234   6.919  11.074  0.0116 -0.2469 -0.1301
26075W        W41206   9.360  16.211  11.365 -0.4738 -0.1108 -0.3089
26076W        W41207   3.226   6.071   1.269  0.1138  0.0322  0.1201
26077W        W41208   5.382   6.929   0.792 -0.2919 -0.0761  0.0633
26078W        W41209   7.259   5.044   3.751 -0.0726 -0.2363 -0.0147
26079W        W41210   3.994  12.423  13.164  0.1992  0.0595 -0.1143
26080W        W41211  12.429   1.860  11.499  0.1677  0.3358 -0.3342
26081W        W41212  17.213   6.381  14.978  0.0530 -0.3133  0.0959
26082W        W41213   4.550   4.007  12.625 -0.0198  0.3451 -0.0908
26083W        W41214  17.170   1.129  10.285 -0.3079 -0.1083  0.0991
26084W        W41215   1.211   0.734  11.541 -0.3955 -0.0892  0.1385
26085W        W41216  16.756   9.807   5.399  0.0820  0.0237 -0.2607
26086W        W41217  12.527   8.307  15.421  0.3273  0.0017  0.2343
26087W        W41218   3.977   3.369  13.193 -0.1039 -0.1533  0.1148
26088W        W41219  14.919   3.162   5.053 -0.3489  0.2492  0.1086
26089W        W41220   7.772   5.521  11.026  0.0855  0.1730  0.5504
26090W        W41221   6.425   3.213   4.917 -0.2071 -0.1152  0.1755
26091W        W41222   0.737   5.544  14.536 -0.0688  0.0840  0.3044
26092W        W41223   7.474   6.522  13.444  0.1946 -0.0702 -0.1274
26093W        W41224  17.284  16.788   1.777  0.3001 -0.3587 -0.2742
26094W        W41225   2.014  17.850  12.746 -0.2070 -0.0707  0.2944
26095W        W41226  14.341  11.788   0.961 -0.1166  0.1635  0.0204
26096W        W41227   7.266   6.342   1.464 -0.2226  0.2943 -0.1247
26097W        W41228   0.007  11.050  12.024  0.0854  0.1114  0.1419
26098W        W41229   3.501   9.914   3.591 -0.0666 -0.3761 -0.1975
26099W        W41230  15.035  17.716   2.479 -0.3377 -0.1038 -0.0505
26100W        W41231   9.490   1.308   4.995 -0.0493 -0.0304  0.1623
26101W        W41232   7.502   7.801  14.096  0.0194  0.1333 -0.1543
26102W        W41233  18.065   9.996  14.468  0.1419 -0.2398 -0.1910
26103W        W41234  12.945  16.272  13.138 -0.0887 -0.0870  0.0801
26104W        W41235  13.976   9.622   3.502  0.2179 -0.2060 -0.3020
26105W        W41236   9.678  14.840  13.510 -0.1656 -0.0741  0.1020
26106W        W41237   8.485   3.743  13.427  0.1294  0.3352 -0.0033
26107W        W41238   2.157  17.868  15.322 -0.2028  0.1383 -0.2444
26108W        W41239   3.027   9.268   1.938 -0.2712 -0.2646 -0.0979
26109W        W41240   5.788  15.520   2.181 -0.2311  0.1371 -0.1618
26110W        W41241   2.250   9.201   1.358  0.0969  0.1039  0.0209
26111W        W41242   5.027   4.343   3.372 -0.2774  0.1835 -0.1513
26112W        W41243  14.707   6.782  12.826  0.2995 -0.0893  0.0156
26113W        W41244  11.363  14.532   0.159  0.0862  0.0558  0.2793
26114W        W41245   8.012  12.291   2.033 -0.1844 -0.0180  0.0966
26115W        W41246   8.991  12.656  15.385 -0.0159 -0.0758  0.3267
26116W        W41247   1.267  15.069   3.222  0.1212  0.0476 -0.0359
26117W        W41248   1.971   5.040   5.969  0.0750  0.0167 -0.2807
26118W        W41249   1.992   4.709   0.596 -0.1663 -0.1172 -0.1883
26119W        W41250   5.456  10.036  13.459  0.1291 -0.1679  0.0178
26120W        W41251   2.672   6.860   1.205 -0.0237 -0.1850 -0.0251
26121W        W41252  17.761  14.663   1.436 -0.0129 -0.0641 -0.0191
26122W        W41253   0.801  17.118   4.538 -0.0753 -0.0080 -0.3758
26123W        W41254   2.305   9.779  15.096  0.1438  0.0183  0.2465
26124W        W41255   7.527  11.955   4.390  0.2105  0.1165  0.2023
26125W        W41256  11.367   1.718  13.704  0.0794  0.3667  0.2339
26126W        W41257   3.498  11.326   1.095 -0.2566  0.0082  0.0344
26127W        W41258   4.304  14.405   2.776  0.1810 -0.0146 -0.0089
26128W        W41259  16.932  15.978  13.907 -0.2896 -0.1753 -0.0501
26129W        W41260   3.349  16.899  10.829  0.1601 -0.0393 -0.1044
26130W        W41261   6.846   7.245  13.863 -0.0380 -0.1739 -0.1964
26131W        W41262  14.529  14.600   4.456 -0.0430 -0.3017  0.1761
26132W        W41263   3.349   2.987  12.385 -0.0391 -0.2004 -0.2487
26133W        W41264   1.655   4.347   3.303 -0.1635 -0.3058 -0.1827
26134W        W41265  12.002   7.368  15.161 -0.4148  0.0457 -0.2151
26135W        W41266   0.316  12.668  15.335 -0.0692 -0.2752  0.0949
26136W        W41267  15.505  17.676   1.697  0.1574  0.1628  0.1537
26137W        W41268  11.785  16.865   3.726  0.3925 -0.0259  0.1105
26138W        W41269  13.627   2.092   3.710 -0.1411 -0.0141 -0.4817
26139W        W41270   3.210   7.669  10.907 -0.1456  0.1532  0.4633
26140W        W41271   4.110   9.929   1.110  0.1481 -0.2099 -0.0043
26141W        W41272   7.455   6.125   4.771  0.2419 -0.0073 -0.1928
26142W        W41273   8.400   8.187  14.436  0.0865  0.0603 -0.0740
26143W        W41274  15.611   3.041   5.512 -0.1825  0.2547 -0.1355
26144W        W41275   8.085  10.905  11.448  0.1139 -0.0691 -0.0442
26145W        W41276  12.226   4.066  15.820 -0.1514  0.3255  0.0516
26146W        W41277  16.570  15.036   4.156 -0.0549 -0.0054 -0.2685
26147W        W41278  11.791  10.071   3.585 -0.1019  0.0960 -0.1103
26148W        W41279   0.480   7.379  10.305 -0.0439 -0.0967  0.4524
26149W        W41280  18.022   3.916   6.156  0.2174  0.0422  0.1706
26150W        W41281  14.307   0.846   5.291  0.1305 -0.0953  0.1502
26151W        W41282   0.125   9.492  10.960  0.0371  0.0589 -0.2461
26152W        W41283  16.382  18.004   1.238 -0.1972 -0.1842  0.0501
26153W        W41284   2.605   8.177   0.332 -0.2142 -0.1621 -0.1799
26154W        W41285   0.670   7.271   3.419 -0.3078  0.1767 -0.0291
26155W        W41286   7.599   9.502   4.815  0.0095  0.1826 -0.0846
26156W        W41287  16.078   8.057   0.355 -0.1604 -0.1394  0.1409
26157W        W41288   0.557  14.617  11.278  0.1385  0.2337  0.0995
26158W        W41289  13.606   8.490   1.456  0.1698  0.0491  0.0853
26159W        W41290  14.746   0.061   4.111 -0.0063 -0.1366 -0.0806
26160W        W41291  17.945   8.820   2.538  0.0043  0.2997 -0.3590
26161W        W41292  10.258   1.065   2.849  0.1860 -0.0408 -0.0153
26162W        W41293  17.779   5.905  10.775 -0.2248 -0.0605  0.0633
26163W        W41294  16.976  10.283   3.879 -0.0079  0.1997  0.3525
26164W        W41295  15.996   0.204   5.445  0.1341 -0.0585  0.1837
26165W        W41296   5.578   6.280  11.418 -0.0173  0.1333 -0.1250
26166W        W41297  10.406  10.768   0.705 -0.1556 -0.1208 -0.0998
26167W        W41298   3.027  16.771  11.726  0.0705 -0.2059 -0.1018
26168W        W41299  12.658  17.453  14.940 -0.0384  0.1524  0.0974
26169W        W41300   3.123   8.220  13.535 -0.1443 -0.2770  0.1368
26170W        W41301   6.886   4.692  11.527  0.1016  0.2021 -0.2547
26171W        W41302  13.106   4.926  12.846  0.0160 -0.1240 -0.0839
26172W        W41303  12.325  17.429  13.942 -0.1043 -0.0793  0.3577
26173W        W41304  12.416  16.462   3.872  0.2037 -0.2205 -0.0221
26174W        W41305   1.033   6.872  13.629  0.1061  0.1439  0.3009
26175W        W41306   0.409   1.956  13.727 -0.0424  0.0297 -0.1225
26176W        W41307  18.099   1.563   2.467 -0.0215  0.0297 -0.2158
26177W        W41308   9.604   9.479  11.977 -0.1760  0.4379 -0.0202
26178W        W41309   4.767  13.110  10.400  0.0519  0.0007  0.0984
26179W        W41310   7.211  10.999  11.930  0.2639 -0.2380 -0.0036
26180W        W41311   7.692   9.563  15.462  0.1525 -0.0547 -0.1210
26181W        W41312  14.060  18.077  11.257 -0.1554 -0.0926  0.0185
26182W        W41313   4.125  15.010   2.061  0.2351  0.1021 -0.2221
26183W        W41314   9.744   1.808  12.894  0.3322  0.0733  0.3913
26184W        W41315   1.146  12.125   0.177 -0.1702  0.0172  0.0358
26185W        W41316  14.107  18.143   5.379  0.3442 -0.1980 -0.1841
26186W        W41317   2.498   9.778   4.065 -0.2510  0.0362 -0.1754
26187W        W41318  13.952   5.071  13.928  0.1416 -0.2661  0.1412
26188W        W41319   2.655   1.748  16.223  0.4399  0.2094  0.0436
26189W        W41320  17.628  14.483  13.759 -0.3131  0.0121 -0.1202
26190W        W41321   8.483  16.635   2.003 -0.1013  0.0520  0.0511
26191W        W41322   8.409  11.320   0.257 -0.3942  0.1263 -0.0245
26192W        W41323   9.912  14.400  12.810  0.0846 -0.0485 -0.0192
26193W        W41324  10.788  15.673  14.718 -0.0836  0.0451 -0.0843
26194W        W41325   3.565  17.684   4.063  0.0574  0.0303 -0.1467
26195W        W41326  11.034  16.287  11.064 -0.2340 -0.0692 -0.3438
26196W        W41327   7.219   1.839   3.894 -0.0342  0.2350  0.0762
26197W        W41328  13.639  16.863   2.071 -0.1907  0.2100  0.0757
26198W        W41329   5.983   1.460   4.485 -0.0228 -0.1869 -0.2188
26199W        W41330  17.847  14.274   5.416  0.0492  0.0181  0.0404
26200W        W41331   9.612   3.803   3.493  0.0526  0.2598  0.2397
26201W        W41332  17.671   1.052  15.030 -0.1835  0.1810 -0.0480
26202W        W41333   6.336   1.269   3.586 -0.3345 -0.3816  0.2570
26203W        W41334   8.883   8.576   1.516  0.2370  0.2081 -0.0739
26204W        W41335   4.106  15.707   5.058 -0.1312 -0.1232 -0.2978
26205W        W41336   1.370   7.642   3.804 -0.2256  0.0195 -0.1098
26206W        W41337  13.234  13.585   5.309 -0.2064 -0.0269 -0.1178
26207W        W41338   2.034  13.878   3.877  0.0688  0.0870  0.5640
26208W        W41339  17.748   6.923  15.569 -0.2552  0.0012  0.2135
26209W        W41340  11.626  14.206  14.535 -0.0570  0.1819 -0.0220
26210W        W41341   0.384   3.431  14.227 -0.0719  0.0155  0.3174
26211W        W41342   2.039  16.822   4.684 -0.1979  0.0132  0.0896
26212W        W41343  11.559  11.730  15.343 -0.2383 -0.1016 -0.1024
26213W        W41344  15.931   6.015   0.453 -0.2298  0.4147  0.1920
26214W        W41345   6.721   4.961   2.603  0.3473 -0.1181 -0.1051
26215W        W41346  17.728   5.275   0.547  0.1882  0.0813 -0.1598
26216W        W41347  14.935   0.461   5.199 -0.2105 -0.1648  0.2851
26217W        W41348  14.337   0.329   1.197  0.0586 -0.0909 -0.1654
26218W        W41349   6.270  13.893  15.627  0.0022 -0.4672  0.0205
26219W        W41350  12.893   6.096   1.788  0.4352 -0.0028 -0.0394
26220W        W41351  16.292   2.119  13.042  0.1878  0.1525 -0.1844
26221W        W41352  18.126  10.052   5.227 -0.1586 -0.1162 -0.1676
26222W        W41353   0.022   7.146   4.741  0.0208 -0.0667  0.0965
26223W        W41354   1.132  11.202  11.111  0.0051 -0.1160  0.2092
26224W        W41355  15.033  17.688   4.572  0.1128  0.0170  0.0275
26225W        W41356  15.125  18.101   5.464 -0.4479  0.1511 -0.1443
26226W        W41357   0.126  15.571   3.995 -0.0267  0.0049 -0.0557
26227W        W41358   6.955   8.541  12.539 -0.0939  0.1042  0.0788
26228W        W41359   8.935  14.398   1.269 -0.0096  0.2456  0.0884
26229W        W41360   6.084   8.375  11.826  0.1565  0.1968 -0.0046
26230W        W41361   5.322   5.380   9.813 -0.1017  0.2964 -0.0327
26231W        W41362   9.789  10.765  10.703  0.0590  0.0147  0.0505
26232W        W41363   2.041   9.670   5.542 -0.3432 -0.1362  0.5508
26233W        W41364   8.607   8.281   2.051 -0.2298  0.0205 -0.0676
26234W        W41365   2.324  10.104   4.907 -0.2879 -0.1456 -0.0381
26235W        W41366   5.911   5.520  13.550  0.0055  0.1421  0.1816
26236W        W41367  16.707  13.499   5.316 -0.0899 -0.4241 -0.0286
26237W        W41368  11.276  14.879   2.797 -0.2500  0.0708 -0.0135
26238W        W41369  15.465  17.314  14.633  0.0991  0.0134  0.3552
26239W        W41370   2.876   4.756  12.166 -0.2470 -0.0261 -0.0323
26240W        W41371   9.294  17.369  15.436  0.2342 -0.2496 -0.1852
26241W        W41372   1.357  14.806  15.189  0.2919  0.3076  0.0167
26242W        W41373   6.025   0.900  11.774 -0.0767  0.1060 -0.3473
26243W        W41374   5.202  12.825  12.155  0.0107  0.1613 -0.2716
26244W        W41375  16.759  14.966  13.998  0.0733 -0.0961  0.0049
26245W        W41376   5.412   2.169   2.442  0.3368 -0.2059  0.2270
26246W        W41377   7.246  11.670   4.723 -0.0560  0.0877  0.0542
26247W        W41378   4.817   0.255  13.609  0.1667  0.1498  0.0019
26248W        W41379  16.749   4.063   2.821 -0.3439 -0.2399 -0.2114
26249W        W41380   0.554   6.338   3.856 -0.1537 -0.1650 -0.1359
26250W        W41381   1.351   2.378  12.811 -0.0674 -0.0907  0.0581
26251W        W41382  11.887  17.062   3.188  0.0320  0.1151 -0.0260
26252W        W41383  14.050   5.117  15.361  0.4066 -0.1305 -0.4649
26253W        W41384   1.551   8.855   1.002 -0.1850  0.0605  0.2409
26254W        W41385   8.018  15.892   2.507  0.4990  0.1914  0.1356
26255W        W41386   5.014  16.690  16.134 -0.1358 -0.0142 -0.0056
26256W        W41387   7.540   8.494   4.281 -0.0594 -0.3239 -0.1752
26257W        W41388  10.264  11.572   0.005  0.0832 -0.0366 -0.0929
26258W        W41389  16.887   0.438   0.079 -0.1829  0.0569 -0.0770
26259W        W41390  15.461  16.513  13.531  0.0023  0.0186  0.2731
26260W        W41391  15.477   4.441  12.203  0.1254 -0.2452  0.0587
26261W        W41392   3.471  15.488   4.271 -0.0716  0.1364  0.0935
26262W        W41393  11.436   5.461  12.114  0.0821  0.0968 -0.0285
26263W        W41394  11.087  13.975   2.303 -0.0534 -0.0091 -0.0272
26264W        W41395   2.382   4.798  13.739  0.0070 -0.0823  0.1971
26265W        W41396   5.726  12.681  12.238 -0.0253  0.0247 -0.2534
26266W        W41397   8.641   7.860   3.096 -0.0383 -0.0701  0.1245
26267W        W41398  11.809  13.664  16.208 -0.0920  0.1757  0.0957
26268W        W41399  10.993   0.256  12.064 -0.2653  0.3011  0.0462
26269W        W41400   3.494   5.698  11.795 -0.0505 -0.3210  0.0456
26270W        W41401   6.811   9.494  10.224 -0.1058 -0.2178 -0.2355
26271W        W41402  16.971   3.436   1.434 -0.2047 -0.1871 -0.1615
26272W        W41403  12.715   7.030   3.731 -0.2305  0.0472 -0.0765
26273W        W41404   1.969   8.924  11.383 -0.4315 -0.0245  0.0390
26274W        W41405   9.432   3.912   4.838  0.0818 -0.4369 -0.0634
26275W        W41406  13.773  13.871   0.799  0.2418 -0.0485 -0.2761
26276W        W41407  13.090   7.510   1.993 -0.2803  0.3705  0.1108
26277W        W41408   2.678  14.425  15.792  0.4284 -0.2544  0.0153
26278W        W41409   9.525   0.574  12.733 -0.2844 -0.2210  0.2487
26279W        W41410   3.956   6.645  14.094  0.1935  0.1609 -0.0009
26280W        W41411   1.581  15.883   4.334  0.2085 -0.0195 -0.0429
26281W        W41412   9.127  15.225   0.857  0.0982 -0.1166 -0.1364
26282W        W41413  13.279   0.288  11.540  0.3984 -0.1432  0.1646
26283W        W41414  13.447  13.163  16.204 -0.0468  0.0138 -0.1728
26284W        W41415   1.594   7.487  11.399 -0.0728 -0.2397  0.4189
26285W        W41416   9.653   0.636   5.711  0.1479 -0.1544  0.1718
26286W        W41417   1.409   9.521   2.521  0.0305 -0.0778 -0.0236
26287W        W41418   2.570  12.302  11.442 -0.0424 -0.1322  0.3554
26288W        W41419   1.601  15.761  12.857  0.0027  0.1061  0.0032
26289W        W41420   4.036   6.856  11.274  0.0235 -0.2960 -0.0399
26290W        W41421  12.252   7.355   2.125 -0.1715  0.1829 -0.2284
26291W        W41422  11.294   9.777  15.807  0.0632 -0.0667 -0.3285
26292W        W41423   2.562  12.425   1.224  0.4248  0.1612  0.1477
26293W        W41424   9.976  17.164  13.302 -0.0727 -0.1204  0.1675
26294W        W41425   4.705  17.396  15.976 -0.0790  0.1407 -0.1209
26295W        W41426  14.075   0.532   2.870 -0.0570 -0.0648 -0.2561
26296W        W41427   0.259   4.539   1.169  0.1071 -0.0113 -0.1377
26297W        W41428   5.324   4.864   4.771 -0.1202 -0.2586 -0.0241
26298W        W41429   5.143  13.242  13.050 -0.1388  0.5064  0.0501
26299W        W41430   0.591  10.266  10.119 -0.0874 -0.2149 -0.0807
26300W        W41431   7.344   0.099  11.510 -0.1065 -0.3469 -0.0474
26301W        W41432  13.997  10.388   5.688  0.3660  0.0021 -0.0645
26302W        W41433   2.786   7.462   1.787  0.1359  0.0830 -0.0333
26303W        W41434  15.490  12.907  11.405 -0.0965  0.0541 -0.2857
26304W        W41435   8.496   0.640  12.066  0.1969  0.0612  0.2882
26305W        W41436   6.165   1.559  14.404 -0.2462 -0.2561  0.1242
26306W        W41437   6.223  12.817  15.673 -0.0878 -0.3782 -0.0812
26307W        W41438  10.467   0.412   3.417  0.0490 -0.1491 -0.2065
26308W        W41439  17.890  17.360  11.743  0.0396  0.0152  0.2035
26309W        W41440   2.019   9.540  10.747 -0.0164 -0.1369  0.3706
26310W        W41441   5.109  12.702   2.347  0.0638 -0.1361  0.1350
26311W        W41442   0.188  13.708  12.169  0.0025 -0.2365 -0.1337
26312W        W41443  12.137   6.683   4.653  0.1435 -0.0985  0.1617
26313W        W41444   3.091  13.634   2.479  0.1526 -0.2361  0.1930
26314W        W41445   7.584  17.239  11.313 -0.0585  0.5170 -0.0962
26315W        W41446  17.203   3.804  13.756  0.1566  0.1147  0.0296
26316W        W41447  17.754  16.130   5.783 -0.1115 -0.0109  0.1377
26317W        W41448   0.047  16.885   5.718 -0.0991 -0.0338 -0.2705
26318W        W41449   9.004   3.027   4.832  0.0626  0.2276  0.0847
26319W        W41450   6.049  16.923   0.532  0.1625  0.1419 -0.0105
26320W        W41451   8.503   3.428   4.000  0.1068 -0.2020 -0.0465
26321W        W41452  14.932   1.986  14.254  0.0137  0.5708  0.2015
26322W        W41453  10.279  14.674   0.625 -0.0431  0.2563 -0.0954
26323W        W41454   1.401   8.177  14.982 -0.0141  0.0053  0.0756
26324W        W41455  14.233   1.905   3.484  0.2214 -0.1928  0.1765
26325W        W41456   2.802   9.641  16.002 -0.2066  0.0362  0.0863
26326W        W41457   5.782   3.346   1.475  0.1418 -0.2306 -0.1239
26327W        W41458  13.083   6.933   2.542 -0.0988 -0.0406 -0.1791
26328W        W41459  17.000   6.587  16.015 -0.0698  0.2170  0.0168
26329W        W41460   3.147   6.648  11.659 -0.2360  0.0186 -0.2240
26330W        W41461  16.730  10.020   3.128 -0.1682  0.0500 -0.1342
26331W        W41462   0.282   3.310   4.526  0.1073  0.2183 -0.0213
26332W        W41463  11.803  13.944  13.670 -0.0131 -0.0432  0.3187
26333W        W41464  11.060  18.124  11.699 -0.0871 -0.0814  0.0800
26334W        W41465   8.554  11.925  15.351  0.1290 -0.0673 -0.1625
26335W        W41466  15.041   0.575  15.710  0.0255 -0.3496  0.1775
26336W        W41467   1.339   2.986  15.718  0.1282 -0.2695  0.1311
26337W        W41468  10.561   9.495  13.585 -0.0315  0.0143 -0.0094
26338W        W41469   7.575   5.837   0.048 -0.0959  0.3022  0.1555
26339W        W41470  16.910   6.888   4.078 -0.0289  0.0315 -0.0920
26340W        W41471   7.031   4.769   2.172  0.0863 -0.1191  0.1480
26341W        W41472   9.733  14.582   0.678  0.0535  0.0458  0.0184
26342W        W41473  13.366   6.004   4.805 -0.0531  0.0814  0.0384
26343W        W41474   0.417  10.153  15.769 -0.3579 -0.1959 -0.0223
26344W        W41475   9.555  14.184   2.410 -0.0959 -0.1387 -0.2269
26345W        W41476   0.850   2.658  14.139 -0.2513 -0.1767 -0.1775
26346W        W41477  17.711  13.745   0.147 -0.0562 -0.1267  0.0112
26347W        W41478   4.510   3.146   4.729  0.3046  0.3580 -0.2772
26348W        W41479  15.806   9.058   2.451  0.0023 -0.1162  0.1979
26349W        W41480  13.305   4.893  14.388 -0.1120 -0.1535 -0.4281
26350W        W41481  10.393   1.053   0.021 -0.1078 -0.2461 -0.0061
26351W        W41482   6.559   0.832  14.896 -0.0130 -0.0900 -0.0204
26352W        W41483  17.579  10.321  12.373 -0.1809 -0.0029 -0.1415
26353W        W41484  11.785  16.479  12.607  0.1638  0.1018 -0.3584
26354W        W41485   7.475   0.916  11.281  0.2595  0.3065  0.0644
26355W        W41486  13.344  17.562  11.836 -0.0659  0.2346 -0.1526
26356W        W41487  16.873   0.763   5.363 -0.3904 -0.1600 -0.1996
26357W        W41488   9.563  17.871  14.390 -0.2623 -0.0507 -0.0657
26358W        W41489   8.154   7.300  10.875 -0.0738  0.2091  0.0813
26359W        W41490   5.257  15.145   4.159 -0.0925  0.1695  0.0723
26360W        W41491   8.364  10.448   1.547 -0.2661  0.1799 -0.3756
26361W        W41492   0.514  11.474  12.958 -0.1912 -0.2039  0.3191
26362W        W41493   7.919   7.039   4.691  0.1314 -0.0832  0.1874
26363W        W41494   7.366  13.308   2.716 -0.2825 -0.3349  0.0105
26364W        W41495  18.085  15.440  16.111 -0.0563 -0.0794 -0.1824
26365W        W41496  16.676   9.571  15.057 -0.0260 -0.0026  0.1577
26366W        W41497   9.433   0.925   1.249  0.0952  0.1901 -0.2204
26367W        W41498   9.622  15.009  11.453  0.0183 -0.1202 -0.0964
26368W        W41499  10.078  17.408   0.072 -0.2015 -0.0541  0.1781
26369W        W41500   5.697   8.014   0.166  0.2648  0.2526 -0.0517
26370W        W41501  15.926   7.333  12.983 -0.2416 -0.1681 -0.1556
26371W        W41502   6.655  12.004  10.600 -0.0762  0.1332 -0.1850
26372W        W41503   2.293   3.220   2.439 -0.3505  0.3148 -0.0866
26373W        W41504   1.968  12.971   3.602  0.0143  0.1867 -0.1251
26374W        W41505   0.633   1.750   3.859 -0.1727 -0.1064 -0.1050
26375W        W41506   7.964  15.036  16.216 -0.2742  0.2621 -0.1249
26376W        W41507   3.077   0.303  15.238  0.2290 -0.0178 -0.0024
26377W        W41508   7.443  16.452   3.054  0.1071 -0.3684  0.2110
26378W        W41509   4.828  13.087   1.892 -0.1127  0.0337  0.1378
26379W        W41510  11.370   4.572   0.200  0.0545 -0.0616  0.1515
26380W        W41511   3.300   9.666  14.316 -0.1127 -0.3152 -0.2627
26381W        W41512  12.647  16.122  13.700 -0.0778 -0.2169  0.1064
26382W        W41513  17.586  11.493   3.217  0.3098 -0.1130 -0.2346
26383W        W41514   7.162   9.581   0.874 -0.1298  0.1389 -0.0494
26384W        W41515   1.842   7.407  13.578 -0.1346 -0.0689  0.1198
26385W        W41516   3.785   1.834  15.430 -0.1413 -0.0203  0.1678
26386W        W41517  12.240   1.480  11.887 -0.1218 -0.0436 -0.1085
26387W        W41518  16.704  12.982   3.948 -0.0739  0.0003  0.1695
26388W        W41519  13.050  11.503   3.492  0.0614  0.0116 -0.2033
26389W        W41520  17.911   1.376  15.344 -0.0897 -0.2255  0.0310
26390W        W41521   3.424  17.460   4.622 -0.0866 -0.0523  0.0254
26391W        W41522   3.381  12.797   5.376 -0.1222  0.1940 -0.2874
26392W        W41523   0.247   0.961  12.999  0.1891 -0.0004  0.1288
26393W        W41524  12.956   2.062   2.171  0.1620 -0.1336  0.1713
26394W        W41525   0.491   6.949   5.064 -0.0702 -0.0096  0.2043
26395W        W41526  13.211  10.138   4.123  0.1810 -0.1079 -0.2347
26396W        W41527   3.780   1.078  13.138  0.0913 -0.2274  0.0193
26397W        W41528  10.467   6.221   1.386  0.0715 -0.2208 -0.2433
26398W        W41529   4.858   0.313   3.710  0.0516  0.0774 -0.0004
26399W        W41530   8.733  10.462   0.112  0.0034 -0.1141  0.0932
26400W        W41531   2.690   3.487   2.637  0.0049  0.0701  0.2160
26401W        W41532  14.778   2.805  14.825  0.1293 -0.1277 -0.0327
26402W        W41533   1.483   4.794  13.961  0.0454  0.0499 -0.0694
26403W        W41534  17.015   9.067  12.685  0.1979 -0.1553  0.1496
26404W        W41535  15.176   2.470   1.552  0.0381  0.2378  0.1104
26405W        W41536   8.969   9.392  12.907  0.1545  0.1761  0.0693
26406W        W41537   0.451   0.545  13.209  0.0659 -0.0405  0.3130
26407W        W41538   9.074   9.158   4.082 -0.0945 -0.1105  0.3663
26408W        W41539   0.444  16.337   5.223 -0.0408 -0.1582 -0.0426
26409W        W41540  18.158   7.461  11.735  0.2818 -0.2146 -0.0035
26410W        W41541  13.586   6.382   2.870 -0.2230 -0.0693  0.1352
26411W        W41542   8.867   5.409   1.915  0.0500 -0.1583 -0.0667
26412W        W41543  12.820   6.062  15.334  0.0169  0.0081 -0.0051
26413W        W41544  10.858   0.397  16.011 -0.1340  0.1181  0.0575
26414W        W41545   1.472  12.272   2.012  0.1483  0.2807  0.0844
26415W        W41546   8.824  11.501   4.377  0.0360 -0.0598  0.0014
26416W        W41547   0.309   5.695   5.022  0.4124  0.2716  0.1257
26417W        W41548   0.357  10.965   4.990  0.0951 -0.0080 -0.0172
26418W        W41549   7.152   6.877  12.213 -0.3724 -0.1672  0.1799
26419W        W41550  10.684  16.403   0.078  0.2929 -0.1490 -0.2590
26420W        W41551   8.235   2.451   2.005  0.1399  0.1927  0.0511
26421W        W41552   6.636  14.219  14.270 -0.0241 -0.0278  0.0567
26422W        W41553  16.681  10.311   2.126 -0.2677  0.0091 -0.1409
26423W        W41554  14.745   2.713  12.186 -0.0027  0.0269  0.2007
26424W        W41555   0.538  12.113   5.387  0.1241  0.0796 -0.0801
26425W        W41556   2.054   1.153  11.359 -0.0487  0.4320  0.1807
26426W        W41557  16.850   4.838   0.593 -0.1176  0.1450 -0.3038
26427W        W41558   5.071  15.572   4.985 -0.0195 -0.0346 -0.0915
26428W        W41559  12.652   7.008   1.290  0.0635 -0.0799 -0.0730
26429W        W41560  12.148   2.195  14.433  0.2200  0.0031  0.3094
26430W        W41561  11.657   2.676   5.368 -0.0098 -0.0485  0.2765
26431W        W41562   4.898   6.062   3.741  0.2336 -0.1765 -0.0021
26432W        W41563   5.002   3.009  10.904  0.0338  0.1641 -0.0963
26433W        W41564   2.547   8.680  15.035 -0.2570 -0.1258  0.0961
26434W        W41565   8.476  14.634  14.601  0.2373  0.2333 -0.2250
26435W        W41566   6.801  11.566  15.124  0.2128  0.1662 -0.1149
26436W        W41567  12.691   9.967   3.909 -0.3434 -0.1987 -0.3425
26437W        W41568   3.821   9.812  14.311 -0.1445  0.0763  0.0441
26438W        W41569   8.142   7.900  14.790  0.3630 -0.0269 -0.0330
26439W        W41570  17.019   5.676  13.967  0.0234  0.0900 -0.3204
26440W        W41571  15.419  12.490   5.928 -0.0203  0.1959  0.2634
26441W        W41572   6.030   3.061   2.018  0.3906  0.1436 -0.2268
26442W        W41573  14.942   5.018   0.789 -0.2791  0.0989  0.0226
26443W        W41574  11.432   4.619  10.417 -0.0450  0.2887 -0.0360
26444W        W41575   7.495   3.341  11.304 -0.2502 -0.0877 -0.1832
26445W        W41576   2.922  14.069   5.280  0.1974 -0.0940  0.2883
26446W        W41577   1.447  17.583   4.534  0.1422 -0.0466 -0.1121
26447W        W41578  13.152  12.606   3.048 -0.3168 -0.1698  0.0219
26448W        W41579  10.988   2.184   2.160  0.0485 -0.1336 -0.0695
26449W        W41580   2.509  17.441  14.004  0.0454  0.0987  0.0458
26450W        W41581   5.840   1.971  14.225 -0.0057  0.0838  0.0146
26451W        W41582   7.632  18.086  10.250  0.2574 -0.1262  0.2172
26452W        W41583   7.731  11.606  12.509  0.1098  0.1697  0.2043
26453W        W41584   5.156   2.389   0.361 -0.0953  0.0787 -0.3214
26454W        W41585   7.535   0.805   3.761 -0.2417 -0.0828 -0.0566
26455W        W41586   3.064   2.282  11.204  0.0820 -0.0040  0.1925
26456W        W41587  15.391  17.303   1.005 -0.0322 -0.1840  0.1558
26457W        W41588   9.698  15.192   1.596 -0.0299  0.1361  0.1307
26458W        W41589  10.171  15.807   2.751  0.0436  0.0926 -0.2736
26459W        W41590  12.686  11.067  11.856  0.2960 -0.2709 -0.0006
26460W        W41591   3.769   7.500  14.895  0.1518 -0.2276 -0.0377
26461W        W41592   6.961   8.568  10.595  0.0857  0.0882  0.0448
26462W        W41593   6.877   8.715   4.968  0.1314  0.0913 -0.3745
26463W        W41594  15.962   9.631   1.493  0.1746  0.0425  0.2029
26464W        W41595  13.929  11.837  13.425  0.0759  0.0194 -0.2248
26465W        W41596  15.175   5.856   1.097  0.0901 -0.1117  0.0914
26466W        W41597   3.274   1.503   5.023 -0.1138  0.0538  0.0464
26467W        W41598  17.575   0.315   4.346  0.2491  0.0170  0.0200
26468W        W41599  15.492  12.804  12.410  0.2469  0.0132  0.0359
26469W        W41600   6.652  16.220   1.054 -0.0078 -0.3534  0.2300
26470W        W41601  10.043   9.096   3.448 -0.2037  0.0573  0.0173
26471W        W41602   9.686   0.667   1.776  0.3649  0.0451 -0.0434
26472W        W41603  14.578   7.022   1.606 -0.1583 -0.0096  0.0424
26473W        W41604   9.907  10.759  11.755  0.1046  0.2377 -0.3103
26474W        W41605  17.330   6.871  16.215  0.1006 -0.1372 -0.0073
26475W        W41606   4.402  14.184  11.917 -0.0054 -0.1629  0.3518
26476W        W41607   9.878   6.294   9.864 -0.0936  0.1158 -0.1359
26477W        W41608  10.054   3.079  15.398 -0.2531  0.1712  0.0318
26478W        W41609  14.421   0.520   6.365  0.1320  0.1807 -0.0455
26479W        W41610  10.643   0.497  11.128 -0.0740  0.3828  0.0386
26480W        W41611   5.120  16.389   0.342 -0.0728  0.0159 -0.1270
26481W        W41612  10.587   6.597   4.647 -0.0930  0.0605  0.1527
26482W        W41613   0.671   6.565  11.511  0.0688  0.1357  0.1865
26483W        W41614   2.955   0.808   2.992  0.0588  0.0202 -0.0636
26484W        W41615  14.922   8.541   5.306 -0.0353  0.0483  0.1688
26485W        W41616   9.505  12.645   4.064 -0.1496 -0.1734 -0.0777
26486W        W41617  15.402  15.739  12.826 -0.0059 -0.3301 -0.1870
26487W        W41618   8.589   5.056   4.540 -0.1247  0.3852 -0.1989
26488W        W41619   4.120   0.276  11.710 -0.0825  0.0628 -0.0898
26489W        W41620   8.162   5.930   4.244  0.0395 -0.4474  0.4209
26490W        W41621  10.678  11.913  11.382 -0.1091 -0.0626  0.0795
26491W        W41622   5.811  16.163   3.558  0.0513 -0.0123  0.1100
26492W        W41623   0.471   4.049  12.180  0.0044  0.1552  0.0369
26493W        W41624   5.362  13.313   0.259  0.2469  0.0201 -0.0515
26494W        W41625  13.520   0.243   6.171 -0.1337  0.1467 -0.2240
26495W        W41626  13.312   6.920  15.309  0.1047 -0.0002 -0.1432
26496W        W41627  16.694   0.354  15.219  0.0467  0.2679  0.2893
26497W        W41628   8.877  13.740  15.930 -0.1813 -0.1084 -0.0349
26498W        W41629   2.659  11.554   0.044 -0.0983 -0.1428 -0.0983
26499W        W41630  14.026  12.735  14.561 -0.0142  0.0700 -0.2167
26500W        W41631  12.520   6.258   5.416  0.1417  0.0242  0.1191
26501W        W41632  17.099  17.443   3.552  0.0368  0.2910  0.0048
26502W        W41633  12.391   9.985  14.143  0.0973  0.0607 -0.0874
26503W        W41634   9.911   5.312  11.305 -0.0012  0.0600  0.1648
26504W        W41635  11.708  11.832  14.741 -0.0296 -0.2236 -0.1371
26505W        W41636   6.551  16.120  10.484 -0.1045 -0.2335  0.1777
26506W        W41637  14.105   6.553   2.249 -0.1791 -0.0509 -0.0404
26507W        W41638   8.027   1.095  14.551  0.3981 -0.0183  0.0297
26508W        W41639  14.966   4.383  13.040 -0.2563  0.3270  0.2178
26509W        W41640   9.436   0.773   2.755  0.0502  0.2205  0.1949
26510W        W41641   9.101  14.309  15.238 -0.2575  0.3579  0.0869
26511W        W41642   1.508   3.515  13.860 -0.4487  0.0338  0.0037
26512W        W41643  13.400   6.167  12.228  0.1212 -0.1077 -0.1181
26513W        W41644  11.482   0.834  10.846 -0.0415 -0.0048  0.1606
26514W        W41645   0.542  16.630  11.819 -0.1595  0.1362 -0.1750
26515W        W41646   2.550  17.542   2.177  0.1879 -0.3021 -0.0363
26516W        W41647  18.094  11.614   4.555  0.0752  0.0838  0.1481
26517W        W41648  13.623   6.379  13.749 -0.2040 -0.2315 -0.0905
26518W        W41649  14.653  10.505  14.207 -0.1101  0.0866  0.5183
26519W        W41650   2.371  10.055   2.576 -0.1896  0.0769 -0.1334
26520W        W41651   3.257  13.776   0.534  0.0463  0.1280  0.0736
26521W        W41652  12.813   6.523  11.607 -0.3547 -0.1447 -0.0692
26522W        W41653  12.708   0.188   3.040 -0.2435  0.0851 -0.2342
26523W        W41654   8.015   0.879   3.877  0.0277 -0.1627 -0.1071
26524W        W41655   9.258  10.831  15.471 -0.1576  0.0325  0.1483
26525W        W41656   0.074  14.221   1.067 -0.0539 -0.2996  0.0635
26526W        W41657  15.428   1.709  14.611 -0.0335 -0.0616 -0.0705
26527W        W41658   2.353   8.061   0.756  0.0600 -0.0816  0.2631
26528W        W41659  11.343  17.651  11.632 -0.0849  0.1211 -0.0487
26529W        W41660  16.220   1.981   5.392 -0.0812 -0.0834  0.2566
26530W        W41661   6.136  10.055  10.616  0.0090  0.0528  0.1185
26531W        W41662  15.472   1.280   4.996 -0.0336 -0.0035 -0.1531
26532W        W41663   9.755   3.038   4.682  0.0334  0.2296  0.1780
26533W        W41664  14.316   0.687   3.723 -0.1934 -0.3339 -0.1690
26534W        W41665  16.510  12.187   0.677  0.2334  0.0992 -0.1599
26535W        W41666   4.730   4.913  13.919  0.1239 -0.0551  0.1480
26536W        W41667   6.312   9.006   2.942  0.1514  0.0530 -0.0115
26537W        W41668   1.618   1.953   4.413 -0.1252  0.1330  0.1168
26538W        W41669  11.210   8.070  12.263 -0.2364 -0.0012 -0.1268
26539W        W41670  16.348  13.794   1.913  0.0731 -0.1809  0.1459
26540W        W41671  12.040  15.695   4.350 -0.1401  0.1952 -0.3625
26541W        W41672   6.907   3.726  14.532 -0.2491  0.0697 -0.0766
26542W        W41673   0.714   8.843  15.930 -0.2044 -0.0205 -0.2918
26543W        W41674  11.161  16.563   5.220  0.0608  0.0450  0.1514
26544W        W41675  14.052   8.904  14.470 -0.0127 -0.0927  0.2551
26545W        W41676  14.622   6.604  11.006 -0.0073  0.0595  0.1960
26546W        W41677   4.047   6.459  11.755  0.2083 -0.0765  0.1115
26547W        W41678  13.080  12.310  14.889  0.1320  0.3190 -0.1987
26548W        W41679  16.094  14.828   3.124 -0.0560  0.2101  0.2617
26549W        W41680  10.906  16.840   3.375 -0.1706  0.0402 -0.0434
26550W        W41681  11.512  13.602   4.789  0.5441  0.0435  0.2306
26551W        W41682   0.252   6.569   1.435 -0.2741 -0.1481 -0.2790
26552W        W41683   2.962  17.614   4.853 -0.2896 -0.0199 -0.0338
26553W        W41684  16.645   5.681  15.675 -0.0581  0.0488 -0.2472
26554W        W41685   9.501  13.202   1.517  0.2784 -0.2235  0.0141
26555W        W41686  12.493   6.360  12.255 -0.0464  0.2615  0.3116
26556W        W41687   1.934  17.318  14.039  0.0111  0.2451  0.1297
26557W        W41688  15.429  17.016  15.382  0.0892  0.0231 -0.3561
26558W        W41689  11.092   7.411  13.002 -0.0422 -0.1382 -0.0554
26559W        W41690  14.655  15.487   3.540 -0.0954 -0.0824 -0.1768
26560W        W41691  15.722   1.014  15.409 -0.2301  0.2075  0.2455
26561W        W41692  12.258   6.767   1.003  0.1012 -0.2481  0.1686
26562W        W41693  12.926   8.741  13.704  0.1340  0.0168  0.0567
26563W        W41694  10.076   3.462   1.241  0.1499  0.2051 -0.0521
26564W        W41695   8.997  13.248  14.592 -0.1071 -0.1710 -0.2106
26565W        W41696  17.216  16.537   1.073 -0.1956 -0.2384 -0.1771
26566W        W41697   1.618  10.502   0.138 -0.2519  0.0728  0.3036
26567W        W41698   8.672  12.959   4.058 -0.2209  0.2123 -0.1713
26568W        W41699  11.522  16.272   3.692 -0.4371  0.1895  0.1810
26569W        W41700  12.126  16.126  13.853  0.1131  0.3042 -0.0456
26570W        W41701  15.618   8.145   4.936 -0.2759  0.1441  0.0340
26571W        W41702  16.281   7.753   3.459  0.2531 -0.0874  0.2396
26572W        W41703  13.959  16.575   4.301  0.3996 -0.1584 -0.0608
26573W        W41704   0.807  17.977  13.533  0.0760  0.0091 -0.0982
26574W        W41705  13.662   7.089   3.986  0.1711 -0.0317  0.1394
26575W        W41706  15.122  12.687   0.935  0.0478  0.0551  0.2404
26576W        W41707  10.603   7.245   2.444  0.1931  0.2128 -0.0470
26577W        W41708   5.036  14.556   1.383  0.1103  0.1591 -0.2471
26578W        W41709   4.328  13.797  12.199  0.0227  0.2851  0.1745
26579W        W41710   7.495   7.016  15.773  0.0635 -0.2257  0.2834
26580W        W41711   1.324   4.971  13.478 -0.1923 -0.1862 -0.0320
26581W        W41712   0.221   3.665  11.441 -0.2355  0.0595 -0.1491
26582W        W41713  16.285  14.669   2.252  0.0747  0.0788  0.2400
26583W        W41714   9.277  16.383  15.725  0.2814  0.0584 -0.0740
26584W        W41715   3.660   9.843  15.541 -0.3178 -0.0109  0.3446
26585W        W41716   5.763   6.751   9.585 -0.0833 -0.2136 -0.1696
26586W        W41717   3.977   8.114  14.204  0.0587  0.1747  0.0536
26587W        W41718  13.007  17.526  12.251  0.1304  0.1623  0.2067
26588W        W41719   3.579   7.674  13.013 -0.0810  0.3521 -0.2452
26589W        W41720  12.475   2.957  15.121  0.0239  0.1971 -0.2240
26590W        W41721   6.148  18.020  11.828 -0.2909  0.1295 -0.0512
26591W        W41722  10.753  18.115   2.080 -0.3828 -0.1896 -0.1326
26592W        W41723   9.267   0.977   3.883  0.2846  0.1312  0.1207
26593W        W41724   6.291  16.459   3.546 -0.2357  0.0614 -0.3023
26594W        W41725   9.818   6.213   4.324 -0.1324  0.1589 -0.0985
26595W        W41726  16.854  10.061   4.776 -0.0249 -0.3465 -0.3827
26596W        W41727  11.149   2.109   0.041 -0.2200 -0.0126 -0.1712
26597W        W41728   0.436  15.399   0.291 -0.2522 -0.0744 -0.1748
26598W        W41729  16.845   6.971   0.105  0.0551 -0.2248  0.1461
26599W        W41730  11.537  16.648   4.694  0.0527 -0.1383  0.0476
26600W        W41731  10.984   4.466  12.885 -0.1528 -0.1806  0.1693
26601W        W41732   8.390   7.450   3.013 -0.1488  0.0223  0.0633
26602W        W41733  10.071  11.857   1.429 -0.4431  0.3775  0.0587
26603W        W41734  17.096  14.980   3.442 -0.2979  0.2252  0.0156
26604W        W41735   2.106  13.682  12.410  0.2300 -0.0600 -0.0366
26605W        W41736   5.259   6.856   4.691 -0.1005  0.2775  0.0780
26606W        W41737   2.540  17.022  16.028 -0.1701 -0.0161  0.0193
26607W        W41738   8.322   6.317  10.773  0.1010  0.0223  0.0702
26608W        W41739   6.791   8.832   3.942 -0.0358  0.0083  0.3290
26609W        W41740   4.046  17.873   4.013 -0.0517 -0.1763 -0.0234
26610W        W41741   5.841   0.138  10.463  0.0524 -0.1063 -0.4648
26611W        W41742   9.642  13.260  10.578  0.4800  0.0802  0.1432
26612W        W41743   7.792   2.948  12.379 -0.2559  0.1882  0.0526
26613W        W41744   3.888  16.711  15.122 -0.5883  0.0263  0.3205
26614W        W41745  11.288  16.277  10.593 -0.0349 -0.0602  0.2959
26615W        W41746   5.476   4.784   3.548 -0.1258 -0.1825 -0.1581
26616W        W41747   7.417  12.673  15.256  0.0942 -0.1031 -0.1267
26617W        W41748   1.564   8.053   4.906 -0.1705 -0.2045  0.2314
26618W        W41749  11.077  12.750  15.776 -0.0112  0.0933 -0.1074
26619W        W41750  12.182  13.192  13.225 -0.1745  0.0006 -0.0526
26620W        W41751  11.808  16.999   1.389  0.0148 -0.0198 -0.2652
26621W        W41752   2.209  17.222   3.759 -0.1954 -0.0881 -0.0734
26622W        W41753   0.591   7.494  15.827 -0.0587 -0.0205 -0.2344
26623W        W41754   0.332   7.000   1.146 -0.2390 -0.2168 -0.3476
26624W        W41755   4.559  13.753  14.794  0.0736 -0.2815  0.3037
26625W        W41756   0.547   1.405  14.371  0.2950 -0.0513  0.2147
26626W        W41757   7.719   1.175  12.365  0.2273  0.0115  0.1830
26627W        W41758   2.393   4.009   5.007 -0.0934  0.1224  0.0340
26628W        W41759   8.810   2.393  14.704  0.2134 -0.0076  0.0341
26629W        W41760   6.313   1.660  15.341 -0.0080  0.1890  0.2163
26630W        W41761   4.688   7.690   2.533 -0.1826 -0.4242 -0.0153
26631W        W41762  12.480  13.361   5.474  0.1187  0.1602 -0.0141
26632W        W41763   7.113  14.582   4.078  0.1434  0.1445 -0.0830
26633W        W41764  14.587  13.876   0.922  0.1676 -0.1176 -0.0617
26634W        W41765  16.763  10.808   2.166 -0.0022 -0.1655  0.0664
26635W        W41766   2.457  17.939   3.207 -0.0526 -0.1692  0.1541
26636W        W41767  15.109   2.453   4.260 -0.2329 -0.0605  0.3498
26637W        W41768  17.154   1.332   2.894  0.1193  0.2514  0.1577
26638W        W41769   9.607  17.959  14.844  0.1183  0.1104  0.0853
26639W        W41770   2.277   5.517   5.057 -0.0733  0.0719 -0.2074
26640W        W41771   0.876   1.081  12.434  0.0113 -0.0448 -0.3929
26641W        W41772   5.233   5.105   1.352 -0.0237  0.1122  0.0798
26642W        W41773   5.979   1.546   3.848  0.2809 -0.1958 -0.2034
26643W        W41774   5.778  13.786  15.791  0.0159  0.0888 -0.2969
26644W        W41775   9.356   9.739  13.830  0.1643  0.0310  0.1918
26645W        W41776   5.802  12.539   3.926 -0.2827 -0.0913  0.1066
26646W        W41777  12.813   6.763   0.894  0.2370  0.1064  0.2306
26647W        W41778   0.466  11.538  15.429  0.2052  0.1574 -0.0408
26648W        W41779   7.763  12.431  12.821 -0.1226 -0.1829 -0.1010
26649W        W41780   7.987   8.854   4.061  0.4676 -0.2041  0.1622
26650W        W41781  13.561   2.311   2.871 -0.0887  0.1047 -0.3169
26651W        W41782  11.796  16.851  11.874 -0.0931  0.1238  0.3583
26652W        W41783   9.796   7.931   1.721  0.1053  0.0471  0.2736
26653W        W41784   1.051  16.060  12.498 -0.0714 -0.0385  0.0056
26654W        W41785   0.985   5.194   2.051 -0.0457 -0.1428  0.1854
26655W        W41786   1.640   8.586  10.226 -0.1650  0.0769 -0.0125
26656W        W41787   2.021  14.009   5.299  0.1252  0.1865  0.1605
26657W        W41788   0.904  16.618  15.240  0.1665  0.2086  0.0937
26658W        W41789  17.184   3.817   2.810  0.1238 -0.1094 -0.0233
26659W        W41790  12.673  14.351  15.233  0.0175  0.0548 -0.4765
26660W        W41791  15.084   6.328  12.883 -0.1161 -0.3612  0.2028
26661W        W41792   6.427   1.181  15.582 -0.0386  0.2077  0.0512
26662W        W41793  10.977  17.089  12.240  0.0312 -0.0393 -0.0138
26663W        W41794  11.206  16.130   0.560  0.0618  0.2406  0.0017
26664W        W41795   1.785   9.495   5.911  0.2141  0.0584 -0.1620
26665W        W41796   7.144   4.340   4.883  0.2378 -0.0198 -0.0250
26666W        W41797  14.362  12.441   4.763 -0.0102  0.4098 -0.1305
26667W        W41798   0.433   7.445  12.596  0.0682 -0.1834 -0.2592
26668W        W41799  10.425  10.550  11.783  0.0596  0.0302 -0.1274
26669W        W41800   6.251  12.741  16.187  0.0820  0.1060 -0.0061
26670W        W41801   3.118  10.955   1.708  0.1341 -0.2884 -0.0938
26671W        W41802  10.960   9.847   2.105  0.2623 -0.4353 -0.0644
26672W        W41803   9.313   6.291   3.156  0.1008  0.1910  0.0725
26673W        W41804  12.764   6.167  13.586 -0.4970 -0.3270  0.1164
26674W        W41805  11.941   5.599  10.497  0.0617  0.3186 -0.2595
26675W        W41806  13.097  11.966  11.442 -0.0343 -0.0127 -0.0019
26676W        W41807   2.148   1.376   3.125  0.0767 -0.1524 -0.0972
26677W        W41808   0.583  15.295  10.489  0.2076 -0.1850  0.0950
26678W        W41809   6.013  10.197  11.945 -0.3903 -0.1691  0.1174
26679W        W41810   8.316   3.006   1.295 -0.0390  0.0232  0.1550
26680W        W41811  13.025   2.946  12.659  0.1759  0.0615 -0.0113
26681W        W41812   1.798  16.916  14.937  0.2791  0.1103  0.0446
26682W        W41813   4.425  18.159  13.800  0.0632  0.0518 -0.0435
26683W        W41814   8.027  10.308   2.199 -0.2537 -0.0811  0.0775
26684W        W41815  11.694  12.398  11.301 -0.1006 -0.1836  0.2346
26685W        W41816  16.085   3.691   0.950 -0.0151  0.4042 -0.1777
26686W        W41817  14.950  14.942  16.165 -0.4003 -0.0613  0.0543
26687W        W41818   4.008  16.474  12.688  0.1413 -0.0979  0.0496
26688W        W41819   6.381   0.364   5.221  0.0212  0.3086 -0.0663
26689W        W41820  14.847  17.294   4.826  0.0738 -0.0908  0.1713
26690W        W41821   6.339   8.308  11.281 -0.0689 -0.1280 -0.0722
26691W        W41822  13.859   9.502   2.491 -0.2629  0.1811 -0.2470
26692W        W41823  15.281  15.711   5.951  0.2270 -0.1954  0.0298
26693W        W41824   7.958  11.675   3.536  0.0050  0.4487  0.1159
26694W        W41825   2.664   0.881   1.164  0.0660  0.4936  0.2857
26695W        W41826   0.342   0.072  10.318  0.2672  0.0183  0.0028
26696W        W41827   3.631  16.127  12.851  0.0307  0.3126  0.4078
26697W        W41828   2.347   5.363  15.479  0.1364  0.0772 -0.0054
26698W        W41829  10.753   0.780   1.121  0.1106 -0.0478  0.1737
26699W        W41830   7.037  13.689   5.214 -0.0695  0.1278 -0.0063
26700W        W41831   9.414  17.602   0.208  0.0326 -0.0738 -0.0386
26701W        W41832  13.738   9.333   1.552 -0.2571  0.1046  0.2428
26702W        W41833   0.616   6.703  12.690 -0.1397 -0.0539  0.1254
26703W        W41834  16.631  11.672  11.724 -0.0251  0.1264  0.0227
26704W        W41835   4.060   5.827  12.983  0.2452 -0.0445 -0.0419
26705W        W41836  15.376  15.533   2.918  0.3374  0.0873 -0.0429
26706W        W41837   5.972   0.127  15.196  0.4656 -0.0322 -0.2534
26707W        W41838  12.059   5.188   5.117 -0.0492 -0.0155  0.2508
26708W        W41839  17.914   8.767   4.539 -0.1439  0.1802 -0.1688
26709W        W41840  16.310   5.182   3.617 -0.0482 -0.1444 -0.1045
26710W        W41841   2.502  11.806   0.509 -0.0004 -0.1224 -0.1077
26711W        W41842   3.180   5.439   4.067 -0.0944  0.3416 -0.0580
26712W        W41843   3.639   7.521  16.131  0.0220  0.0455  0.0323
26713W        W41844  12.982  10.938   1.408 -0.2061  0.0224  0.0300
26714W        W41845  10.581   4.506  13.329  0.2129 -0.1513 -0.2148
26715W        W41846  13.190  13.232  15.259 -0.1408  0.0462  0.1339
26716W        W41847  16.033  11.738   5.266 -0.1281 -0.3574  0.0755
26717W        W41848  17.777  13.350  15.446  0.0846  0.3153 -0.1515
26718W        W41849  16.173  17.325   3.273 -0.0216 -0.0068 -0.0653
26719W        W41850   5.075   9.554  15.811 -0.0105 -0.0102 -0.0185
26720W        W41851  11.030  13.055   3.701  0.1349 -0.0595  0.0356
26721W        W41852   4.785   8.100   1.983  0.2301 -0.0387  0.4194
26722W        W41853  10.569  13.817  15.377 -0.1519 -0.0114 -0.0939
26723W        W41854  17.259   6.905   2.646 -0.1321  0.2594 -0.2652
26724W        W41855  14.102  11.362  12.067 -0.0092  0.1269  0.1270
26725W        W41856  12.708   3.198   6.457 -0.2105  0.0754  0.0818
26726W        W41857  14.506  15.426  12.795  0.1681 -0.2553  0.0405
26727W        W41858   2.057  10.072   2.999 -0.0542 -0.0485  0.0387
26728W        W41859   5.537   0.214   4.901  0.2214 -0.2227 -0.1127
26729W        W41860   7.413   6.847   1.449 -0.1926  0.3558  0.1019
26730W        W41861  13.601   9.113  12.277 -0.1206 -0.0872 -0.0554
26731W        W41862   5.934  12.634  14.867  0.1003  0.4707  0.2269
26732W        W41863   1.114  13.431  15.624  0.0802  0.2749  0.1833
26733W        W41864   3.430  13.013   4.509  0.2274  0.0313  0.1576
26734W        W41865   8.530   2.338  13.776  0.2735 -0.2327 -0.1828
26735W        W41866   4.258   3.597  15.146  0.1317  0.1263  0.1409
26736W        W41867  16.553  16.644  14.677  0.2074 -0.1772  0.1296
26737W        W41868   8.969   1.489  15.539 -0.1001 -0.1086  0.1833
26738W        W41869   8.494  12.758  13.394  0.0431 -0.0628 -0.1057
26739W        W41870   3.086   4.312   5.790  0.1663  0.0752  0.0473
26740W        W41871   6.015   4.537   3.112 -0.2809 -0.1306  0.0225
26741W        W41872  14.567   4.867   5.539  0.2588 -0.1701 -0.1096
26742W        W41873  10.800   6.140  13.748 -0.0312  0.0054  0.1510
26743W        W41874  14.226   4.492   1.266 -0.0972  0.0885 -0.3228
26744W        W41875   4.914  12.547  13.855  0.1218 -0.3015  0.1128
26745W        W41876   1.707  16.342   4.147  0.1670  0.0816 -0.1541
26746W        W41877  12.566   8.702  12.709  0.0790 -0.0925 -0.0704
26747W        W41878   8.854  12.344   4.750 -0.1392  0.1051 -0.1222
26748W        W41879  16.394   9.803  15.981 -0.3001  0.0292  0.1999
26749W        W41880   2.563   9.966   0.613 -0.0273 -0.2003 -0.1188
26750W        W41881   3.245  16.042  11.051  0.0857 -0.2222  0.0021
26751W        W41882   4.295  10.152  14.140 -0.1794 -0.1397  0.2325
26752W        W41883   8.259   6.765   3.798 -0.2043 -0.1972  0.0407
26753W        W41884   4.400  11.412   4.246  0.0099 -0.1282  0.0086
26754W        W41885  17.130  12.353  11.950  0.1023 -0.1840  0.1936
26755W        W41886   2.236   3.105   5.306  0.0310 -0.1775 -0.1016
26756W        W41887   5.622   4.621  14.917  0.0647 -0.1178  0.2987
26757W        W41888  13.713  14.040   4.090 -0.3135 -0.0664 -0.0060
26758W        W41889   1.770   8.384  13.677 -0.1198 -0.1733  0.0293
26759W        W41890   9.563  14.790   0.230  0.0064  0.1300  0.1108
26760W        W41891  14.752   0.642   0.328 -0.2513 -0.1413 -0.0536
26761W        W41892  12.280   7.651   5.914  0.2584 -0.2407  0.1315
26762W        W41893  16.626  12.080   1.654 -0.1288  0.0908 -0.2492
26763W        W41894  14.014   8.488  14.835 -0.3777 -0.0725 -0.1705
26764W        W41895   0.264  14.203  11.351 -0.0463 -0.0428  0.0033
26765W        W41896  16.210  13.942  13.654  0.0281  0.1024  0.0254
26766W        W41897  14.802   7.184   6.403 -0.2684 -0.1409  0.2723
26767W        W41898   3.389  11.424   5.380 -0.0011  0.0722  0.0433
26768W        W41899  15.731  11.131   0.198 -0.0058 -0.2312 -0.3158
26769W        W41900  14.347  14.664  12.169  0.1485 -0.1806 -0.1659
26770W        W41901  14.825   7.625   2.447 -0.0015 -0.2674 -0.0637
26771W        W41902   6.299   9.405   4.598  0.0106 -0.3476 -0.1794
26772W        W41903  14.003  16.272   2.638 -0.2715 -0.1558 -0.0109
26773W        W41904   7.797   5.000  11.729  0.2342  0.0356  0.1003
26774W        W41905   6.792   4.841   3.679 -0.0070 -0.1915  0.1161
26775W        W41906   3.083  15.388  15.356  0.2792 -0.1972 -0.2300
26776W        W41907   0.345  10.967  13.101 -0.3505 -0.0843 -0.1487
26777W        W41908   6.581  16.497   1.571 -0.2054  0.0088 -0.0108
26778W        W41909  15.894   9.899   1.042 -0.0934  0.2709 -0.0794
26779W        W41910  11.816  17.978   5.833 -0.2228 -0.2060  0.0713
26780W        W41911   2.810  11.320  15.915 -0.1163  0.0112 -0.2149
26781W        W41912  11.021   4.821   4.166 -0.0220  0.2563  0.0766
26782W        W41913   6.750   3.314   3.253  0.3761 -0.0448  0.0883
26783W        W41914  11.991   3.488   2.436 -0.1930  0.2246 -0.0993
26784W        W41915   1.489  16.103   0.011  0.1108  0.0520  0.0476
26785W        W41916   7.985   2.471  12.380 -0.1654 -0.1133 -0.1143
26786W        W41917  10.911   5.030   2.814 -0.1311 -0.2347 -0.0047
26787W        W41918  14.141   8.512   0.016  0.0420 -0.1628  0.4364
26788W        W41919   5.934   1.713  13.766 -0.0243 -0.1630  0.1131
26789W        W41920   0.909   5.332   0.887  0.0468 -0.1009 -0.1919
26790W        W41921  15.943  10.663   0.254 -0.0500  0.2836 -0.0023
26791W        W41922   3.238  17.164   3.234 -0.1180 -0.0044  0.1930
26792W        W41923   7.946   5.532  13.367  0.0070  0.0620 -0.1940
26793W        W41924   6.984  16.440  14.067 -0.0145 -0.0380  0.0376
26794W        W41925   3.732  11.185   2.462  0.0722 -0.1986 -0.1353
26795W        W41926   4.414   9.656   3.870 -0.0324  0.3586  0.0638
26796W        W41927   8.778   0.056   0.492 -0.0210  0.1371  0.0958
26797W        W41928  16.412   8.196  12.845  0.1354 -0.1507 -0.1307
26798W        W41929   5.890  12.558   3.411 -0.2041 -0.1029 -0.1819
26799W        W41930  14.587   8.279   5.023 -0.0704  0.2051  0.0477
26800W        W41931   7.772   0.661   2.882 -0.0074  0.2049  0.1638
26801W        W41932  17.711  10.861  13.496 -0.0181 -0.0356 -0.5156
26802W        W41933   3.656  17.498  13.543 -0.1477  0.3026 -0.2916
26803W        W41934   3.914   1.848  11.323  0.0682  0.2035  0.4146
26804W        W41935  16.860   9.095   3.681  0.0378  0.0996 -0.0738
26805W        W41936   8.272   8.172   3.240  0.0371 -0.1022  0.0660
26806W        W41937   1.323   4.003   2.918 -0.1549 -0.2502  0.1059
26807W        W41938   5.880   0.645   1.787 -0.1385  0.0586 -0.2876
26808W        W41939   6.430   7.003  14.039  0.2258 -0.1079 -0.0215
26809W        W41940   3.085  13.412  15.241  0.0988  0.0370 -0.1757
26810W        W41941   8.256  13.294  12.144  0.0057  0.2220 -0.3000
26811W        W41942  12.210  13.617   2.291  0.4440  0.0694 -0.2757
26812W        W41943   3.653   0.715  12.811  0.0452 -0.0304 -0.2285
26813W        W41944   3.748   8.075   5.044 -0.1222  0.1059  0.1315
26814W        W41945  10.526  10.984   0.010 -0.1234 -0.1592 -0.1584
26815W        W41946   7.398   0.706  13.970 -0.2341 -0.1357 -0.1541
26816W        W41947  10.349   3.792  13.978 -0.2728  0.3218  0.3882
26817W        W41948   8.944  16.677  15.467 -0.2889  0.0114 -0.0627
26818W        W41949  17.874  14.471   4.459 -0.1063 -0.0401  0.0336
26819W        W41950   9.029   3.495  12.939  0.0254  0.2273 -0.1998
26820W        W41951   1.801   4.541   1.245  0.1498 -0.1928  0.1256
26821W        W41952   8.982  15.082  16.108  0.2635 -0.0610  0.1981
26822W        W41953   8.383  14.980   2.469 -0.2135  0.0130 -0.1154
26823W        W41954   5.625  11.562  16.081 -0.3791  0.0551 -0.0156
26824W        W41955  17.754   3.906   4.005  0.2287 -0.0877 -0.0684
26825W        W41956   6.492   5.767  14.334 -0.0539  0.1363  0.2182
26826W        W41957  12.080   8.726  13.114  0.2557  0.3250 -0.1281
26827W        W41958  14.008  15.296  12.488 -0.0554 -0.2905  0.2708
26828W        W41959  17.268  13.431   0.656 -0.0019 -0.0232  0.1903
26829W        W41960   5.596   9.237  12.206  0.1358  0.0901 -0.2106
26830W        W41961  12.332   8.603   0.255  0.4320 -0.1745 -0.1604
26831W        W41962   6.754  14.237   4.439 -0.0482  0.2312  0.2236
26832W        W41963  16.345  13.790  10.486 -0.0405  0.0196 -0.0218
26833W        W41964  13.811  10.261   1.760 -0.1045  0.2426  0.2267
26834W        W41965  11.165   5.721   1.816 -0.2986 -0.1048 -0.2193
26835W        W41966   3.473  15.796  11.550  0.1403  0.2337 -0.0391
26836W        W41967   2.676  10.464   2.564  0.1756  0.1218  0.4212
26837W        W41968  15.947   1.238   6.025  0.3346 -0.2141  0.4871
26838W        W41969   9.748   7.138  10.215 -0.0111  0.1592  0.2749
26839W        W41970  15.380   4.144  12.737 -0.0372  0.0982 -0.0878
26840W        W41971   7.987   7.452  11.652 -0.1430 -0.0064  0.3347
26841W        W41972  14.155   4.001   1.103  0.1657 -0.1952  0.0692
26842W        W41973  16.921  15.923   5.218  0.0501  0.3725  0.2877
26843W        W41974  18.165   7.596   6.198  0.1371  0.3470 -0.0689
26844W        W41975  15.904   7.757   1.121 -0.0390 -0.2860 -0.0681
26845W        W41976   5.177  16.237  13.191 -0.2303  0.4247 -0.2541
26846W        W41977  13.106   0.700  12.928 -0.4056 -0.0681 -0.1310
26847W        W41978  16.699   4.769   1.869 -0.0976  0.1651 -0.0559
26848W        W41979   3.403   8.337   5.328 -0.2509 -0.1235  0.0821
26849W        W41980   1.802   0.698  15.334  0.0089 -0.1110  0.1432
26850W        W41981  14.108   3.551   0.886 -0.0722  0.0389  0.2988
26851W        W41982   3.944  10.029  15.968 -0.2211  0.1598 -0.1385
26852W        W41983   8.503   3.485  11.668  0.0613  0.1428 -0.0287
26853W        W41984   6.944  16.379  12.006  0.0821  0.2087 -0.2460
26854W        W41985   8.779  17.828   0.771 -0.2195 -0.3624 -0.0681
26855W        W41986  10.970  12.988  15.374  0.3162  0.0065  0.1228
26856W        W41987   5.486   9.158  14.747  0.2001  0.1119 -0.1317
26857W        W41988  16.906   1.701  12.623 -0.1195 -0.2568 -0.1197
26858W        W41989  13.258   6.527  14.384 -0.4231  0.0412 -0.0862
26859W        W41990   4.319  11.344   1.809 -0.0635  0.0697  0.1825
26860W        W41991   4.690   1.964   1.549  0.3376  0.2830  0.0851
26861W        W41992  14.775  17.022  12.756  0.2018  0.1142 -0.0989
26862W        W41993  14.912   7.340   2.826 -0.0290 -0.0449 -0.2755
26863W        W41994  10.865   9.789   0.755  0.0480  0.0327 -0.2912
26864W        W41995   8.560   1.851   1.295  0.0395 -0.2592 -0.1491
26865W        W41996  10.055  11.045   2.699 -0.1276 -0.0661  0.1281
26866W        W41997  15.403   2.196   5.238  0.0153  0.2520 -0.1533
26867W        W41998  15.223  10.906   5.754 -0.1199  0.0769  0.0214
26868W        W41999  15.398   1.719  11.291  0.1316 -0.0837  0.0582
26869W        W42000   3.736   2.804   4.381 -0.1206 -0.1332  0.0937
26870W        W42001  14.651   4.943   3.565 -0.0181  0.1570  0.2284
26871W        W42002  14.838   3.343  14.360  0.1401 -0.0742  0.0269
26872W        W42003  12.356   9.802   4.334 -0.0230  0.0851  0.0018
26873W        W42004   6.193  12.990   3.233 -0.1671 -0.1502 -0.1390
26874W        W42005  17.671  18.043   2.763  0.2860 -0.0080  0.2547
26875W        W42006   0.513   6.389  14.227 -0.1443  0.1831 -0.1913
26876W        W42007   5.626   7.605  11.321 -0.0912 -0.0747  0.1205
26877W        W42008   0.798   8.915   5.339  0.1458 -0.0962 -0.1183
26878W        W42009  16.533  10.224  12.553 -0.1532  0.0165 -0.0717
26879W        W42010  11.635  12.747  15.779 -0.1488 -0.1165  0.2596
26880W        W42011   5.072   5.107   5.131  0.0882 -0.2814  0.0958
26881W        W42012  13.725  10.071  13.637 -0.0156 -0.0860 -0.1583
26882W        W42013  12.955   2.048   5.876 -0.0079  0.0084  0.1455
26883W        W42014  15.218   8.728   5.636  0.0565 -0.0701 -0.0484
26884W        W42015  13.539   6.747  12.011  0.0647 -0.1054  0.0174
26885W        W42016  13.798  16.762   5.288  0.2673  0.0529  0.1164
26886W        W42017   1.196   7.819  12.937  0.1376  0.0772  0.2711
26887W        W42018   6.283   1.947   3.997  0.0498 -0.4084  0.0183
26888W        W42019   7.760  13.824   9.812  0.0884 -0.0812 -0.1582
26889W        W42020  10.412   9.226  11.809 -0.0256 -0.3216  0.0677
26890W        W42021  14.435   2.507   1.049 -0.1819  0.0655 -0.0064
26891W        W42022   0.669   0.684  12.798  0.1130 -0.0044  0.1070
26892W        W42023  16.240  12.275   4.147 -0.0031  0.1345 -0.1911
26893W        W42024  12.753   9.161  12.734  0.1153  0.2266  0.2325
26894W        W42025   3.314  17.026  12.600  0.4541 -0.1218  0.1775
26895W        W42026   4.174   6.051   2.687 -0.2456 -0.1037  0.3097
26896W        W42027  15.583  10.719  15.686  0.0983  0.1281  0.1363
26897W        W42028  16.155   5.287  11.618 -0.4779  0.0130 -0.1612
26898W        W42029  10.835  16.275   1.651  0.1365  0.1764 -0.1252
26899W        W42030   4.365   5.482   1.905 -0.1221  0.2398  0.2204
26900W        W42031   5.794  12.596  11.771  0.1570 -0.0198 -0.0610
26901W        W42032   7.123  10.233  15.323  0.0555  0.0388  0.3637
26902W        W42033  11.328  14.493   2.478 -0.0742  0.1434  0.1219
26903W        W42034   6.037  15.461   0.217  0.2540  0.0004  0.1261
26904W        W42035   9.285  14.725   3.779 -0.5496 -0.3052  0.1163
26905W        W42036   9.344   8.136  11.338 -0.1273  0.1680 -0.0232
26906W        W42037   8.671   9.548   2.779  0.0748  0.1650 -0.1438
26907W        W42038   4.958   1.569  13.060  0.0162 -0.0733 -0.0612
26908W        W42039  17.081   4.389   0.457 -0.2073 -0.0227  0.1074
26909W        W42040  15.222   4.402  13.989  0.1515  0.2504 -0.0062
26910W        W42041   9.817   4.098   1.112  0.0185  0.0274 -0.1299
26911W        W42042   4.265   3.461  12.058  0.2250  0.1182  0.2247
26912W        W42043   6.291  10.493  12.287  0.1596  0.0954  0.5212
26913W        W42044   3.048   8.855  15.768  0.1865  0.1474  0.0035
26914W        W42045   6.941   5.433   0.785 -0.0518 -0.1030 -0.0459
26915W        W42046   8.067   4.869  14.453  0.0403  0.3508 -0.1101
26916W        W42047   3.144   9.621   5.142 -0.2113  0.3853  0.1079
26917W        W42048  11.124  10.191  12.029 -0.0636 -0.1534  0.2221
26918W        W42049  14.327  11.549   4.602 -0.3121  0.1014 -0.0060
26919W        W42050  11.631   7.146   0.944 -0.4801  0.0491 -0.1329
26920W        W42051  10.173  13.294   2.324 -0.1289  0.1534 -0.2902
26921W        W42052   2.715   4.882   4.774 -0.0280 -0.0540  0.0304
26922W        W42053   5.948   7.482   1.302 -0.3055  0.1827  0.0745
26923W        W42054  12.607   6.171  14.310 -0.2762 -0.2863  0.2199
26924W        W42055  13.675   2.757   2.669 -0.1210 -0.1139  0.0406
26925W        W42056   9.818  14.789  10.435  0.2761 -0.0440 -0.0883
26926W        W42057   2.337   4.388  12.335  0.0958 -0.1195 -0.2125
26927W        W42058  16.776   7.668  16.184  0.2933  0.2620  0.0915
26928W        W42059  14.389   1.183  15.401  0.2815  0.3025  0.0072
26929W        W42060  17.527  15.437   1.936 -0.0733 -0.1079  0.1496
26930W        W42061  13.922   2.315   3.289 -0.0378 -0.1890  0.1054
26931W        W42062   9.657   6.320  13.389 -0.1256 -0.2415  0.0642
26932W        W42063  13.624  10.466   4.996  0.1197 -0.0702  0.0247
26933W        W42064   8.619   0.291   4.844 -0.1480 -0.0977 -0.0759
26934W        W42065  13.182  11.959   5.220  0.0233 -0.1559  0.0566
26935W        W42066   9.326  15.021  12.221  0.1449  0.0615  0.1318
26936W        W42067   9.846  11.761  12.557 -0.1910 -0.0082 -0.0304
26937W        W42068   4.429  18.069  11.400  0.0911  0.0770  0.0789
26938W        W42069   4.968  15.965  10.917 -0.1817  0.0579 -0.0129
26939W        W42070   4.102  13.325   5.506  0.2381  0.4248 -0.1787
26940W        W42071  15.856  12.077  11.475  0.0252  0.3682  0.2066
26941W        W42072   4.579  13.229   0.120  0.1643 -0.3073  0.0711
26942W        W42073  17.528  18.154   0.637  0.1980  0.0740 -0.1471
26943W        W42074   8.035   0.608   0.888 -0.1537  0.0866  0.1310
26944W        W42075  12.097  18.135   4.031  0.1293 -0.1705 -0.3677
26945W        W42076  11.351  15.807  10.687  0.2270 -0.0574 -0.0934
26946W        W42077   8.671   8.363   3.039 -0.0984  0.0704 -0.0717
26947W        W42078  13.771  11.041   1.905  0.0822  0.0212  0.0035
26948W        W42079   9.060   2.940  16.190 -0.1873 -0.1430  0.1198
26949W        W42080   9.485  15.811  15.625 -0.2313  0.0964  0.0025
26950W        W42081   9.150   5.815   5.823 -0.2896 -0.0559  0.4212
26951W        W42082   0.304  12.773   0.540  0.3583  0.1697 -0.0578
26952W        W42083   0.962   6.696   5.828 -0.1815  0.0341 -0.1428
26953W        W42084   3.308   2.495  11.573  0.4365 -0.0760 -0.1206
26954W        W42085  15.462   8.684  12.033 -0.1491  0.0931 -0.2291
26955W        W42086  10.293  11.721  11.694 -0.2990  0.1030  0.0267
26956W        W42087  10.465   8.504  15.999 -0.1828 -0.3642  0.1943
26957W        W42088   4.671  17.661  10.814  0.3223 -0.0855  0.2604
26958W        W42089   1.829   0.611  16.188 -0.0644 -0.0386 -0.2796
26959W        W42090  13.453   9.262   1.089 -0.1347 -0.1677 -0.2209
26960W        W42091  15.505   0.815  15.848  0.0905  0.0904  0.1763
26961W        W42092   0.547   8.967  10.751  0.1318  0.1511 -0.0103
26962W        W42093  13.652   2.535  11.687 -0.1674  0.0276  0.2222
26963W        W42094  12.825  12.577  12.949 -0.0334 -0.2016  0.1046
26964W        W42095   1.349  17.259   3.256 -0.4086  0.0603  0.3349
26965W        W42096  14.728   0.160  11.716 -0.1595 -0.3525  0.0117
26966W        W42097   8.472  13.325  10.489 -0.2631  0.0808 -0.0311
26967W        W42098  15.566  15.202   1.909  0.1109  0.0191  0.1998
26968W        W42099  15.365  11.886  13.440  0.0057 -0.4253  0.1571
26969W        W42100   8.794   5.093   0.512  0.0971  0.1193 -0.0483
26970W        W42101   2.883  18.168   0.708  0.0729 -0.0609 -0.1634
26971W        W42102  12.819  12.667  15.088 -0.1967  0.0799  0.1589
26972W        W42103  18.169  13.753  13.826  0.1768  0.1107  0.0870
26973W        W42104  14.665   0.836   4.036 -0.0723 -0.0048 -0.2156
26974W        W42105   7.992   6.206   2.701 -0.0396 -0.2860  0.0285
26975W        W42106   9.709   3.086  13.868  0.0984  0.0219  0.0420
26976W        W42107   4.260  17.291   3.309  0.1405  0.1107 -0.1202
26977W        W42108   2.545  10.345   2.079 -0.0050 -0.1859 -0.0828
26978W        W42109  11.553   5.993  12.994  0.0101 -0.0606  0.0635
26979W        W42110  13.332   9.427  14.220 -0.2489  0.1590 -0.0412
26980W        W42111  16.904   1.008   4.295  0.0358 -0.2189  0.0858
26981W        W42112   2.200   2.615  13.639 -0.1949  0.0321 -0.0820
26982W        W42113   2.101   6.140   2.143  0.2079 -0.1434  0.0400
26983W        W42114  10.944  10.751   4.924  0.2341 -0.0518  0.1819
26984W        W42115   5.605   7.299   4.674 -0.0342  0.0616 -0.0340
26985W        W42116  17.422   5.846  14.317 -0.1385 -0.0116 -0.1505
26986W        W42117   9.142  12.558   2.655 -0.0409 -0.2153  0.3090
26987W        W42118   9.690  10.240   2.182 -0.2330 -0.3607 -0.1969
26988W        W42119  15.832  14.959  12.722 -0.1690 -0.1203  0.0894
26989W        W42120   6.111  10.334  15.142 -0.1906 -0.2286  0.0580
26990W        W42121  10.850  15.526  11.714 -0.2301 -0.1666  0.1718
26991W        W42122  15.471   0.833   3.433  0.1959  0.0897 -0.2008
26992W        W42123  16.901   7.355   3.865  0.0436  0.0481 -0.0325
26993W        W42124  12.187   5.395   4.540 -0.0826  0.0691 -0.0222
26994W        W42125   8.340  13.393   2.698 -0.0749 -0.2404  0.0602
26995W        W42126   3.988   5.998  13.471  0.0983 -0.1901  0.0298
26996W        W42127  13.726  17.712   4.181 -0.4751  0.1238  0.0859
26997W        W42128  10.913   2.657   2.867  0.0236 -0.1287  0.1680
26998W        W42129   4.012   0.084  15.517  0.1813  0.1724 -0.1407
26999W        W42130  17.702   8.444  14.393  0.1605 -0.2455  0.2942
27000W        W42131   9.075  17.364  13.384 -0.4105  0.1876  0.3718
27001W        W42132   5.585  11.754   3.982 -0.0416 -0.0505  0.3735
27002W        W42133  10.533   1.743  11.997  0.1748  0.1245  0.2047
27003W        W42134  10.497   5.805   2.364  0.0211  0.2957 -0.3628
27004W        W42135  14.692   4.072   0.893 -0.3566  0.2598  0.1242
27005W        W42136  13.700   1.918   2.619 -0.2170  0.0901  0.3107
27006W        W42137  14.335  15.165   2.469 -0.2224  0.0887 -0.1016
27007W        W42138  11.798  12.593  14.170 -0.0894 -0.0613  0.1828
27008W        W42139   1.532   9.758  10.989  0.0615  0.2781  0.1360
27009W        W42140  11.295   4.416  13.822  0.4344 -0.0597  0.0360
27010W        W42141   5.483  15.192   2.354 -0.0783 -0.0081 -0.2503
27011W        W42142   6.868  13.353   2.509  0.2510 -0.2254 -0.2620
27012W        W42143   7.670   1.168   4.162  0.1152 -0.1546  0.2257
27013W        W42144   0.595  18.036   0.764  0.2190 -0.1072 -0.0600
27014W        W42145   3.421   5.078   3.752  0.2053 -0.4179  0.0914
27015W        W42146   8.846  10.574  15.676 -0.1739  0.0800  0.3359
27016W        W42147   6.308  15.418  13.424  0.1045  0.0521  0.1334
27017W        W42148   7.026   5.515   4.360 -0.0604 -0.0629 -0.1289
27018W        W42149   4.333   3.312   0.487 -0.0059  0.0858  0.0681
27019W        W42150  16.518  14.453   3.161 -0.3353 -0.0492 -0.0388
27020W        W42151   8.588   7.399   0.789 -0.0160 -0.0443 -0.1840
27021W        W42152   9.327   6.259   5.540  0.0713 -0.1427  0.0057
27022W        W42153  16.476  11.420   3.016  0.0127  0.0064  0.3138
27023W        W42154  12.433  16.603  13.720 -0.0006  0.0765  0.0024
27024W        W42155  18.056  10.453   3.861  0.0752 -0.0543 -0.2608
27025W        W42156  14.121  10.683   1.903 -0.0860 -0.0339 -0.0877
27026W        W42157   3.065   9.073  13.209  0.2885 -0.0293 -0.0298
27027W        W42158   2.618  11.395  11.071 -0.1851 -0.1487 -0.2673
27028W        W42159   1.894   4.302  15.636 -0.1967  0.0770 -0.1014
27029W        W42160   6.187   4.604  14.882  0.1991 -0.3630 -0.1287
27030W        W42161   9.141   8.105  12.770  0.0561 -0.0138 -0.0975
27031W        W42162   1.038  13.404   1.505  0.1028  0.3270  0.2039
27032W        W42163  12.479  15.616   5.250  0.0187 -0.1461 -0.3202
27033W        W42164   9.104   5.565   2.702 -0.3168 -0.2803 -0.0318
27034W        W42165   1.459   0.634   1.995 -0.0447 -0.3913 -0.3778
27035W        W42166   7.887   8.729  12.037 -0.0288 -0.1904  0.1263
27036W        W42167  16.249   0.186   4.536  0.1102  0.0797 -0.4118
27037W        W42168  16.220   4.441  13.999 -0.1449  0.1591  0.1378
27038W        W42169   9.890  14.046   4.689 -0.0715  0.0136  0.3913
27039W        W42170   3.721  13.673   4.939 -0.2362  0.2114  0.0602
27040W        W42171   9.035  15.640  13.476 -0.0347  0.1331  0.1711
27041W        W42172   2.456   6.917   0.310  0.1102  0.1121  0.0264
27042W        W42173  11.911  12.208  11.737  0.2449  0.3822 -0.3111
27043W        W42174   3.202   2.470   1.674  0.1724 -0.2160 -0.0701
27044W        W42175   0.929   8.082   2.662  0.0938  0.1916  0.1973
27045W        W42176  14.043   0.195   0.714  0.0353  0.0157  0.2177
27046W        W42177   1.661  14.116   3.026 -0.2240  0.0790  0.0118
27047W        W42178  14.778   2.734   2.293 -0.0100  0.0376 -0.0624
27048W        W42179  18.146   5.413  14.285 -0.2783  0.2949  0.0071
27049W        W42180   8.835  17.964  12.390 -0.2902 -0.0499  0.1898
27050W        W42181   0.080  16.105  11.775  0.0026  0.0286 -0.0897
27051W        W42182  14.248   4.724   4.988 -0.3236  0.1138 -0.1595
27052W        W42183   6.912  14.571  12.964 -0.2448  0.3819 -0.3143
27053W        W42184   1.980  10.056  16.091 -0.5460 -0.0359  0.0685
27054W        W42185  17.701   8.002   4.962 -0.0855 -0.0138 -0.2317
27055W        W42186   1.881   0.509   3.092  0.1163  0.0599  0.0441
27056W        W42187   4.935   1.789  12.578  0.0760  0.3707  0.1270
27057W        W42188   8.113  14.290  10.634  0.2465  0.0718  0.0053
27058W        W42189  13.894   5.271   1.942  0.0955  0.2860 -0.0094
27059W        W42190   0.063  14.082  12.492 -0.0367 -0.0415 -0.0121
27060W        W42191   3.305  12.346   2.957  0.1117  0.1642  0.2763
27061W        W42192   6.245   2.948  14.155 -0.1196  0.0089  0.0637
27062W        W42193   8.242   5.072  11.541 -0.2740  0.0392 -0.1735
27063W        W42194   8.474  14.607  10.765 -0.0256 -0.4026 -0.0820
27064W        W42195  10.943   9.736  14.395 -0.0798  0.4000 -0.1145
27065W        W42196   1.710   2.456   5.271 -0.0184  0.0511  0.2926
27066W        W42197  14.224  15.381   4.128  0.0011  0.0212  0.1379
27067W        W42198   8.250   8.548  13.791 -0.0596 -0.1460  0.2650
27068W        W42199   6.481  16.156  15.228 -0.1233 -0.0678  0.1387
27069W        W42200   5.073  12.594   0.701  0.0561  0.0622  0.0201
27070W        W42201   7.261  13.304  16.207  0.2072  0.0042  0.0856
27071W        W42202   7.839  17.220   2.321 -0.0774 -0.0827 -0.0125
27072W        W42203  15.010  12.557   1.856  0.1163 -0.0666  0.3037
27073W        W42204   1.112  10.895  15.838 -0.1395 -0.1143  0.3085
27074W        W42205  16.819   5.746   5.847  0.1890  0.3994 -0.0224
27075W        W42206   7.598   1.252   3.566  0.1154 -0.0665  0.0347
27076W        W42207   3.137  17.227  11.571 -0.1992  0.1326  0.1993
27077W        W42208  16.125   4.458   0.721  0.2302 -0.1242 -0.2911
27078W        W42209  16.622  16.401  13.851 -0.0687 -0.2960 -0.0666
27079W        W42210  15.617  14.079   4.970 -0.0608 -0.0617  0.2287
27080W        W42211  17.193   7.315   6.392 -0.1636  0.0210  0.3145
27081W        W42212   7.433   7.368   3.971 -0.0144 -0.1741  0.1352
27082W        W42213   6.475  13.382  13.792 -0.3727  0.0731 -0.0888
27083W        W42214   4.782   2.829   2.489 -0.0015 -0.2052  0.0591
27084W        W42215   6.429   7.028  11.813  0.2208 -0.0507 -0.0849
27085W        W42216   7.301  10.161  11.876  0.0654  0.3392 -0.0978
27086W        W42217   4.639   7.087  15.241  0.0696 -0.0338  0.1321
27087W        W42218   3.862  10.295  12.238  0.1704 -0.1907  0.1449
27088W        W42219   8.813   7.303  12.047  0.0431  0.3180 -0.1209
27089W        W42220   3.502   0.672  14.981 -0.0576 -0.2947 -0.0920
27090W        W42221   9.728   4.773   2.666 -0.1115  0.3742  0.2416
27091W        W42222  10.026   9.321   0.496 -0.0408 -0.0770 -0.0843
27092W        W42223   7.390  17.201   4.798 -0.1476  0.2674 -0.0739
27093W        W42224   6.444   1.818  14.020  0.4453  0.0199 -0.0828
27094W        W42225   1.642   9.011   5.661  0.1864  0.1979  0.1747
27095W        W42226  11.219   0.462  14.409 -0.1082 -0.1888  0.1638
27096W        W42227   5.389  15.251   0.299 -0.3103  0.0889 -0.0862
27097W        W42228   5.276  14.498   5.206 -0.3541  0.2536  0.2213
27098W        W42229  10.925   5.517   3.138 -0.0271 -0.0413  0.2245
27099W        W42230   4.892   9.638   4.276  0.4469  0.2260 -0.2208
27100W        W42231  15.272   9.315  16.112 -0.0990 -0.1887 -0.2858
27101W        W42232  13.702  12.592   0.326  0.0991  0.1884 -0.2527
27102W        W42233   2.622   8.081   9.773 -0.2460 -0.0711 -0.1749
27103W        W42234   1.898  13.893  15.162  0.1199  0.0615  0.2840
27104W        W42235  12.041   6.658   4.047 -0.2385 -0.1249 -0.0378
27105W        W42236   7.755  14.879  12.713 -0.2987  0.1752 -0.1656
27106W        W42237   5.903  17.992   4.101 -0.1911 -0.2373 -0.0485
27107W        W42238   7.263   5.110  11.739  0.0613  0.1579  0.2001
27108W        W42239  12.988  14.432   5.299  0.2160  0.0416 -0.0598
27109W        W42240   8.143   8.128   1.900  0.1149  0.3333  0.0153
27110W        W42241  16.485  15.159  15.907  0.0388 -0.0516 -0.2118
27111W        W42242  10.108   9.420   3.860 -0.4557  0.1363  0.0990
27112W        W42243  13.672   1.346  14.682 -0.0291  0.2481 -0.0169
27113W        W42244   0.087   3.211   2.540  0.0317  0.0788 -0.0823
27114W        W42245   1.984  13.715   1.522  0.3270  0.2542 -0.3454
27115W        W42246   0.848  15.201  13.646  0.2852 -0.0691  0.1015
27116W        W42247   3.808   5.077  15.388 -0.1272 -0.0069 -0.0701
27117W        W42248  15.120  13.054   1.922 -0.1722 -0.1615 -0.0193
27118W        W42249   5.412   0.493   1.554  0.1570 -0.1907  0.1079
27119W        W42250   6.868  15.221  10.750  0.1498  0.0876  0.0240
27120W        W42251   0.492   6.841   4.011 -0.0161 -0.0212 -0.3246
27121W        W42252   2.540   7.857   4.224  0.0885 -0.1044 -0.2815
27122W        W42253  12.105  14.112   2.749 -0.1122 -0.1516 -0.1820
27123W        W42254   2.593  16.504  12.849 -0.0168  0.0245  0.0111
27124W        W42255  15.552   7.576   0.105 -0.0453 -0.3148 -0.0585
27125W        W42256  16.880  14.465  14.060 -0.1098 -0.1773 -0.0394
27126W        W42257  10.176   8.174  11.982  0.0507 -0.2346 -0.1760
27127W        W42258  13.590   9.605  12.211 -0.2259  0.0070  0.0722
27128W        W42259  12.244  16.496   5.128 -0.0812  0.1381  0.0112
27129W        W42260   3.833  15.637  14.184  0.0871 -0.1867 -0.2945
27130W        W42261   0.322  11.947   0.798  0.0231 -0.0444  0.1224
27131W        W42262   4.372   2.308   3.729  0.3042 -0.2642  0.1040
27132W        W42263   3.411   9.172  13.614 -0.1945 -0.2553  0.0236
27133W        W42264   1.097  11.449   1.808  0.0020  0.0117 -0.3646
27134W        W42265   3.740   8.888  14.076 -0.1365 -0.3599 -0.4415
27135W        W42266  16.992   5.856   5.304 -0.1424 -0.0354 -0.0649
27136W        W42267   1.577  13.971   3.565 -0.0405  0.4945  0.2471
27137W        W42268   5.107  14.119   5.648 -0.1069 -0.0394  0.2396
27138W        W42269   9.961  13.231   4.648  0.0525  0.0730 -0.2027
27139W        W42270   3.253  11.134  11.821 -0.0692  0.1842 -0.2573
27140W        W42271   4.418  16.206  12.565  0.2615  0.1006 -0.3093
27141W        W42272  13.728   4.797   4.021 -0.1200  0.4282  0.1662
27142W        W42273  14.228   5.348   3.515 -0.1092  0.4882 -0.0285
27143W        W42274  10.758   2.197   5.201  0.2439  0.1913  0.0574
27144W        W42275   0.076  17.888   3.971 -0.0305 -0.1312  0.0847
27145W        W42276   9.116   6.580   4.579  0.0799  0.0509  0.0077
27146W        W42277   6.895   5.011   0.332  0.0475 -0.0822 -0.1773
27147W        W42278   8.950  11.638  15.402  0.0063 -0.1968  0.3953
27148W        W42279   3.393   9.959  12.483 -0.1976  0.1276  0.1406
27149W        W42280  12.223   0.399  15.773 -0.0788  0.2307  0.0238
27150W        W42281   1.706   0.419   4.528 -0.2698  0.1852  0.0653
27151W        W42282   4.386  16.509   4.569 -0.1963 -0.2411 -0.1819
27152W        W42283  13.686  14.210   0.432 -0.1503  0.3766  0.2361
27153W        W42284  13.337  10.570   1.851  0.1806  0.1369 -0.2919
27154W        W42285  18.046   2.375  11.694  0.0091 -0.0124  0.2413
27155W        W42286   8.858   8.310   4.577  0.0335 -0.1333  0.0587
27156W        W42287  14.716   7.307   1.214 -0.2186  0.1377  0.2596
27157W        W42288   7.160  14.261   2.732  0.1099  0.0085 -0.1816
27158W        W42289   8.046  11.052   2.726  0.1506  0.1061  0.0153
27159W        W42290   8.309   4.281   2.787  0.0970  0.0186 -0.0378
27160W        W42291   4.070   0.829   2.381 -0.1822 -0.1082  0.2194
27161W        W42292   5.852  17.769  15.242  0.1060 -0.1273 -0.0404
27162W        W42293  11.663   5.770   3.196  0.1892  0.2385 -0.1353
27163W        W42294   7.350  12.175  12.050 -0.0078  0.1475  0.0456
27164W        W42295  16.168  15.716  12.104  0.0214  0.1968 -0.0301
27165W        W42296   5.798   8.098  11.447 -0.4673  0.0862 -0.0656
27166W        W42297   6.447   8.667  13.874  0.3303  0.3189 -0.1158
27167W        W42298  16.458   5.668   4.573 -0.3423 -0.0660 -0.1314
27168W        W42299  14.663   7.303  14.302  0.2420 -0.0454  0.0716
27169W        W42300  15.853  10.630  13.467 -0.0023  0.0039 -0.1478
27170W        W42301   3.253   2.016   1.862 -0.0002 -0.1455  0.1156
27171W        W42302  13.740  14.737   3.607  0.2944  0.2131 -0.2334
27172W        W42303   6.307   9.518  14.253  0.0729  0.1753 -0.2085
27173W        W42304   0.141  11.250  15.696  0.2701 -0.1603 -0.0557
27174W        W42305  15.517  14.496  12.011 -0.3070 -0.3248 -0.1836
27175W        W42306   9.269   0.019   0.280 -0.2047 -0.1441 -0.3406
27176W        W42307  16.326   4.649  15.975  0.2036  0.0890 -0.1212
27177W        W42308   0.435   1.297  12.634 -0.2970  0.0743 -0.1532
27178W        W42309  12.487  12.963  13.536 -0.2481 -0.0532 -0.2570
27179W        W42310   2.437   2.990   4.832 -0.2385  0.0900  0.1601
27180W        W42311   8.003  17.443  11.196  0.0198  0.1174 -0.1017
27181W        W42312   2.987  11.217   2.271 -0.0627  0.1155 -0.1732
27182W        W42313  10.583   3.845  14.444  0.0131  0.1921 -0.2422
27183W        W42314  15.423   2.945  10.894 -0.2178 -0.0698  0.2547
27184W        W42315   1.738   4.792   0.155  0.1886  0.0369  0.2051
27185W        W42316  17.386   9.759   0.326 -0.0004  0.5556  0.2797
27186W        W42317  17.540   2.031  15.721 -0.2814  0.1498  0.1436
27187W        W42318   8.018  14.567   1.445 -0.2587 -0.0032  0.1189
27188W        W42319   4.840   0.348  16.037 -0.4008  0.1584  0.1901
27189W        W42320   0.562  10.992   0.447  0.0508  0.4248 -0.0689
27190W        W42321   2.188   4.970   5.068  0.0511 -0.1428 -0.0398
27191W        W42322   1.536  12.187   0.681 -0.0014  0.0701  0.2112
27192W        W42323   4.626   5.090   1.980 -0.1508  0.0040 -0.1574
27193W        W42324   8.359   6.169   4.635  0.0597 -0.2286 -0.1823
27194W        W42325  16.920   9.563  15.538  0.0774 -0.5950  0.2442
27195W        W42326  10.295  15.165  15.802  0.0022 -0.1011 -0.1578
27196W        W42327   8.942   6.441   1.147  0.3166  0.0637  0.1630
27197W        W42328  14.573   6.349   2.434  0.0679  0.3355  0.0977
27198W        W42329  12.157   5.385  12.612 -0.0703  0.0229 -0.3255
27199W        W42330   7.667  11.264   3.578  0.0836  0.2849  0.2614
27200W        W42331   7.784   2.421  11.329  0.2773  0.5071 -0.2262
27201W        W42332   3.495   3.328   2.579  0.0454  0.0068  0.0651
27202W        W42333  13.401  11.599   4.364  0.0847 -0.3353  0.0696
27203W        W42334  12.205  15.159   0.968  0.2764 -0.1180  0.0451
27204W        W42335   5.991   9.971  15.774 -0.1030 -0.0265 -0.0330
27205W        W42336   6.401   2.193   0.320 -0.3905 -0.0049 -0.0702
27206W        W42337  15.455  15.356   3.376 -0.0337  0.4483 -0.1163
27207W        W42338   6.832   2.868  11.286 -0.1559  0.1511  0.1661
27208W        W42339  14.529  10.988  14.599  0.0605  0.0138  0.1690
27209W        W42340  12.983   1.076  10.679  0.0723 -0.4185 -0.2115
27210W        W42341   6.293  17.183   4.691 -0.0865  0.0499 -0.1982
27211W        W42342  14.520  10.435   5.148 -0.1549 -0.1148 -0.2534
27212W        W42343  12.650   6.532   4.825  0.0017  0.0494  0.0619
27213W        W42344   4.891   5.144   0.978 -0.3242 -0.0482 -0.1348
27214W        W42345   7.422   2.151   0.509  0.0454  0.0112  0.0844
27215W        W42346  15.285   3.303   3.086 -0.2392 -0.0864  0.0709
27216W        W42347  11.121   3.313   2.859 -0.1816  0.0183  0.1430
27217W        W42348  12.264   7.984  14.248 -0.0580  0.1318  0.4094
27218W        W42349  15.999   9.742  14.246  0.1486 -0.0117  0.3067
27219W        W42350   2.239   0.185  13.119  0.2372 -0.1807  0.0007
27220W        W42351  11.821  15.938   4.001  0.0314  0.0568 -0.1904
27221W        W42352  13.594  13.909   2.521  0.1158 -0.0687 -0.5802
27222W        W42353   9.539   8.012  14.118 -0.1304 -0.4000 -0.4276
27223W        W42354   8.062   7.793  11.019 -0.1368  0.1440  0.1090
27224W        W42355   1.819   3.940   3.016  0.2846 -0.0571 -0.2076
27225W        W42356   5.536   9.394  15.149  0.0763  0.2829 -0.2863
27226W        W42357   6.933  18.108   4.703 -0.0677 -0.1455  0.2287
27227W        W42358   5.522  11.048  11.430 -0.2206 -0.1432 -0.0636
27228W        W42359  17.844  13.675  14.199 -0.0265 -0.2131 -0.0352
27229W        W42360   3.523   1.490  11.288  0.6074 -0.2075  0.0095
27230W        W42361   6.204  16.034   2.335  0.1036 -0.2783  0.2157
27231W        W42362  15.851  11.422  12.088  0.1946  0.0286 -0.0412
27232W        W42363  10.101   1.533   1.591  0.0425 -0.3732 -0.1113
27233W        W42364  10.472   0.397   0.805 -0.0888  0.1871 -0.0647
27234W        W42365  15.448  16.273   6.033  0.0546  0.0505 -0.0007
27235W        W42366   2.389   1.592   2.647 -0.2853 -0.0954 -0.0486
27236W        W42367  14.574   6.796  15.960 -0.0617 -0.0686  0.0979
27237W        W42368   7.866  11.498   4.431 -0.2075 -0.0289 -0.0531
27238W        W42369   6.718   0.690  12.734 -0.0144 -0.0127  0.1589
27239W        W42370   5.049  11.358   0.891 -0.0191 -0.1113 -0.0895
27240W        W42371   4.431   3.345   3.900  0.0895  0.0000 -0.1296
27241W        W42372  13.892  10.305  11.932 -0.0161 -0.2397 -0.2179
27242W        W42373   5.498   7.042   1.326 -0.3491  0.4480 -0.1818
27243W        W42374   3.906   9.172  12.760 -0.0158 -0.3226 -0.1572
27244W        W42375   6.979  10.862  13.883  0.1496 -0.1668 -0.0312
27245W        W42376  17.207   8.520   2.305  0.0949  0.1306  0.0174
27246W        W42377   6.625   7.513   2.644 -0.0877 -0.0821 -0.0291
27247W        W42378   8.971  17.313  15.039  0.3387 -0.0169  0.3385
27248W        W42379  15.695   3.757   4.262  0.1937 -0.1124  0.3404
27249W        W42380   2.646  12.903  13.164 -0.2215 -0.0973  0.0500
27250W        W42381  17.024   9.800  13.354 -0.0093 -0.1919  0.0237
27251W        W42382  11.461   9.842   3.916  0.1708  0.1878  0.1101
27252W        W42383   6.294   5.209  13.678 -0.0050  0.1886  0.0204
27253W        W42384  15.769  11.433   3.976  0.1062 -0.1233  0.2689
27254W        W42385  12.340   0.869   4.017 -0.1769 -0.1448 -0.0003
27255W        W42386   7.543   7.154  12.459  0.0255 -0.1571 -0.1373
27256W        W42387   6.685   4.801   5.376  0.1930 -0.0364  0.1934
27257W        W42388   7.304   1.098   1.048  0.0441 -0.0543  0.1196
27258W        W42389   2.049   2.565  11.900  0.2313  0.1894  0.2923
27259W        W42390  16.656  16.884  14.230 -0.1116 -0.0355 -0.2873
27260W        W42391  16.409   0.972   2.357  0.3952  0.0680  0.0558
27261W        W42392   0.577   5.098  11.893  0.1310  0.0668 -0.1189
27262W        W42393  14.250   3.495   2.638 -0.0695 -0.2437 -0.0524
27263W        W42394   7.668  16.346   2.558 -0.2269 -0.1127 -0.2649
27264W        W42395  10.119   1.738  10.900  0.1311  0.1686  0.2654
27265W        W42396  14.502  10.836  15.061 -0.2600  0.2015 -0.0608
27266W        W42397  10.901  10.048   0.256  0.4520  0.1870 -0.3902
27267W        W42398   4.515   5.687  15.973  0.1152  0.1372  0.0514
27268W        W42399  12.877   3.292  11.450  0.0740 -0.1619  0.0011
27269W        W42400  15.925  14.873   1.056 -0.2197  0.2603  0.0970
27270W        W42401  15.466   9.939  15.628  0.0196  0.0812  0.2819
27271W        W42402   2.959  17.689   3.406  0.1315  0.1681  0.1188
27272W        W42403   6.318   9.068   4.056 -0.1754 -0.1531  0.0689
27273W        W42404   3.141  15.380   0.611 -0.0480  0.0729 -0.1253
27274W        W42405   4.249  16.957   9.882 -0.0652  0.1589  0.2797
27275W        W42406  15.793   1.397  11.754  0.0298  0.2846 -0.2490
27276W        W42407   0.139  17.125  15.140 -0.5093 -0.0082  0.2021
27277W        W42408   2.246   5.432   2.646  0.1769 -0.1421  0.2694
27278W        W42409   7.392   2.150   4.485  0.3392 -0.0836 -0.3348
27279W        W42410   5.679  17.844  10.575 -0.2375  0.4539 -0.1198
27280W        W42411   9.284  13.927  11.289 -0.0768  0.1516 -0.1198
27281W        W42412  15.796   8.861  14.342  0.1940 -0.1335 -0.0154
27282W        W42413  15.411   5.797   5.562  0.3487 -0.2590 -0.1559
27283W        W42414  10.949  17.304  15.995  0.0655  0.1227  0.1317
27284W        W42415   2.894   6.338   1.017  0.2304  0.1183  0.1684
27285W        W42416  12.146   4.588  15.994 -0.4348  0.0033  0.2899
27286W        W42417  13.727   6.085   1.480  0.3248 -0.0193 -0.1417
27287W        W42418  15.867   1.382   2.778  0.5862 -0.0709 -0.1415
27288W        W42419   6.443  11.308   1.360 -0.3229  0.1269  0.1306
27289W        W42420   7.073   1.570   0.332  0.0461  0.1259 -0.1323
27290W        W42421   8.181  11.805  13.651 -0.0693  0.0031 -0.0579
27291W        W42422   0.470   7.599  13.693 -0.0207  0.0544 -0.1737
27292W        W42423   4.922  15.995  11.915  0.0304  0.3424  0.1133
27293W        W42424  11.986   3.164  13.495 -0.2542  0.1874  0.2925
27294W        W42425   3.594   5.887  13.166  0.2001  0.3263 -0.0354
27295W        W42426   8.134  12.000   3.985 -0.0397  0.0531 -0.2430
27296W        W42427   2.733  11.938  14.722  0.0668  0.1991 -0.0285
27297W        W42428  18.022  17.680   5.615  0.2586 -0.0187  0.1397
27298W        W42429  17.879  11.519   1.888  0.0634 -0.0269 -0.1820
27299W        W42430  17.369   2.633   3.489  0.1633 -0.1701  0.1225
27300W        W42431   1.619  10.597   5.639 -0.0820 -0.0769 -0.2028
27301W        W42432   2.525  14.698   0.248 -0.2135  0.3163  0.3430
27302W        W42433   1.512  11.701   0.966  0.0198 -0.0811  0.0353
27303W        W42434  12.599  16.412  14.748 -0.1300 -0.0114 -0.2904
27304W        W42435  15.475  17.041   2.947 -0.1629 -0.2585 -0.0874
27305W        W42436   9.953  12.616  11.631  0.0646 -0.3581  0.0649
27306W        W42437   6.499   0.710  11.877  0.2931 -0.1546 -0.1708
27307W        W42438  15.498  15.150  13.658 -0.2270  0.1807  0.0834
27308W        W42439   4.999   4.089  11.886 -0.0863 -0.1897 -0.0571
27309W        W42440   5.163   0.245  11.996 -0.0155 -0.1110 -0.2689
27310W        W42441  12.620   7.114  10.755 -0.0825  0.1241 -0.0230
27311W        W42442   8.668   8.941   5.026 -0.0211 -0.1683  0.1487
27312W        W42443   8.101   3.122   3.982  0.1408  0.2032 -0.2001
27313W        W42444  14.873   6.070  13.279 -0.0739  0.2930  0.2408
27314W        W42445   1.093   6.756  15.259  0.1665 -0.1020  0.0706
27315W        W42446  14.381   7.730   5.226 -0.1797  0.1668  0.1720
27316W        W42447   1.270  13.874  15.208 -0.0662  0.0094  0.2064
27317W        W42448  17.767   9.230   3.480  0.0453  0.1036  0.1855
27318W        W42449  10.009   2.352  13.486  0.0466  0.0577 -0.0557
27319W        W42450  13.048   6.861   4.921 -0.0362 -0.1605  0.6225
27320W        W42451  15.478  16.095  14.241  0.5580 -0.1904  0.2788
27321W        W42452   2.731  11.420   1.011 -0.1821  0.0552 -0.1353
27322W        W42453  17.783   9.944  11.527 -0.0760  0.1307 -0.3697
27323W        W42454   4.160  15.200  14.538 -0.0538 -0.1457  0.1283
27324W        W42455   3.912   8.085   2.133  0.1667  0.2722 -0.1442
27325W        W42456   8.670   0.668   2.396  0.1743  0.1840  0.0197
27326W        W42457  10.731   6.729   3.406 -0.2107 -0.2008  0.2962
27327W        W42458   5.013  13.048  15.718  0.1656  0.1318  0.2986
27328W        W42459  12.829  16.321   1.041 -0.0489  0.2750  0.2640
27329W        W42460   9.729   4.832  14.316 -0.0215 -0.1019 -0.0445
27330W        W42461  14.968  17.859  13.935 -0.2419  0.0799  0.2506
27331W        W42462   0.831   7.216  14.957  0.2089  0.0117 -0.1383
27332W        W42463  10.760  16.376   3.049  0.1698  0.1168  0.0808
27333W        W42464   7.114   9.077   0.610 -0.0659  0.0605  0.0298
27334W        W42465  13.177   9.951  12.833  0.0353  0.0333  0.1205
27335W        W42466  15.811  16.509  14.358  0.3299 -0.0976 -0.2524
27336W        W42467  10.541   8.044   0.530  0.2904 -0.3125 -0.2156
27337W        W42468  17.283   6.599   3.874 -0.0198 -0.1011  0.0172
27338W        W42469  16.559  11.074   3.634 -0.1088 -0.4925 -0.0702
27339W        W42470  17.949   0.957   1.130  0.0345  0.2279 -0.1155
27340W        W42471   8.987  13.493  11.419 -0.2729 -0.1710  0.0169
27341W        W42472  15.789  17.101  14.153 -0.1617 -0.0203 -0.1515
27342W        W42473  17.566  10.050   2.596  0.3458 -0.1501 -0.2079
27343W        W42474   3.110   6.812   0.958  0.2182 -0.0081  0.3179
27344W        W42475  13.596   5.154  12.613  0.1410  0.1697 -0.0915
27345W        W42476  17.314  12.140  14.622 -0.0583 -0.1128 -0.0316
27346W        W42477   8.283   0.537   4.664 -0.1187  0.0118 -0.2078
27347W        W42478  14.110   6.393  13.506 -0.0775  0.0305 -0.0711
27348W        W42479   1.040   6.039   0.261  0.0399  0.0372  0.0301
27349W        W42480  16.950   5.209  15.623  0.0913 -0.2301  0.2931
27350W        W42481   8.500  13.090  15.444 -0.1410 -0.0303 -0.0877
27351W        W42482  15.990  13.797   3.262 -0.0377 -0.1293  0.2427
27352W        W42483   1.033   5.739   3.437  0.0349  0.1351 -0.0915
27353W        W42484   3.938   5.718   4.463  0.0028 -0.4140 -0.2077
27354W        W42485   3.483  14.516   1.085 -0.2004  0.2835  0.0183
27355W        W42486   4.614  16.833  10.787  0.2193 -0.1202  0.3922
27356W        W42487   2.644   6.255   1.966  0.1192 -0.4341 -0.0513
27357W        W42488   2.759  15.807  14.501  0.2796  0.0742  0.4330
27358W        W42489   0.261   2.263  10.737 -0.0184  0.1624 -0.0203
27359W        W42490  14.354   2.653   3.958  0.0424  0.3564  0.2289
27360W        W42491  12.617   2.716  12.799  0.0022 -0.3161 -0.0984
27361W        W42492   2.215  12.686  12.189  0.1197  0.1532 -0.1005
27362W        W42493   9.932   3.423   4.324 -0.3782 -0.0378 -0.0105
27363W        W42494  14.767   4.182   0.410  0.0143 -0.0861 -0.0592
27364W        W42495   7.369   9.496  13.523  0.1117  0.2213 -0.0755
27365W        W42496  10.811   3.410  14.859 -0.2231 -0.0713 -0.1608
27366W        W42497  13.611   2.265  14.964 -0.0179  0.2020 -0.1034
27367W        W42498   7.609  16.217  15.359 -0.1177  0.2211 -0.2449
27368W        W42499  10.545  17.307  13.694  0.2001 -0.1000 -0.0964
27369W        W42500   4.776  15.132  14.478 -0.1596 -0.1971 -0.3189
27370W        W42501   7.342   6.563   1.917 -0.2351 -0.1256 -0.2071
27371W        W42502   4.457  16.926  13.926  0.1606 -0.1529  0.1974
27372W        W42503  17.516   4.403  12.823 -0.2554 -0.0412  0.2008
27373W        W42504  11.864   3.420  11.564  0.1063 -0.4224 -0.0705
27374W        W42505   3.805  15.940   3.181 -0.0916 -0.0033  0.2052
27375W        W42506   8.437   9.018  14.066 -0.0499  0.1499  0.1317
27376W        W42507  10.986  17.716   0.069  0.0876  0.1352  0.0987
27377W        W42508  15.375  16.676   4.494  0.0188  0.3613 -0.2739
27378W        W42509   7.331   4.210  12.982 -0.2937 -0.0111 -0.0426
27379W        W42510   9.258  10.238  13.924  0.0237  0.1338 -0.0864
27380W        W42511   3.509  14.904   3.428 -0.0303  0.3195 -0.0444
27381W        W42512   6.053  17.339  14.419 -0.1247  0.1643  0.2006
27382W        W42513  16.147   5.563   1.892  0.3525 -0.2162  0.0895
27383W        W42514   6.311  14.553   4.686 -0.1036 -0.0267 -0.3985
27384W        W42515   3.934  14.128   2.500 -0.0342 -0.0794 -0.0784
27385W        W42516   9.565   2.544  11.557 -0.0676  0.1187 -0.2167
27386W        W42517  10.670  17.505   2.217  0.1250 -0.0610  0.1856
27387W        W42518  18.010   8.799   0.476  0.0452 -0.1541  0.0725
27388W        W42519  11.557   9.934  15.408 -0.0654 -0.0747 -0.0018
27389W        W42520  12.408   8.098  11.330  0.0292  0.0928  0.0018
27390W        W42521   6.723   9.241   3.690 -0.1300  0.1546 -0.1618
27391W        W42522   7.816  15.655  10.715 -0.3145  0.1264  0.3514
27392W        W42523  15.762  13.485   3.582  0.2526 -0.1036  0.0581
27393W        W42524   9.974  10.828   1.325  0.3638 -0.0112  0.2799
27394W        W42525  14.401   8.570   5.425  0.0403 -0.0676 -0.0718
27395W        W42526  11.000   3.040  14.550 -0.0399  0.0779 -0.3839
27396W        W42527   0.335   0.865  12.426  0.0940 -0.0686 -0.0624
27397W        W42528   1.033  17.504  12.728  0.1492  0.3197  0.0110
27398W        W42529  10.717  17.974   4.152 -0.1825  0.0672 -0.2377
27399W        W42530   6.458   3.007   2.263  0.0565 -0.1779 -0.2371
27400W        W42531   1.309  15.149   1.830 -0.0530 -0.0069  0.2333
27401W        W42532  15.248  16.421   1.878 -0.1455  0.0835 -0.2236
27402W        W42533   5.096  12.829   3.955  0.0167  0.2504 -0.0951
27403W        W42534  14.033   1.986  12.807  0.1936  0.0994 -0.0922
27404W        W42535   1.043   5.984   5.285  0.0556 -0.0920  0.0678
27405W        W42536  13.100   6.707   3.058  0.3053  0.0123  0.0069
27406W        W42537   9.430   9.763   1.255 -0.2387  0.2593  0.0635
27407W        W42538  18.059   7.943   0.808 -0.0158  0.0947  0.3044
27408W        W42539  17.709  11.559  10.437 -0.2084  0.1762 -0.0457
27409W        W42540   1.909  17.481  15.589  0.1338 -0.2335 -0.0934
27410W        W42541   8.536  10.319  10.738 -0.0933  0.1686 -0.1202
27411W        W42542  14.117  17.749  14.174 -0.2927  0.2445 -0.0449
27412W        W42543   1.851   4.918  13.089  0.2020  0.0051  0.0529
27413W        W42544   0.753   4.645   2.706 -0.1622 -0.0790  0.0601
27414W        W42545  11.154   5.224   2.023  0.2037  0.1521 -0.1307
27415W        W42546   1.067   7.679  14.246  0.2628 -0.1118  0.1709
27416W        W42547  10.296   7.257   0.205 -0.1517 -0.0983 -0.0547
27417W        W42548  11.303  11.622   1.016 -0.2152  0.0173  0.2386
27418W        W42549   2.702   1.255   0.099 -0.0093 -0.1950 -0.1680
27419W        W42550  12.853   1.273  13.805  0.0297 -0.0125  0.1211
27420W        W42551   4.968   5.414  11.216  0.0631  0.3332  0.2211
27421W        W42552   6.352  15.869  13.215  0.0352 -0.2565  0.2635
27422W        W42553  14.815  11.498   0.369  0.2415  0.1090 -0.0435
27423W        W42554  16.834  15.747   0.408  0.1151 -0.1501  0.3361
27424W        W42555  17.991   6.564   0.498  0.2194  0.0865 -0.1420
27425W        W42556   9.705  13.478  12.669  0.0207  0.0346 -0.1206
27426W        W42557   5.422  14.982   2.881 -0.0619 -0.2708  0.0445
27427W        W42558  10.837  14.971  10.432 -0.1455  0.1414 -0.0323
27428W        W42559   2.189  17.628  13.606  0.0506 -0.1317 -0.1388
27429W        W42560   6.091   1.720   0.178  0.1626 -0.3574 -0.0291
27430W        W42561   4.771  15.394   4.253  0.1337 -0.1012 -0.0444
27431W        W42562   7.535   7.347   3.506 -0.2854 -0.1870 -0.0202
27432W        W42563   7.531   9.831  13.202 -0.0292  0.1250 -0.0009
27433W        W42564   7.175   1.215   5.376 -0.0963  0.0741 -0.1916
27434W        W42565  12.372  15.895   3.304 -0.0824  0.4494  0.0140
27435W        W42566   1.272   4.368   1.376  0.0372  0.2788  0.2497
27436W        W42567  13.142   0.993  12.486 -0.0668  0.0741 -0.0062
27437W        W42568  13.697  12.931   4.513  0.3733 -0.0250  0.1292
27438W        W42569  11.116   7.980   3.122 -0.2847  0.1338 -0.0552
27439W        W42570   5.321   3.523   2.297  0.0892  0.3471 -0.0704
27440W        W42571   8.131   6.332  15.342 -0.2203 -0.1256  0.0691
27441W        W42572  12.343   3.910   1.300 -0.2599 -0.2589  0.2506
27442W        W42573   5.792   5.686  10.884  0.0217 -0.1607  0.1736
27443W        W42574   3.469  13.089  13.917 -0.1019  0.1746  0.0013
27444W        W42575   0.231   9.271  10.515 -0.0306  0.2011 -0.1258
27445W        W42576  16.441  14.274   5.468  0.1082  0.2613 -0.2929
27446W        W42577  16.900  18.142  16.106 -0.0796 -0.0798  0.1144
27447W        W42578  11.697   0.860  15.783 -0.1280 -0.2701  0.1690
27448W        W42579   6.147   8.494  10.083 -0.0098 -0.2846  0.2640
27449W        W42580   7.451  13.336  12.713  0.2150  0.0245 -0.0865
27450W        W42581   4.334   1.821   1.202  0.1074  0.0866  0.0375
27451W        W42582   6.807   8.469  14.717  0.1861 -0.1277  0.0318
27452W        W42583   0.637   8.374  13.688  0.1524 -0.1750  0.0561
27453W        W42584  16.292  13.462   0.385  0.2938 -0.1382 -0.0242
27454W        W42585  12.599  12.607  15.810 -0.3603 -0.2147  0.1758
27455W        W42586   4.312  17.802  15.273 -0.2622 -0.2205 -0.0239
27456W        W42587  17.250  12.281   5.363  0.1809 -0.2207 -0.1120
27457W        W42588  14.054  14.657   2.368 -0.1156  0.0616  0.0072
27458W        W42589   1.976  13.424   1.161  0.1738 -0.0056 -0.1555
27459W        W42590   7.047   7.428   4.299  0.0335  0.1239  0.0317
27460W        W42591  13.095   6.146  13.041  0.0588  0.1399  0.1175
27461W        W42592  11.971  10.203  13.903 -0.1492  0.1220  0.1843
27462W        W42593   4.790   6.020   5.083  0.0784  0.2437 -0.1311
27463W        W42594  12.961  15.158  15.188  0.2492 -0.1536  0.5233
27464W        W42595   3.584  13.022   3.927  0.2929 -0.0684 -0.0264
27465W        W42596  14.442  15.567  16.034 -0.1952  0.1490 -0.5495
27466W        W42597  15.254   1.693  15.960 -0.1176 -0.3504 -0.2857
27467W        W42598  12.629   9.073   2.102  0.0101  0.2494  0.0604
27468W        W42599   0.767  13.049  14.964  0.0493 -0.0634  0.1616
27469W        W42600  14.126  10.764  14.698  0.2578 -0.4217  0.1208
27470W        W42601   7.501  14.120  11.125 -0.1923  0.0503 -0.0479
27471W        W42602  15.913   6.422  11.771 -0.0483  0.1363 -0.2562
27472W        W42603  10.810  11.720   3.089  0.0964 -0.2230 -0.1210
27473W        W42604  10.158   7.706  13.242 -0.0963 -0.2216  0.2194
27474W        W42605   3.873   8.312  15.259  0.0634  0.0026 -0.0900
27475W        W42606   4.165  15.124   0.720 -0.1353 -0.3218  0.0028
27476W        W42607   9.167   6.911  13.234 -0.0653 -0.2415 -0.3240
27477W        W42608  16.544  15.476  11.810  0.2673 -0.0946  0.2891
27478W        W42609   2.790  15.040   5.265  0.3494 -0.0360 -0.1484
27479W        W42610   9.003   8.061   2.807 -0.0110 -0.0868 -0.0939
27480W        W42611   4.768  16.296  13.498 -0.1188 -0.2278  0.2602
27481W        W42612   0.587   3.387  14.794  0.1299 -0.1259  0.0335
27482W        W42613  14.145  12.333   2.779 -0.2004 -0.1535 -0.1539
27483W        W42614   8.639  13.864   0.423  0.1021 -0.1433 -0.0604
27484W        W42615  15.270  15.455   4.774 -0.1063  0.1259 -0.0454
27485W        W42616   2.766   9.985  11.284 -0.1644  0.0242 -0.2260
27486W        W42617  17.593  17.641   2.360 -0.1896 -0.0871 -0.1256
27487W        W42618  18.158  15.531   5.715 -0.0812 -0.0340  0.5192
27488W        W42619  15.709   1.837  13.119 -0.1568  0.2969  0.2244
27489W        W42620   5.259   9.326  16.221 -0.1866 -0.2221  0.1340
27490W        W42621  11.343   3.244  11.689  0.0689  0.3639 -0.4841
27491W        W42622   0.681   5.409   3.249 -0.1287  0.2595  0.0939
27492W        W42623  15.848   4.205   2.162  0.0517 -0.1353 -0.2649
27493W        W42624   1.074   5.287   4.338  0.3474 -0.4367  0.0213
27494W        W42625   6.744  15.784  15.765 -0.1537 -0.0457 -0.0731
27495W        W42626  13.394  13.011   5.934 -0.0510  0.2939  0.0790
27496W        W42627  16.563   6.039  13.988  0.1191  0.0958 -0.1479
27497W        W42628  14.857   6.958  11.364 -0.0668  0.3147  0.0854
27498W        W42629   0.340  10.351   5.618 -0.4388  0.0154 -0.2532
27499W        W42630  17.403  14.095  16.221  0.0876 -0.1283  0.1146
27500W        W42631   2.719   1.975  13.224  0.1972  0.0215  0.0909
27501W        W42632   2.662  15.539   0.371  0.1158 -0.1261 -0.1297
27502W        W42633   2.733  13.342  11.702 -0.0680  0.1721 -0.0054
27503W        W42634   0.089   5.304   2.812 -0.0682 -0.0094 -0.0787
27504W        W42635   3.632  16.355  14.909 -0.0394 -0.0463 -0.0949
27505W        W42636   7.536   8.184  13.196  0.0483 -0.1907  0.3476
27506W        W42637  18.181   8.573   0.094 -0.0009  0.2732 -0.1339
27507W        W42638   7.434  11.279   0.165 -0.2912  0.0075 -0.4955
27508W        W42639  11.356   6.500   5.064 -0.0835 -0.3462  0.0185
27509W        W42640  16.946   1.603   5.227  0.1843 -0.2053 -0.3031
27510W        W42641   3.106   1.576   1.241  0.0084  0.2587 -0.1822
27511W        W42642  15.903   7.514   3.732 -0.0808  0.0463 -0.1934
27512W        W42643  13.719   1.534   5.758 -0.2913  0.2204  0.0365
27513W        W42644   8.984   7.411  12.564  0.0332 -0.1686 -0.1474
27514W        W42645  16.138  12.533   2.629  0.1784 -0.0699 -0.1065
27515W        W42646   4.788   7.495  14.848  0.2343  0.0985 -0.1997
27516W        W42647   9.573  10.515  15.972  0.2981  0.0045  0.0391
27517W        W42648   2.969   4.546  14.074 -0.0463 -0.1488  0.1166
27518W        W42649  12.245   7.207  11.073 -0.1701  0.0983 -0.3401
27519W        W42650   0.472  11.284  15.008 -0.2066 -0.2035  0.0425
27520W        W42651  14.107  13.859  16.139 -0.0734 -0.1085  0.0626
27521W        W42652   8.210  13.058   4.050 -0.0380  0.3478  0.0155
27522W        W42653   1.666   2.143   1.420  0.1129 -0.1953 -0.1913
27523W        W42654   3.614  17.581  14.044 -0.2729 -0.1080 -0.1714
27524W        W42655  16.093  18.039  15.829 -0.0990 -0.2353  0.3041
27525W        W42656   2.946   7.702   5.126 -0.1824  0.2435  0.1841
27526W        W42657  15.378   9.854  14.332 -0.3535 -0.1248 -0.0224
27527W        W42658   0.893   3.820   1.652 -0.0407  0.3916  0.0026
27528W        W42659  12.114  10.549  11.035 -0.2497 -0.1861  0.0671
27529W        W42660   4.440  17.569   1.878  0.2024 -0.0080  0.2731
27530W        W42661   3.759   5.474   3.316  0.2781 -0.0502 -0.0680
27531W        W42662   3.365   2.745  12.841  0.2283 -0.0688 -0.1789
27532W        W42663   9.554   4.914   2.219 -0.1193  0.1240  0.0807
27533W        W42664   1.934  12.588   2.039 -0.1641  0.0781  0.2624
27534W        W42665   5.948   4.499  16.131  0.1346 -0.1691 -0.2242
27535W        W42666  12.449   1.419  14.245 -0.0734 -0.2432  0.0344
27536W        W42667  13.451   8.757   5.186  0.2160  0.1232  0.2281
27537W        W42668   7.797   3.468   5.347 -0.1024  0.0516 -0.1163
27538W        W42669   3.036   2.240  12.079  0.3654 -0.2423 -0.3508
27539W        W42670  14.364   8.164   1.052 -0.0934 -0.4157 -0.1167
27540W        W42671   7.018  17.900   2.144  0.1278 -0.1407  0.0917
27541W        W42672   1.633  18.160  10.718  0.1431 -0.1473 -0.1369
27542W        W42673   7.275  13.474   3.741  0.3768  0.3186 -0.0131
27543W        W42674  10.568  14.813   1.581 -0.0875 -0.1880 -0.5695
27544W        W42675   5.156  16.429  15.668 -0.0349  0.1400  0.0961
27545W        W42676   0.452  16.208  15.966  0.0122 -0.0684  0.0836
27546W        W42677  16.632  17.062   4.557  0.3402  0.0609 -0.2161
27547W        W42678  13.066  12.845   1.391 -0.2352  0.0829 -0.2021
27548W        W42679   4.636   7.330   0.392  0.1379  0.0531  0.1581
27549W        W42680  17.737  13.224   4.640 -0.0233 -0.1362  0.0963
27550W        W42681  16.715  10.857   0.388  0.1145 -0.1941  0.1361
27551W        W42682   4.251  10.008   3.120 -0.1750  0.0054  0.1393
27552W        W42683   9.204   7.615  12.944 -0.1095  0.1969  0.0014
27553W        W42684  13.684   6.783   2.570  0.0329  0.1063  0.0886
27554W        W42685  17.462   2.437   5.386  0.1470 -0.0072  0.2200
27555W        W42686   5.722   3.164  11.999 -0.0603  0.3503  0.1232
27556W        W42687   5.997  12.262  10.940  0.2752  0.3022  0.3797
27557W        W42688   2.527   5.241   5.896  0.0580 -0.0221 -0.3260
27558W        W42689   4.424  12.174  13.245  0.0075  0.1352 -0.3059
27559W        W42690  12.660   1.360  15.753  0.2081 -0.1401  0.1688
27560W        W42691   3.005   9.848  15.570  0.1491 -0.1649 -0.3509
27561W        W42692  10.771   9.698   1.629  0.2210  0.3902 -0.1600
27562W        W42693  16.090  15.277   4.122  0.0761 -0.1071 -0.0966
27563W        W42694   5.499  10.820   1.432 -0.0361  0.0644 -0.0052
27564W        W42695   8.209   0.867  12.943 -0.0132  0.1827  0.1195
27565W        W42696   8.395   1.302  15.391  0.3316  0.2141 -0.3774
27566W        W42697   8.830  14.539  11.991 -0.0091  0.5135  0.0279
27567W        W42698   8.707  13.641  14.582  0.1025  0.0457  0.1854
27568W        W42699   0.142  14.136  14.130  0.1817  0.0533  0.1196
27569W        W42700  12.183   0.484   5.406  0.2560 -0.0978  0.1010
27570W        W42701   4.633  12.226  14.717  0.1682  0.0386  0.2113
27571W        W42702  12.500  12.330  15.389  0.2537  0.2264 -0.2118
27572W        W42703  10.828  10.298   4.719 -0.2674 -0.1020  0.0279
27573W        W42704  15.484   5.162   0.030 -0.1853  0.1068 -0.0809
27574W        W42705   4.469   8.915   0.391  0.1151  0.2262  0.1423
27575W        W42706  12.261  15.076   2.411  0.1008 -0.3199  0.3275
27576W        W42707  13.287  16.037   5.206  0.0184  0.0344 -0.2765
27577W        W42708  15.323  10.969   1.526  0.1164  0.1624  0.0255
27578W        W42709   1.740  16.810   0.818 -0.1312  0.0442  0.1756
27579W        W42710  11.528   6.252  14.249  0.1708 -0.1257  0.0343
27580W        W42711  12.016   0.444   0.541  0.0637  0.0192 -0.1995
27581W        W42712  13.141   3.788  11.515 -0.1347 -0.0759 -0.2226
27582W        W42713   0.307   3.085   4.980 -0.1525  0.1391  0.2362
27583W        W42714   8.994  17.020  15.816 -0.3083  0.1660  0.2274
27584W        W42715  15.855   9.021  13.805  0.0049 -0.4735  0.0292
27585W        W42716  12.448  16.033   1.163  0.2023 -0.1733 -0.4736
27586W        W42717   3.712   8.853   0.317 -0.0427  0.2681  0.0395
27587W        W42718   6.496   0.768   2.689 -0.0966  0.2095  0.1941
27588W        W42719   6.285   2.384   0.926  0.0358 -0.3123  0.1957
27589W        W42720  13.025  18.120  12.354 -0.0992  0.2892 -0.2070
27590W        W42721   5.728   8.564  16.196 -0.0829 -0.0719  0.0248
27591W        W42722   6.992  13.197  11.958 -0.1525  0.0257 -0.0313
27592W        W42723   0.599  12.224  14.790 -0.3084  0.0986 -0.3404
27593W        W42724   1.148  16.255   2.805  0.0973 -0.0915 -0.2993
27594W        W42725  12.545  12.417   4.991 -0.1631 -0.0766 -0.1476
27595W        W42726   2.967  11.757   0.697 -0.0795  0.0143  0.1348
27596W        W42727  12.766   8.541  12.269 -0.4132 -0.2804  0.0343
27597W        W42728   9.421   6.671  14.795  0.0659  0.3586  0.2385
27598W        W42729   5.658   5.099   4.473  0.0114 -0.1466  0.0460
27599W        W42730  12.048   7.756  11.107 -0.0452 -0.0043 -0.3411
27600W        W42731   6.784   1.272   1.901  0.1073 -0.1378 -0.2642
27601W        W42732  10.436  17.806  14.902 -0.3212  0.2282 -0.0418
27602W        W42733   7.372  17.951  15.432  0.1124  0.2643 -0.0507
27603W        W42734   7.068   1.539  15.206  0.2009  0.0261  0.1442
27604W        W42735  13.909  15.711   3.889 -0.0076  0.0183  0.0875
27605W        W42736  14.954  11.287   1.412 -0.0894  0.2884 -0.0203
27606W        W42737   6.258   2.051  16.072 -0.1130  0.0051 -0.3143
27607W        W42738  13.792   6.672  15.583 -0.1145 -0.1963 -0.1678
27608W        W42739  10.858  12.891   0.459 -0.2113  0.0299  0.1181
27609W        W42740  13.397   8.456  13.014 -0.0142  0.0088 -0.1193
27610W        W42741  13.553   2.856  11.307 -0.0308  0.1908  0.0734
27611W        W42742  15.897  17.695  15.408  0.0960 -0.0142 -0.3992
27612W        W42743  10.022   2.719  13.056  0.0976  0.0236 -0.3085
27613W        W42744  10.593   7.058   3.813 -0.0420  0.0835 -0.0864
27614W        W42745   6.649  16.640  15.177  0.1328 -0.0538 -0.1050
27615W        W42746   9.002  17.315   2.582 -0.0693 -0.1314  0.1537
27616W        W42747   4.328  12.115   0.116  0.1325  0.0318 -0.0671
27617W        W42748   1.666   1.932  12.601  0.1562  0.2432 -0.0548
27618W        W42749  15.846   0.386   5.895  0.1089  0.3553  0.1002
27619W        W42750  15.925  11.522  15.282 -0.3565  0.0814  0.0800
27620W        W42751   3.333   6.958  15.978 -0.1477  0.0584  0.0342
27621W        W42752   8.189  11.866  12.336 -0.2247 -0.1081  0.0032
27622W        W42753  10.358   0.475  11.882 -0.1584 -0.2017  0.0199
27623W        W42754   9.314   2.429  12.389  0.0038  0.0404 -0.3042
27624W        W42755   4.590  11.515  14.617  0.1047  0.0769 -0.0997
27625W        W42756   2.755  16.076  11.106 -0.0724 -0.0764 -0.0674
27626W        W42757  14.909   0.492   4.724 -0.1273 -0.0419  0.2391
27627W        W42758  14.138  12.900   2.798 -0.2864 -0.2650  0.1111
27628W        W42759  17.849  12.971   4.111 -0.0623  0.1666  0.4967
27629W        W42760  18.149   2.436  12.169 -0.2085 -0.1217  0.2376
27630W        W42761  10.092  10.123  14.410 -0.0961  0.2291 -0.0035
27631W        W42762   6.921   3.540   5.394 -0.1062  0.0121  0.1115
27632W        W42763   9.491   2.211  13.312 -0.2914  0.2334  0.0558
27633W        W42764   9.892   1.363  13.371 -0.1306 -0.3320  0.1614
27634W        W42765  10.055   8.483   0.802  0.0049  0.0346 -0.0388
27635W        W42766  14.534  15.615   1.084 -0.0124  0.0230  0.0053
27636W        W42767  17.049  10.016   2.328  0.0592 -0.2825 -0.0363
27637W        W42768   3.949  11.515   1.505 -0.2437  0.2179 -0.1026
27638W        W42769   0.347  17.355   3.308 -0.0068 -0.2919 -0.1537
27639W        W42770  12.330   2.263   2.313  0.1357 -0.1716  0.1640
27640W        W42771  13.348  11.195   4.067  0.2114  0.1954  0.1059
27641W        W42772   3.176  16.598  12.204 -0.2403  0.1815 -0.0175
27642W        W42773  18.024   2.913   4.674 -0.2330 -0.1055  0.3031
27643W        W42774   4.796   9.207  15.424  0.1936 -0.3472 -0.0184
27644W        W42775   3.232   0.348  11.966 -0.0312 -0.0632  0.1781
27645W        W42776   1.616   8.950   5.114 -0.0706 -0.1572  0.0578
27646W        W42777   5.938  17.435  14.909  0.0665  0.0295  0.3599
27647W        W42778  15.634  14.491   6.124 -0.0658  0.0029 -0.0031
27648W        W42779   5.830   0.267  12.812 -0.3060 -0.6259  0.0017
27649W        W42780  16.174   6.311   0.103  0.0125  0.1415 -0.1257
27650W        W42781   0.463   7.027  11.681 -0.1121  0.0000 -0.0635
27651W        W42782   0.523  15.496   2.932 -0.1229  0.2559 -0.1119
27652W        W42783   6.292   8.715   1.456  0.1752  0.0500 -0.0018
27653W        W42784   6.475   5.956   5.095 -0.0168  0.1049 -0.1304
27654W        W42785   8.370   3.712  12.151  0.1000  0.0594 -0.1736
27655W        W42786  16.628   5.447  12.408  0.0907  0.3799 -0.3201
27656W        W42787   2.330   0.975  10.640  0.0797 -0.1713 -0.3111
27657W        W42788  11.014   8.549   5.062  0.0363 -0.2736 -0.1336
27658W        W42789  15.746  12.483   0.359  0.0242 -0.1199 -0.2989
27659W        W42790   6.172   0.032   3.102  0.0856 -0.1253 -0.1023
27660W        W42791   2.779   1.653  14.234 -0.3616 -0.0044  0.0967
27661W        W42792   6.883   4.721  12.003 -0.1247  0.2493  0.2497
27662W        W42793  13.395  16.566   3.475  0.0336 -0.2468 -0.0498
27663W        W42794   2.933  16.183  14.291 -0.3462  0.0393  0.0656
27664W        W42795   8.274   5.049   4.108  0.0104 -0.0741  0.1691
27665W        W42796  10.175   0.663   0.320 -0.0895 -0.0079 -0.0439
27666W        W42797   3.185   4.333   0.892  0.1357 -0.1502  0.2241
27667W        W42798  10.871  10.383  14.465 -0.0619 -0.3116  0.1054
27668W        W42799  13.526  12.875   2.156  0.1456  0.0528  0.0218
27669W        W42800   6.235  15.407  10.065  0.0164 -0.1942  0.1236
27670W        W42801   1.240   0.004  14.196  0.1113 -0.1011 -0.1056
27671W        W42802   9.452  11.358   2.947  0.0612 -0.0857  0.3277
27672W        W42803   8.667   7.024   4.073 -0.1505  0.3414  0.0888
27673W        W42804  11.795  10.075  15.869 -0.1963 -0.0917 -0.0481
27674W        W42805  13.665   7.758  14.913  0.0229  0.1509  0.2891
27675W        W42806  15.498  16.543  13.995 -0.2109 -0.1283 -0.0940
27676W        W42807  11.889   7.650   5.589 -0.0928 -0.1392 -0.1029
27677W        W42808  16.796   9.043   0.318  0.1660 -0.0416 -0.1438
27678W        W42809   2.505   5.549  12.576 -0.3774 -0.3272  0.0609
27679W        W42810  10.687  11.882  15.751  0.0376  0.1424  0.0748
27680W        W42811   8.773   6.682   1.553  0.2964  0.1812 -0.4521
27681W        W42812   3.896  14.570   3.446 -0.0770 -0.1627  0.2256
27682W        W42813   5.073  17.078  14.324 -0.0577 -0.0586 -0.2563
27683W        W42814  14.045   8.022  11.622  0.0110  0.0241  0.0921
27684W        W42815   3.328   8.816  16.216 -0.0217 -0.0597  0.2175
27685W        W42816  16.755  17.891   2.727  0.0786  0.1345  0.1162
27686W        W42817  11.724   0.345  12.724 -0.0851  0.2058 -0.4629
27687W        W42818  16.471   0.731   3.820  0.1625  0.1208 -0.0460
27688W        W42819   2.893  17.947   2.957 -0.0007  0.0475 -0.0379
27689W        W42820   7.570   5.729   5.131  0.0141 -0.0339  0.0004
27690W        W42821   7.131   9.015   2.976 -0.0110 -0.2134 -0.0237
27691W        W42822  15.745   0.322   1.922 -0.2506  0.2475 -0.0409
27692W        W42823   5.975   6.339   9.390  0.1924  0.2826 -0.2489
27693W        W42824   9.533  15.529  10.110 -0.1557 -0.1411  0.0685
27694W        W42825   1.182   4.694  14.803  0.0261 -0.0630 -0.0844
27695W        W42826   2.427  13.495   3.274 -0.1367  0.0296 -0.4720
27696W        W42827   4.018  14.670  10.617  0.0157 -0.0806 -0.0442
27697W        W42828   6.870   0.133   4.264 -0.1976 -0.1982 -0.1104
27698W        W42829  13.721   1.871  13.413 -0.1279 -0.0974 -0.2599
27699W        W42830  17.727  10.227   4.281  0.3203 -0.4296 -0.2799
27700W        W42831  11.281  10.739  16.006  0.3398 -0.0865  0.0386
27701W        W42832   7.412   7.340  12.894  0.0948 -0.0506 -0.0176
27702W        W42833   3.818  10.597  13.136  0.0595  0.3103 -0.0562
27703W        W42834  12.501  10.675   1.508 -0.1322 -0.2109  0.2529
27704W        W42835  11.348   2.571  16.195  0.0614  0.2108 -0.1254
27705W        W42836   8.218   9.011   4.900 -0.0537 -0.1501  0.0502
27706W        W42837   7.358  10.636  14.137  0.0057  0.0034 -0.0793
27707W        W42838   0.405   3.970   1.825  0.3120 -0.0199 -0.0054
27708W        W42839   6.318  12.871  10.357  0.1526  0.0196  0.2548
27709W        W42840   6.497  13.510  10.046 -0.1135  0.1817  0.1923
27710W        W42841  12.596  18.115  13.863 -0.2026 -0.0468 -0.1080
27711W        W42842  14.482  10.694   4.512  0.4108  0.1061 -0.0432
27712W        W42843   8.113   6.108  11.522 -0.1620 -0.0842  0.1994
27713W        W42844   3.146   7.593  13.171  0.1708  0.0326  0.2840
27714W        W42845  15.498  12.260   4.571 -0.1857  0.0504 -0.0608
27715W        W42846   5.484   3.577  14.877  0.0672  0.0834 -0.2179
27716W        W42847   5.195   6.425  14.525 -0.4439  0.3811 -0.0007
27717W        W42848   0.895   3.328   5.706 -0.0612  0.0211 -0.1211
27718W        W42849   1.970   3.093   0.108 -0.0507  0.6847  0.3645
27719W        W42850   6.949   7.025  13.002 -0.2319  0.1681  0.0010
27720W        W42851  14.769   5.164  12.046 -0.1128  0.2223 -0.3484
27721W        W42852  13.466   1.604   0.099 -0.2460 -0.0246 -0.2842
27722W        W42853   1.272  14.527  15.626  0.1428  0.1632  0.0799
27723W        W42854  12.082  15.307  15.966  0.0645  0.1655  0.0176
27724W        W42855   9.177   9.024   4.957  0.0626  0.2340  0.0452
27725W        W42856  15.648   7.723  12.819 -0.2647  0.0019  0.1013
27726W        W42857   6.040  17.543   1.415 -0.0316  0.1495  0.0474
27727W        W42858   9.150   9.280  13.709  0.0353 -0.0806 -0.0194
27728W        W42859  13.213   9.293   0.651 -0.0548 -0.3910  0.1523
27729W        W42860   0.736  18.149  16.147 -0.3346 -0.4820 -0.2994
27730W        W42861   9.243   2.718  13.845 -0.2175  0.0637 -0.2396
27731W        W42862  14.716  17.302  11.985 -0.2733  0.0412  0.0137
27732W        W42863   2.223   1.733  10.398 -0.2602  0.0781 -0.1556
27733W        W42864   4.239   8.416   1.925 -0.0309  0.1655 -0.3151
27734W        W42865  10.730   6.059  12.689 -0.0233 -0.2217  0.2062
27735W        W42866   0.401  15.559  15.964 -0.1238  0.2204  0.2806
27736W        W42867  12.699   5.643  10.188 -0.0998 -0.1157 -0.1920
27737W        W42868   3.283   5.587   0.344  0.1329 -0.1711 -0.0250
27738W        W42869  16.159  15.028  13.803 -0.0407 -0.0288  0.0874
27739W        W42870   9.835  17.375   4.877 -0.1257 -0.0122 -0.0747
27740W        W42871  13.380   3.253   1.910 -0.3591 -0.2404 -0.0458
27741W        W42872   5.661  10.677   0.247  0.0169  0.1172  0.1490
27742W        W42873   0.789  17.180  14.513  0.0642  0.0412 -0.0193
27743W        W42874   8.050  11.208   2.246 -0.3143 -0.3272  0.1569
27744W        W42875   6.221   8.163   1.050  0.2878  0.0356  0.1251
27745W        W42876   3.455  16.697   0.080  0.0917 -0.2061 -0.2773
27746W        W42877  12.737   4.097   0.450  0.1245 -0.0919  0.0077
27747W        W42878   9.452   1.532   3.207  0.0299  0.3575  0.5055
27748W        W42879  10.856  14.324   4.730 -0.2330 -0.0061 -0.1370
27749W        W42880   3.115   4.826  11.455 -0.1343 -0.0582  0.4304
27750W        W42881   5.077   7.413   1.656  0.2903 -0.0609  0.2141
27751W        W42882  16.496  18.065  11.029  0.1457  0.0148  0.1748
27752W        W42883  15.398  12.213  11.618  0.0905  0.1743  0.3484
27753W        W42884   8.687   3.906  12.948  0.1349  0.0898 -0.1907
27754W        W42885  16.751  17.570   0.235 -0.1931  0.0838  0.0166
27755W        W42886  14.098   7.083   2.494  0.1674 -0.1257  0.0072
27756W        W42887   0.060   9.031  15.398  0.6019  0.1206  0.2321
27757W        W42888  13.795   3.542   0.173  0.1624 -0.0528  0.0419
27758W        W42889  17.716  13.856   2.632 -0.2437 -0.1422  0.0641
27759W        W42890   3.276   5.902  12.784 -0.1755  0.3112  0.1000
27760W        W42891   7.043  18.124  12.691 -0.2409  0.3211  0.0898
27761W        W42892   5.221   6.560  13.634 -0.0163  0.0631 -0.1805
27762W        W42893   8.257   5.721   1.062  0.1382 -0.0842  0.1842
27763W        W42894  12.128  11.394   1.418 -0.2073 -0.0177  0.2936
27764W        W42895  15.412   6.630   2.291 -0.1273  0.0080 -0.2214
27765W        W42896   5.672  12.902  13.711 -0.2892 -0.2158  0.2787
27766W        W42897   7.628  16.033   0.060  0.1338 -0.0661  0.0150
27767W        W42898  13.735   1.906   3.104 -0.0838  0.0122 -0.1538
27768W        W42899   6.420   3.640   0.255  0.1481 -0.0734  0.0856
27769W        W42900   0.757  16.048   5.694  0.0743 -0.0468 -0.0822
27770W        W42901   8.508  10.821  14.304  0.0759 -0.0849  0.2402
27771W        W42902  16.540  13.756  15.034  0.0149 -0.0365 -0.0904
27772W        W42903   1.940   6.296  12.097 -0.2702 -0.2215  0.0848
27773W        W42904  15.966  17.799  13.269  0.1547  0.3995 -0.2078
27774W        W42905   2.028   1.592  12.547 -0.1239  0.0027 -0.0057
27775W        W42906   5.515   5.071   2.352 -0.1390  0.0809  0.0863
27776W        W42907  11.731   8.863   3.252  0.0753 -0.4821 -0.1429
27777W        W42908  11.944  18.089  11.688 -0.0422  0.2247 -0.3194
27778W        W42909  10.204   5.959   5.675  0.2973 -0.0840 -0.0642
27779W        W42910   8.443  16.699  11.460 -0.3244 -0.0853 -0.2224
27780W        W42911   7.751   8.846   5.004 -0.1240  0.1433  0.0621
27781W        W42912   9.212   8.287   3.186  0.0513 -0.4782  0.1056
27782W        W42913   4.702   9.579  10.934  0.0515  0.0283 -0.2928
27783W        W42914  13.501   9.088  15.923  0.1167 -0.1055  0.2072
27784W        W42915   0.458  10.052  13.537 -0.0235  0.2308 -0.0589
27785W        W42916  17.002  15.401  14.085  0.0733  0.4100  0.3499
27786W        W42917  12.704   1.147   3.102 -0.1213  0.0429 -0.1519
27787W        W42918   1.075   4.712   1.705 -0.1976  0.0231 -0.3390
27788W        W42919   1.919  11.358  12.719  0.2694 -0.0025  0.1272
27789W        W42920   0.943   5.945  10.280 -0.2683  0.1390  0.0201
27790W        W42921   3.352   9.607  15.918  0.2308 -0.1328  0.1893
27791W        W42922   7.508   8.212  15.884 -0.1277  0.1121  0.0384
27792W        W42923   8.977   0.705  12.470 -0.1881 -0.1160 -0.1213
27793W        W42924   0.634  13.143  12.643 -0.0893 -0.0275  0.1998
27794W        W42925  11.864  14.106  11.332  0.0650 -0.1340 -0.2273
27795W        W42926   7.097  11.180  14.297  0.2013 -0.1128 -0.1413
27796W        W42927   8.686   4.523  13.813 -0.0773  0.1648  0.0399
27797W        W42928   4.671  17.487   0.820 -0.0146 -0.0013  0.1373
27798W        W42929   7.877  13.722   2.945  0.0497  0.0307  0.0252
27799W        W42930  12.575   6.129   3.173 -0.0832  0.0753 -0.1234
27800W        W42931  16.129   9.423   0.043 -0.2162  0.0199  0.2240
27801W        W42932   8.090  16.553   1.692  0.0474  0.0180 -0.2085
27802W        W42933   5.099  13.443   2.782 -0.0433 -0.0638  0.1015
27803W        W42934   9.452  13.084   3.810 -0.0541  0.1097 -0.0262
27804W        W42935   6.027   2.793  15.002  0.0470  0.0135 -0.0152
27805W        W42936   7.266   8.944  13.500 -0.3028  0.2092 -0.0702
27806W        W42937   8.873   7.208   0.417  0.3025  0.0285  0.1222
27807W        W42938  11.937   0.972  15.354 -0.3125 -0.1767  0.1965
27808W        W42939   3.308   4.888   4.823 -0.2269  0.1308 -0.0251
27809W        W42940  12.633   2.206  13.838 -0.3910 -0.0199 -0.2309
27810W        W42941  10.001  14.541   4.363  0.2195  0.1857 -0.1534
27811W        W42942  11.953  10.384  15.031 -0.1305 -0.3667 -0.2319
27812W        W42943   6.014   5.346   3.468  0.3314  0.0976  0.0171
27813W        W42944   2.885   5.773   4.478  0.0274  0.1996  0.0720
27814W        W42945  13.960  16.859   3.860  0.0108 -0.3932  0.0504
27815W        W42946   7.803  11.575   2.626  0.1774  0.1760  0.2734
27816W        W42947   0.389  17.879   2.509  0.3194  0.0669  0.0427
27817W        W42948  16.387   2.464   2.890  0.2833 -0.1437 -0.0428
27818W        W42949  12.114   7.367  12.596  0.1881 -0.0925 -0.0881
27819W        W42950   8.819  14.617   3.993  0.2086  0.2285 -0.0160
27820W        W42951  11.164  12.760  12.444  0.2180 -0.3206 -0.0000
27821W        W42952   5.376   2.649  12.516 -0.1152  0.1195  0.3357
27822W        W42953   2.223   3.678   0.241 -0.1382 -0.1950  0.2628
27823W        W42954   5.412  14.707   4.215 -0.2505 -0.2230  0.2285
27824W        W42955   9.509   7.919  13.652 -0.2549  0.1394 -0.1902
27825W        W42956   6.596   2.306   1.745 -0.2390  0.0393  0.0447
27826W        W42957   6.771  12.525   4.841 -0.0520  0.1485  0.0686
27827W        W42958   1.798  11.821  13.885  0.1947  0.1191  0.0372
27828W        W42959   9.198   0.984  11.943  0.3059  0.0171  0.2328
27829W        W42960  15.484  15.867   5.016 -0.1577 -0.0731  0.0936
27830W        W42961   6.633   8.665  15.824 -0.0619 -0.3355 -0.0963
27831W        W42962  12.173  14.729  11.624 -0.2014  0.0803 -0.1048
27832W        W42963   7.610   2.418   4.908 -0.0288  0.1575  0.2770
27833W        W42964   1.743   8.074  10.199 -0.0177  0.1605 -0.0706
27834W        W42965  15.596  12.231  15.098 -0.2667 -0.2907  0.0526
27835W        W42966  11.997   4.858  14.555  0.0511 -0.1582  0.3513
27836W        W42967   9.593   8.900  15.922  0.2471 -0.2185  0.0014
27837W        W42968  11.782   3.741   2.037  0.0800  0.0342 -0.0645
27838W        W42969  16.393  16.317  15.200  0.1433 -0.0514 -0.0406
27839W        W42970   1.753  17.287   2.125 -0.0300 -0.0242  0.2579
27840W        W42971  12.072   2.539  12.552  0.0475 -0.3199  0.0100
27841W        W42972  11.241   2.266  15.820 -0.3690  0.1890  0.0464
27842W        W42973   4.737  13.094  12.710  0.1967 -0.3008  0.0397
27843W        W42974  16.941   7.086   5.442  0.0198  0.1821 -0.4469
27844W        W42975  18.144   5.859   0.198  0.1804  0.2422 -0.3465
27845W        W42976   7.095   4.304   0.261  0.1315  0.0793 -0.2636
27846W        W42977   7.009  14.646  14.964 -0.1359  0.0876  0.2500
27847W        W42978  11.894  11.526  16.223 -0.0417 -0.2110  0.0132
27848W        W42979   6.847  13.474  13.340 -0.1268  0.1113 -0.2332
27849W        W42980   0.328   5.455  11.633 -0.0408 -0.1441 -0.0958
27850W        W42981   7.587   5.127  13.359  0.2457 -0.0408  0.1738
27851W        W42982   4.774   9.177  11.192  0.0468 -0.2335  0.1025
27852W        W42983   2.457   2.610  14.476  0.3509 -0.1581  0.0457
27853W        W42984  15.631   9.220   0.254 -0.2911 -0.2087 -0.0507
27854W        W42985  11.140   1.760   2.402 -0.1214  0.0170  0.1224
27855W        W42986   5.447  12.534  14.010  0.1580  0.0110  0.0651
27856W        W42987   5.942  17.042  12.672  0.2044 -0.0883 -0.1057
27857W        W42988   4.615   0.729  14.317 -0.1734  0.0723 -0.0615
27858W        W42989   8.845  14.925   1.245 -0.1082  0.0025  0.3861
27859W        W42990  10.882   4.536  14.756  0.2592  0.2037 -0.1716
27860W        W42991   4.933   4.618   1.071  0.1752 -0.1374 -0.2911
27861W        W42992   9.531   2.120  15.158 -0.2313  0.0224  0.1773
27862W        W42993   7.778   7.184   1.349  0.1647 -0.0001 -0.0722
27863W        W42994  17.340   2.250   3.082  0.0916  0.1691  0.1622
27864W        W42995  12.283   6.715  13.319  0.0915  0.1366  0.2638
27865W        W42996  12.756  10.858   2.887  0.3203 -0.3575  0.1678
27866W        W42997   6.423   4.811   0.080  0.1868  0.1967 -0.2161
27867W        W42998   4.723  10.827   0.746  0.1453 -0.1904 -0.0417
27868W        W42999  10.708  14.279   2.439  0.1903 -0.1332  0.0679
27869W        W43000  12.159  12.388   4.055  0.0353  0.0649  0.1348
27870W        W43001  14.333  13.647  11.123  0.0788  0.1067  0.0148
27871W        W43002   8.018  12.790  11.370 -0.1288  0.2506 -0.1456
27872W        W43003   8.415  11.249   4.347  0.2500 -0.1337 -0.1308
27873W        W43004  10.018  15.267  14.917 -0.0696 -0.0281 -0.0384
27874W        W43005   7.735   3.179  15.186 -0.2862  0.0425 -0.1791
27875W        W43006   3.091  15.465  14.411  0.4159 -0.2633  0.0411
27876W        W43007   2.784   6.307   3.883  0.0389 -0.1732  0.1654
27877W        W43008   7.017   1.792  11.785 -0.1931 -0.2392 -0.1871
27878W        W43009  12.765   5.965  11.971  0.1906 -0.2653  0.1753
27879W        W43010   5.726  10.751  14.921  0.2230 -0.0298  0.0654
27880W        W43011   4.886  13.196   2.387 -0.2131  0.2318 -0.1737
27881W        W43012   1.752   4.832   4.933  0.4817 -0.3323  0.4246
27882W        W43013   1.745   8.858  14.297 -0.1618  0.1960  0.0089
27883W        W43014   6.048  15.813   1.925 -0.1329  0.3433  0.2905
27884W        W43015  11.170  17.161   4.496  0.0352  0.2641  0.1228
27885W        W43016  16.897   4.053   1.339 -0.2044 -0.0508  0.0343
27886W        W43017  17.532  15.307  12.260 -0.1769  0.0002 -0.0659
27887W        W43018  10.866  16.905   1.515 -0.1415  0.0474 -0.0644
27888W        W43019  14.630  16.072   2.505  0.2992 -0.1227  0.1876
27889W        W43020  17.221   7.519   2.236  0.2817 -0.0313 -0.1369
27890W        W43021   8.588   4.926  12.890  0.0781 -0.0375  0.0919
27891W        W43022  16.499  11.228  15.038  0.1040  0.1115 -0.1343
27892W        W43023   1.341  17.206  11.481 -0.1788  0.2537  0.2035
27893W        W43024  10.400   0.500   5.480  0.1374 -0.0439 -0.1417
27894W        W43025   6.674   5.869   4.592 -0.1070 -0.0318 -0.5743
27895W        W43026  11.264  17.627  15.237  0.0725  0.1832  0.1608
27896W        W43027  11.675  17.864  15.087 -0.0270  0.2469 -0.0693
27897W        W43028   8.060  12.340  12.076 -0.1803  0.0427 -0.0384
27898W        W43029  15.692  17.314   1.420  0.1119 -0.0155 -0.2285
27899W        W43030   2.926   6.837   0.032 -0.0949  0.0002  0.0400
27900W        W43031  16.167  17.877   4.019  0.0066  0.1033  0.2971
27901W        W43032   2.380  10.098  12.142  0.0259 -0.2408  0.0110
27902W        W43033   6.432   4.050   5.446  0.0573 -0.2033  0.2229
27903W        W43034   8.595  14.418  11.374 -0.1137 -0.1094  0.1117
27904W        W43035   5.715   6.485  13.806 -0.2651 -0.0555  0.1324
27905W        W43036  10.587   2.295   1.543 -0.0625  0.0755 -0.0632
27906W        W43037  13.599   5.445   0.043 -0.0831 -0.4125  0.1300
27907W        W43038  13.578   6.591   6.243  0.0022  0.0271  0.2923
27908W        W43039   1.573  15.585  16.028  0.2094 -0.0598  0.1093
27909W        W43040  10.446   0.636  15.727 -0.1844 -0.0854 -0.1123
27910W        W43041  12.238  13.917  14.991 -0.2477  0.0913 -0.2325
27911W        W43042   1.377   1.886  12.167  0.0572  0.0667  0.0344
27912W        W43043   7.874   4.346  12.730  0.2136 -0.0949  0.2815
27913W        W43044   7.614  10.602  13.079  0.0373 -0.1416 -0.2432
27914W        W43045   3.902   6.486   2.648  0.0552  0.0079  0.2745
27915W        W43046   3.611   2.971   3.387  0.1295 -0.2396  0.0145
27916W        W43047  14.127   3.050  13.582  0.4536 -0.2901 -0.1234
27917W        W43048   8.528   5.954  12.485  0.1041  0.1470  0.0114
27918W        W43049   8.692   3.164   4.482 -0.0302  0.1794 -0.0940
27919W        W43050  16.290   2.175  10.187  0.0013 -0.1633 -0.0638
27920W        W43051  13.393   8.779  11.999  0.2337 -0.1721  0.0898
27921W        W43052  10.845  14.184  12.626  0.2914 -0.3859  0.1625
27922W        W43053  13.299  10.362  14.145 -0.0277  0.1348 -0.0116
27923W        W43054  17.851  13.138  12.768  0.3154  0.0062  0.0427
27924W        W43055   8.273  15.038  12.551 -0.1155  0.1949  0.0496
27925W        W43056   9.684  14.542   4.778  0.1434  0.0046  0.1901
27926W        W43057   3.693  13.657   3.080  0.1853  0.0765 -0.0845
27927W        W43058  11.809  13.050   4.083  0.1316 -0.1484  0.4082
27928W        W43059  13.363  14.531  15.387  0.1001 -0.0829 -0.0736
27929W        W43060   7.637   7.631  12.294  0.0636 -0.2807  0.1653
27930W        W43061   6.367   2.763   1.788 -0.1881  0.1661 -0.1388
27931W        W43062   5.495  12.041  13.988  0.1367 -0.3350  0.1504
27932W        W43063   8.616   9.961  15.725 -0.3566  0.2147  0.0095
27933W        W43064  15.178   2.422   0.657 -0.2504 -0.2184 -0.1517
27934W        W43065  10.543  18.019  12.405  0.4542 -0.3138 -0.3077
27935W        W43066  11.585   3.460   1.361 -0.1297  0.0022  0.0981
27936W        W43067  15.367  11.539  12.059  0.0012 -0.1411  0.1291
27937W        W43068  15.820  14.484   2.179  0.2464 -0.1950 -0.0908
27938W        W43069   4.421   1.693  13.735 -0.0626 -0.1330 -0.0242
27939W        W43070   1.603   5.924   5.315  0.0195  0.0574 -0.0150
27940W        W43071   1.736   4.779  15.736 -0.1519 -0.0954  0.1574
27941W        W43072  15.011  16.121   5.792 -0.1881 -0.1706  0.2409
27942W        W43073   3.851   4.253   4.953  0.0428  0.2882  0.0973
27943W        W43074   3.603  16.672  14.058 -0.1986  0.1289 -0.3365
27944W        W43075   7.771   4.945   2.540  0.1205  0.6511  0.3071
27945W        W43076  16.869   7.383   0.386  0.1838 -0.0715 -0.2746
27946W        W43077   6.754  15.161   3.944  0.0939  0.1566 -0.0693
27947W        W43078   3.336  11.557  11.519 -0.0726  0.1370  0.2696
27948W        W43079  13.765   7.643   3.331 -0.0439  0.0276 -0.1185
27949W        W43080   2.173  16.413   1.763  0.1282 -0.3948 -0.0375
27950W        W43081   3.241  13.938   4.820 -0.0599 -0.0573 -0.2418
27951W        W43082   5.081  10.988   2.842 -0.0302 -0.1298 -0.1507
27952W        W43083   8.584  11.312  14.396 -0.2083  0.0465 -0.0817
27953W        W43084   1.715   0.734  12.122 -0.1367  0.0290  0.1737
27954W        W43085   6.353   9.889  14.961  0.0521 -0.0148 -0.1040
27955W        W43086   3.771   5.843   5.562  0.1350  0.2491  0.1612
27956W        W43087  17.220  16.228   4.930 -0.2928  0.0417  0.1434
27957W        W43088   6.194  10.628   0.187  0.0717  0.1152 -0.2424
27958W        W43089  13.446   0.508   5.069 -0.0066  0.0819  0.1770
27959W        W43090  14.326   0.483   2.075  0.1425 -0.0258  0.1162
27960W        W43091   6.113   3.379  13.350 -0.0799 -0.0909  0.1472
27961W        W43092   6.726   8.440   4.648 -0.0731 -0.1311  0.2256
27962W        W43093   6.814   1.918   3.219 -0.0811 -0.0031  0.1733
27963W        W43094   8.785   6.432  10.200  0.1801  0.1668  0.1944
27964W        W43095   7.664  13.222   3.630 -0.0345  0.3021 -0.0220
27965W        W43096   8.976  11.504   3.076  0.4123  0.1123 -0.0905
27966W        W43097  10.992  14.950  12.345 -0.0729  0.3101 -0.1149
27967W        W43098  12.997   3.917  15.249  0.0199 -0.1906  0.1085
27968W        W43099   9.934   6.280  15.725 -0.0705 -0.1152 -0.0863
27969W        W43100   1.591  12.246   3.340  0.0381  0.0578  0.3128
27970W        W43101   9.889   7.368   3.631 -0.0571  0.0090  0.1706
27971W        W43102  10.612  16.980   0.778 -0.2537 -0.0458 -0.1408
27972W        W43103   0.799   8.082   0.417  0.1263 -0.0227 -0.0449
27973W        W43104   7.033  16.121  12.650 -0.1386  0.2338  0.1085
27974W        W43105  16.890  13.648   3.085  0.4519  0.1080  0.1821
27975W        W43106  10.290  16.986  15.299 -0.2221 -0.2241 -0.0500
27976W        W43107   2.730  11.897   1.123 -0.1280 -0.1710  0.0451
27977W        W43108  12.813   6.993  14.522  0.0190 -0.1293  0.1929
27978W        W43109   5.437  10.902  14.479 -0.0206 -0.3118  0.0261
27979W        W43110   5.506   2.798   1.034  0.0545 -0.1172 -0.2976
27980W        W43111   9.323   9.051  14.166  0.1646  0.2319 -0.1137
27981W        W43112   6.519   2.595   5.638 -0.1618 -0.2142  0.0753
27982W        W43113  10.168  17.929  15.429 -0.0693  0.2453 -0.0650
27983W        W43114  11.529   9.920   2.558  0.4736  0.0881 -0.3733
27984W        W43115  10.448   1.111   4.070 -0.0662 -0.0367 -0.0710
27985W        W43116  11.479   2.288   1.705  0.1398 -0.3060 -0.3303
27986W        W43117  13.821  14.949  10.852 -0.1758  0.0157 -0.2719
27987W        W43118  15.917   0.483  11.346  0.0570  0.0484  0.2538
27988W        W43119  11.110   0.398   2.278 -0.1267  0.1971 -0.2220
27989W        W43120  14.628  11.615  13.991  0.3041  0.1955  0.0685
27990W        W43121   6.678   1.226  12.743 -0.0763 -0.1019  0.3794
27991W        W43122   4.317   5.632  11.972 -0.1682 -0.0159 -0.0740
27992W        W43123   2.182  14.668  11.251 -0.1418  0.1255  0.0528
27993W        W43124  13.630  18.109   1.017 -0.1297  0.3048 -0.0021
27994W        W43125   1.216   3.969   3.412  0.4357  0.0052 -0.2101
27995W        W43126  11.406  11.393   0.200  0.2859  0.0894 -0.0206
27996W        W43127   9.509   0.119   2.414 -0.0584  0.0634  0.3694
27997W        W43128  14.447   1.699  12.828 -0.1578  0.2304 -0.2560
27998W        W43129  11.891  12.743   4.905 -0.0818 -0.1415  0.0960
27999W        W43130  11.563   4.420   1.447  0.2134 -0.0573 -0.3571
28000W        W43131   5.534  11.182  15.641 -0.0251  0.1255  0.2271
28001W        W43132  17.640   3.700  10.325 -0.0630 -0.0182  0.0813
28002W        W43133   4.701  17.618   3.183  0.1780 -0.0418 -0.1664
28003W        W43134   4.069   7.712   2.494  0.3235  0.3162  0.0216
28004W        W43135  13.890   5.288   4.539 -0.0031  0.2391 -0.0412
28005W        W43136  16.070   9.204   5.431 -0.1242 -0.3854 -0.0238
28006W        W43137   5.591  17.346  15.421 -0.3216  0.0891  0.0202
28007W        W43138  14.431   7.954   2.503  0.1296 -0.2019  0.0858
28008W        W43139  12.570   5.389  13.516 -0.0583 -0.0984 -0.0210
28009W        W43140   4.799  11.447   3.564  0.0125  0.0163  0.1431
28010W        W43141  11.099  10.119  13.567 -0.0647 -0.1888  0.0905
28011W        W43142  12.064  18.122   3.568  0.0176 -0.1369  0.0116
28012W        W43143   2.435  17.209  15.583  0.1983  0.1538 -0.0051
28013W        W43144   3.585  16.731   1.792 -0.0784 -0.4017  0.0449
28014W        W43145  11.299  17.128  13.099 -0.0140  0.2587  0.0790
28015W        W43146   6.892   8.094  15.088  0.2170  0.0537  0.1533
28016W        W43147   5.960   8.463  12.648 -0.0003  0.0143  0.0249
28017W        W43148   3.439   8.071   5.870  0.2757 -0.1389 -0.1497
28018W        W43149   2.570  15.409  13.569  0.2329  0.1719 -0.0171
28019W        W43150  10.238  13.171   0.938 -0.5127  0.3251  0.1598
28020W        W43151   3.231   0.641   2.206 -0.0936  0.2021  0.1322
28021W        W43152  12.159  10.446   1.063 -0.0305 -0.3394  0.0117
28022W        W43153   3.050   6.815  14.592 -0.0435 -0.0892  0.1876
28023W        W43154   8.095  16.863   9.739 -0.0765 -0.0762  0.0138
28024W        W43155  16.182  13.416  12.365 -0.1022 -0.1240  0.0771
28025W        W43156   3.927   7.066   0.540  0.1807 -0.2305  0.1213
28026W        W43157  11.158   2.199   4.547 -0.1322 -0.1139  0.0634
28027W        W43158  10.336  15.389  11.814 -0.1426  0.1676  0.1049
28028W        W43159   4.190  17.077  11.847 -0.0610  0.0981 -0.0590
28029W        W43160  14.482   1.843  14.483 -0.3057 -0.1258  0.1663
28030W        W43161   7.556   4.357   1.745  0.3024 -0.0194  0.1691
28031W        W43162   3.244  14.721   4.460  0.0888  0.0404 -0.3585
28032W        W43163   2.474  15.438  14.354 -0.3038 -0.3854  0.2825
28033W        W43164  16.517   7.395   0.699 -0.1921  0.1466 -0.3369
28034W        W43165   7.059  14.886  11.678  0.0126  0.1392  0.0107
28035W        W43166   6.996   0.719   5.303  0.1257  0.2131  0.1606
28036W        W43167   2.054  10.032   3.587 -0.0050 -0.0861 -0.0801
28037W        W43168   1.599  12.878  12.980  0.0685 -0.1137 -0.0666
28038W        W43169   6.643   9.757   3.589  0.0231  0.2379  0.0891
28039W        W43170  11.635   9.221  14.923  0.3144  0.1411  0.1534
28040W        W43171  17.979  15.371   3.636  0.0061 -0.0380 -0.0955
28041W        W43172   8.265  15.263  11.666  0.2464 -0.1042 -0.3575
28042W        W43173  18.105  13.954  14.534  0.0540  0.0553  0.0211
28043W        W43174   1.765   1.956  15.883 -0.1200 -0.1338 -0.2520
28044W        W43175   3.150  14.130   3.505  0.4403 -0.0699 -0.0601
28045W        W43176   2.704   6.111   0.578  0.1230  0.0463  0.0511
28046W        W43177   9.447  12.968  14.728 -0.3301 -0.0392  0.2033
28047W        W43178  10.372  14.016  14.352  0.2842 -0.0046  0.0105
28048W        W43179  17.605   8.488  12.235 -0.0675 -0.1505 -0.1891
28049W        W43180   8.634  14.235   5.133  0.2672  0.0511 -0.0003
28050W        W43181   8.208  14.020   9.967  0.0065  0.1456  0.1183
28051W        W43182   1.014   6.016  15.279 -0.0236  0.1764 -0.1254
28052W        W43183  12.697  15.517  14.451  0.2040  0.0550 -0.1518
28053W        W43184   4.784   3.695   1.372 -0.1278 -0.1999 -0.1569
28054W        W43185  11.672   5.445  15.465  0.0166 -0.0379  0.0395
28055W        W43186   4.494  13.360   0.592 -0.1514  0.0963 -0.1316
28056W        W43187  14.873   9.862  12.163 -0.3314 -0.1225  0.3261
28057W        W43188  13.817   9.473  15.112  0.0733 -0.1663  0.3721
28058W        W43189   6.064  13.612  12.887 -0.2555 -0.2057 -0.2488
28059W        W43190  14.316   5.410   3.048 -0.1680  0.1488 -0.1683
28060W        W43191   3.440   5.096   1.429  0.0077 -0.0612  0.0213
28061W        W43192   5.537   3.574   4.788  0.2650  0.0902 -0.2336
28062W        W43193   2.967  15.469  10.886  0.0560 -0.0159 -0.1493
28063W        W43194   1.184   8.658  14.520 -0.0382 -0.1297 -0.1554
28064W        W43195   8.899   5.938  13.842  0.0619 -0.1060 -0.1944
28065W        W43196  11.456   3.695   3.744 -0.2744 -0.0569 -0.2699
28066W        W43197  12.392  11.475   0.272  0.1352  0.1502  0.0782
28067W        W43198   7.418  11.675   3.523  0.1564  0.0367  0.2355
28068W        W43199   5.853  10.791  15.441 -0.0207 -0.1166  0.0646
28069W        W43200   3.462  10.913   2.097 -0.1857  0.0289 -0.2577
28070W        W43201  11.698   2.091  10.861  0.1838 -0.1208  0.0774
28071W        W43202   0.218   6.816   2.006  0.1835  0.2184  0.3077
28072W        W43203  10.225   0.335  16.064 -0.1074  0.0084 -0.0776
28073W        W43204   1.985   6.981   0.603  0.1799 -0.1348 -0.1990
28074W        W43205  17.611   2.115   2.417 -0.2319 -0.1119  0.0098
28075W        W43206   8.038   2.302  15.121 -0.0939 -0.0699 -0.1284
28076W        W43207   8.688   1.129   3.131 -0.2895 -0.1406  0.0393
28077W        W43208  14.137  11.851  11.648 -0.2790 -0.0365 -0.1735
28078W        W43209   7.466   8.940   2.190 -0.0961  0.0950  0.4510
28079W        W43210   4.255   8.125  14.661 -0.1607  0.2120 -0.0954
28080W        W43211   1.488  17.597  13.835  0.0023  0.1229  0.2018
28081W        W43212  10.578   3.929   4.659 -0.1221  0.0095 -0.1403
28082W        W43213  10.276   9.780   0.454 -0.0347 -0.2626 -0.0773
28083W        W43214  15.904  17.192   0.995 -0.2118 -0.0585 -0.0523
28084W        W43215  12.303   0.312   2.210 -0.1676  0.0343  0.2308
28085W        W43216   0.800  17.130   1.260 -0.0920  0.2678 -0.0010
28086W        W43217   5.322  15.754  13.231  0.1101 -0.0857  0.0145
28087W        W43218   3.037   0.640  14.292  0.1298  0.0594  0.1148
28088W        W43219  12.134  10.143   4.634 -0.1478 -0.0752  0.2322
28089W        W43220  10.075   2.758   3.376  0.0107 -0.2216 -0.2998
28090W        W43221   8.445   9.945   2.330 -0.0002 -0.0952  0.0472
28091W        W43222   7.433  17.080  15.385 -0.0404  0.2342  0.1616
28092W        W43223  16.404   0.997   3.443  0.3530 -0.4129  0.1801
28093W        W43224   1.202  10.082  12.514 -0.0070 -0.0203 -0.1905
28094W        W43225  10.948   3.853  10.873  0.0655  0.3321 -0.2325
28095W        W43226   3.121   5.923   0.775 -0.0683  0.2384 -0.1534
28096W        W43227   7.525   2.697   0.779  0.0457  0.3567 -0.3734
28097W        W43228   7.420   8.868   3.939 -0.3534 -0.1123 -0.0873
28098W        W43229   5.654   3.726  15.503 -0.3966 -0.1737 -0.1136
28099W        W43230   7.874   8.536   0.723  0.0132 -0.1255 -0.2517
28100W        W43231   0.912  11.318  13.715 -0.0705 -0.0772 -0.0341
28101W        W43232  15.884  16.407  15.258 -0.0841  0.0052 -0.3375
28102W        W43233   9.729   4.977  16.151  0.0662 -0.1487  0.1486
28103W        W43234   4.326   1.695  10.368  0.0212  0.1888 -0.0226
28104W        W43235   8.270  15.300   3.134  0.4480  0.1678 -0.0024
28105W        W43236   0.010   2.123  14.543 -0.2253  0.0686  0.3312
28106W        W43237   3.468   5.149  13.444 -0.1596  0.0697 -0.0803
28107W        W43238  14.750  18.182  13.151 -0.0204 -0.0033  0.0780
28108W        W43239   3.615   7.577   5.717 -0.0353  0.0591  0.1268
28109W        W43240  17.636  13.940  15.474  0.3849 -0.0148 -0.0135
28110W        W43241  16.611  12.958   0.049 -0.1950 -0.0315 -0.2196
28111W        W43242  18.095   1.541   1.278 -0.0219 -0.0652 -0.0970
28112W        W43243   4.147  13.018  13.874  0.1431 -0.0038 -0.2102
28113W        W43244   4.106   8.409  11.706  0.0341 -0.1677 -0.0415
28114W        W43245   5.006  14.631   9.763 -0.2460  0.0895 -0.1321
28115W        W43246  16.313   6.730  11.853  0.2942  0.0045  0.1084
28116W        W43247   8.902   9.927   0.554  0.2693 -0.4070  0.2278
28117W        W43248   7.846   6.868  15.398  0.2181 -0.0185 -0.3669
28118W        W43249   1.491   6.801   0.015  0.0272 -0.2833 -0.1135
28119W        W43250  10.576   9.223   4.006 -0.1407  0.1631  0.0259
28120W        W43251   4.214   7.111   1.024  0.0563  0.2439  0.0558
28121W        W43252   2.630  14.092   1.030 -0.1084 -0.0229 -0.0452
28122W        W43253   4.294  11.911  12.075  0.0974 -0.1878  0.3623
28123W        W43254   8.196  10.424  12.543  0.0860  0.0866  0.2001
28124W        W43255   9.123  14.655  15.686 -0.2774 -0.2928  0.0782
28125W        W43256   6.842   4.049  13.672  0.2264 -0.0399 -0.4006
28126W        W43257   5.617   9.158  13.889  0.3418  0.0561 -0.1338
28127W        W43258   5.183  14.890   3.668  0.0549  0.1470  0.0984
28128W        W43259   1.590  10.279   2.809  0.1601  0.1203 -0.0817
28129W        W43260  16.289  15.179   2.798  0.0526 -0.2637 -0.1666
28130W        W43261   7.197  11.350  13.398 -0.2221 -0.3036  0.1963
28131W        W43262  11.072  12.653  11.096 -0.1718  0.4027  0.1153
28132W        W43263  16.918   1.714  15.373 -0.1335  0.2645 -0.0342
28133W        W43264  18.158  15.375   4.412  0.3528  0.2902  0.0910
28134W        W43265  11.233  13.001   1.921 -0.1873  0.0349 -0.1814
28135W        W43266  10.217   3.510  14.325  0.4308 -0.1935 -0.1699
28136W        W43267  16.210  13.726   4.273  0.0090 -0.2447  0.1811
28137W        W43268  18.015  14.920   0.570  0.1375 -0.0543  0.0648
28138W        W43269   4.840   7.028   5.474  0.0187  0.0607 -0.0578
28139W        W43270   9.141  12.303   0.356 -0.0052  0.0066  0.2818
28140W        W43271  12.754  10.615  16.065 -0.2328 -0.0017  0.0961
28141W        W43272   6.844  15.872   0.614 -0.0684 -0.1979  0.1230
28142W        W43273  12.980   0.994  15.762  0.0910 -0.0234  0.0607
28143W        W43274  17.967   1.770   3.348  0.3084 -0.0121  0.0589
28144W        W43275   0.507  11.296   0.062  0.2186  0.1718 -0.1422
28145W        W43276  12.205   0.564  14.431 -0.2055 -0.1829  0.3270
28146W        W43277   1.548   9.209   0.527 -0.0333 -0.1378 -0.1616
28147W        W43278   4.057  15.804  11.437 -0.0305 -0.3772  0.4086
28148W        W43279   1.322  15.334   0.224  0.1186 -0.3183 -0.3425
28149W        W43280  16.120  10.950  12.287  0.0599  0.2620  0.0378
28150W        W43281   6.360  15.998  10.971  0.1131 -0.0410  0.1464
28151W        W43282   3.383   9.245   2.537 -0.2067  0.0928 -0.0614
28152W        W43283  10.058   1.991   2.473 -0.2892  0.0802  0.0854
28153W        W43284  18.036  16.780  13.913  0.1432 -0.1115 -0.0172
28154W        W43285   8.921  18.142   5.077 -0.0257  0.0580  0.3746
28155W        W43286  14.832   8.324   1.074 -0.1493  0.1742 -0.0156
28156W        W43287  13.083   7.898   4.110 -0.1496 -0.2145  0.2359
28157W        W43288  14.254   6.959  13.459 -0.0492 -0.0711  0.1824
28158W        W43289   7.643   1.984  12.760 -0.0877  0.0015  0.0651
28159W        W43290  12.327  10.331   4.085  0.2038 -0.0996 -0.0642
28160W        W43291   2.740   9.349   4.892  0.2929 -0.5309 -0.0409
28161W        W43292  11.952   2.686   2.589  0.1003  0.2111 -0.0305
28162W        W43293   2.169  15.988  11.671 -0.1400 -0.2367  0.1207
28163W        W43294  16.422  15.537   3.820  0.0944  0.0036  0.1499
28164W        W43295   4.729   5.367   1.578 -0.4225  0.1402  0.0134
28165W        W43296   0.059  15.678  13.390 -0.0176  0.0784  0.1270
28166W        W43297   4.340   2.600  15.164 -0.3563 -0.0470 -0.1390
28167W        W43298  12.099   1.806   2.377  0.0391  0.1216  0.3564
28168W        W43299   6.448  11.038   2.481 -0.0351  0.1021 -0.4830
28169W        W43300   5.796   4.689   4.766 -0.1565 -0.2649 -0.1181
28170W        W43301  15.176   5.150  13.311  0.0400  0.2587  0.5806
28171W        W43302  17.712  10.907   0.116 -0.1257 -0.0635  0.0278
28172W        W43303  15.203  15.705   0.425  0.1545 -0.1392 -0.3527
28173W        W43304   5.505   4.141  15.262 -0.0695  0.3006  0.1731
28174W        W43305   5.305  17.844   2.134  0.2022 -0.0357  0.3633
28175W        W43306  17.741  17.116   3.163 -0.2750  0.0226  0.2313
28176W        W43307   0.849   8.581   3.117  0.0235 -0.5841  0.0435
28177W        W43308   2.586  16.764   0.307  0.0068  0.2232  0.1129
28178W        W43309   7.763  18.029   2.159  0.1229  0.1313 -0.0707
28179W        W43310  12.908   8.160   0.064  0.0262 -0.1587  0.0794
28180W        W43311  14.687   0.357  12.784  0.2042  0.2932 -0.2130
28181W        W43312  15.005  12.830   0.041  0.0472 -0.0673  0.0044
28182W        W43313  11.095   8.106   3.793  0.0838 -0.1308  0.0169
28183W        W43314  11.290   9.365   3.948 -0.1606 -0.0115  0.1175
28184W        W43315   9.884  10.461   3.186 -0.1564  0.1208 -0.1819
28185W        W43316  13.137  17.699  14.372 -0.1724  0.0168  0.0855
28186W        W43317   9.258   6.746   0.766 -0.0675 -0.1549  0.0373
28187W        W43318   5.316  12.073   5.510 -0.1889 -0.2782 -0.3097
28188W        W43319   9.009   1.183   1.475  0.0280  0.1370 -0.1131
28189W        W43320   9.911  12.255   9.945  0.2174 -0.1896 -0.3691
28190W        W43321  11.826   8.725   2.194  0.3179 -0.0661 -0.0462
28191W        W43322   3.277   4.517  12.476  0.0746  0.0406 -0.2720
28192W        W43323  12.876   3.765   2.452  0.2902  0.0286 -0.1464
28193W        W43324   6.380   6.530  11.707 -0.1774 -0.1204  0.1417
28194W        W43325  12.178   5.976  15.005  0.1580 -0.2030 -0.1134
28195W        W43326   0.098  11.253  12.826  0.1181 -0.0693  0.1943
28196W        W43327  12.583  10.705  12.995  0.1502 -0.0206 -0.3306
28197W        W43328   5.234  10.500  13.692  0.0207  0.3593  0.1473
28198W        W43329   4.156  16.562  15.534  0.2879 -0.1758 -0.0139
28199W        W43330  13.333   0.381   2.283  0.2129  0.3421 -0.1379
28200W        W43331  11.715   3.293   0.648 -0.2897 -0.0158  0.1475
28201W        W43332  11.570   9.324   0.239 -0.4410  0.0783  0.3114
28202W        W43333  12.527  15.683  10.281 -0.3421 -0.1089  0.0568
28203W        W43334  14.021  14.884   1.343 -0.0940 -0.0378 -0.2284
28204W        W43335  14.420  14.290   1.896  0.0039 -0.0046  0.0208
28205W        W43336  13.943   9.499   1.035 -0.1351 -0.1659  0.0515
28206W        W43337   1.693   4.136  12.021 -0.1294  0.3947 -0.2013
28207W        W43338   8.134  16.806   1.259 -0.2174 -0.1227 -0.0061
28208W        W43339  10.799   5.064  14.897  0.0437 -0.0487 -0.1937
28209W        W43340  11.972  17.913   0.187 -0.0854 -0.0631  0.1608
28210W        W43341  11.416   6.720  10.195  0.1290 -0.1067  0.1795
28211W        W43342  18.094   0.297  15.001 -0.1496  0.1934 -0.0134
28212W        W43343  13.876  14.167  11.527  0.2251  0.0423 -0.2669
28213W        W43344   5.085  13.167   5.256 -0.0022  0.4130 -0.1841
28214W        W43345   1.322   9.226  12.000 -0.3218  0.1459 -0.0906
28215W        W43346  15.984  17.574   2.415  0.0345 -0.0081  0.0584
28216W        W43347   7.320   8.310   3.843  0.0288 -0.0195  0.1156
28217W        W43348  16.700  12.375   0.170 -0.2072 -0.0624 -0.0491
28218W        W43349   9.657  10.929   2.995  0.2081 -0.0615  0.3317
28219W        W43350   6.868  11.265  12.995  0.0232 -0.1369 -0.0900
28220W        W43351  12.769   1.793  12.434  0.0431 -0.2514  0.2629
28221W        W43352  16.655   1.945  11.869 -0.0855  0.0657 -0.0691
28222W        W43353  10.048  14.632   0.189 -0.3898 -0.1347  0.5682
28223W        W43354   6.419  18.020   4.527  0.4908 -0.2746 -0.1827
28224W        W43355  14.950   6.463   0.987  0.0876 -0.0241 -0.1211
28225W        W43356   5.591   7.876   3.768  0.3397 -0.0900  0.0495
28226W        W43357  14.339  11.743   0.423 -0.0538 -0.2538  0.0178
28227W        W43358   8.095  12.333  11.322 -0.1367 -0.0967  0.2385
28228W        W43359  15.119   7.054  13.519  0.1873 -0.2372  0.4943
28229W        W43360  11.813  11.022   4.430  0.1604  0.1087  0.3236
28230W        W43361  17.455  12.024   2.573  0.0534 -0.0785  0.0214
28231W        W43362  15.813   3.522   4.731  0.2667 -0.0103  0.1568
28232W        W43363   1.998  17.401  12.595  0.0479 -0.3340  0.0336
28233W        W43364  12.583   3.980  14.917 -0.1821  0.0399  0.2161
28234W        W43365   7.668  14.976  14.672 -0.0285 -0.1907 -0.2982
28235W        W43366  14.884  14.072   1.694 -0.4831  0.2790 -0.2844
28236W        W43367   4.485  14.663   1.868 -0.0790  0.0839  0.3113
28237W        W43368   2.158   6.228  15.128  0.2715 -0.1404 -0.1466
28238W        W43369  15.040  13.612   0.334 -0.1764  0.1470 -0.2818
28239W        W43370  10.502  12.800  13.769  0.0597  0.0876  0.3377
28240W        W43371   7.825   7.968   3.338  0.2967  0.0393 -0.1107
28241W        W43372   8.569   9.370  10.906  0.1201  0.1652  0.0221
28242W        W43373  13.599   3.688   0.639  0.3027 -0.2127 -0.0498
28243W        W43374   7.979   1.364  13.292 -0.0085  0.1573 -0.1740
28244W        W43375  11.110   5.199   5.479 -0.2396  0.1871 -0.2941
28245W        W43376   8.049   7.234  13.622 -0.0214  0.3010 -0.0896
28246W        W43377  16.700   6.572  10.906  0.3431 -0.1318  0.0167
28247W        W43378   0.583   5.298   4.177 -0.0646  0.1008 -0.2124
28248W        W43379  13.184   0.990   4.229 -0.2050 -0.1639 -0.2230
28249W        W43380  15.798  12.588  11.697  0.0139 -0.0657  0.0643
28250W        W43381   0.940   8.616   6.284  0.1464 -0.3298  0.0744
28251W        W43382   4.549  13.197   4.041  0.0559 -0.0792  0.0005
28252W        W43383  15.705   3.739   2.605 -0.0519  0.0655  0.0131
28253W        W43384  15.078   2.813  11.264 -0.2881  0.2851 -0.1573
28254W        W43385   7.120   8.102  13.893  0.1327 -0.1566 -0.0846
28255W        W43386   1.726  16.354   0.736 -0.2071 -0.0674  0.1057
28256W        W43387  12.935   1.436   0.782  0.2086  0.0578 -0.1580
28257W        W43388  17.921   6.280  13.452  0.0575 -0.2652 -0.4413
28258W        W43389  13.670  10.445  15.041  0.2553  0.0527  0.0437
28259W        W43390  16.571   8.471   4.969 -0.1136  0.0161  0.1292
28260W        W43391   0.617   8.663   4.370 -0.0534  0.2833 -0.3944
28261W        W43392  17.789   9.683   5.283 -0.2369 -0.0041 -0.1919
28262W        W43393   8.198   1.048   2.222 -0.2607 -0.2720  0.0297
28263W        W43394   0.715  16.769   4.933  0.0873 -0.0089  0.2404
28264W        W43395  16.857  15.256   0.587 -0.0816 -0.0526  0.0222
28265W        W43396   5.619  16.097   5.564 -0.0941 -0.0970  0.0681
28266W        W43397  13.395   6.762  13.931  0.0035 -0.0581 -0.0338
28267W        W43398   2.716   3.703   0.344 -0.0682 -0.0488 -0.0165
28268W        W43399   6.623  16.721  13.325  0.2037 -0.1438 -0.0109
28269W        W43400  12.905   7.429   3.895 -0.1490 -0.4152  0.1073
28270W        W43401   9.454   2.555   2.244 -0.0006  0.0286 -0.0748
28271W        W43402  11.350  12.946   0.969 -0.2658  0.2675  0.0306
28272W        W43403  16.126   4.674  14.550 -0.0225 -0.0399  0.0525
28273W        W43404   7.839   9.776   4.407  0.1816 -0.0409  0.0890
28274W        W43405   1.959   7.291   1.473 -0.2331  0.1492 -0.3572
28275W        W43406   7.756   1.351  14.177 -0.2093 -0.2199 -0.0711
28276W        W43407   0.799  10.620   1.133  0.1632  0.1687 -0.1291
28277W        W43408   7.041  15.495  13.974 -0.1301  0.0016  0.2565
28278W        W43409   0.923  10.523  11.365  0.2479 -0.2258  0.0216
28279W        W43410   0.905   7.770   3.621 -0.1478  0.0240 -0.2028
28280W        W43411  11.286   0.244   5.177 -0.0399 -0.0330 -0.0349
28281W        W43412  12.117   4.107   0.292 -0.0969 -0.0552  0.0959
28282W        W43413  18.164  12.143   4.542  0.2101  0.0081  0.0899
28283W        W43414  13.512  15.370   4.172 -0.0256  0.0983 -0.1759
28284W        W43415   7.858   6.835   2.628  0.1504  0.1569  0.0962
28285W        W43416   8.651   7.866  13.288 -0.1683  0.0794  0.0560
28286W        W43417   6.437  10.352   1.172 -0.0281 -0.3610  0.2649
28287W        W43418   4.611   4.864  11.251 -0.1530 -0.1839 -0.4873
28288W        W43419  14.461   8.615  11.043  0.1005  0.3021 -0.5024
28289W        W43420  12.598   7.387   1.694  0.0939  0.1803 -0.0666
28290W        W43421  10.325   4.315  14.772 -0.1069  0.3428 -0.3130
28291W        W43422  16.368   0.769   5.130  0.1015  0.2462 -0.2496
28292W        W43423   6.496   2.513  15.198 -0.1996  0.0236  0.0474
28293W        W43424  14.206  15.235   0.116 -0.0746 -0.1813 -0.2988
28294W        W43425   2.497  15.181   2.862 -0.0845 -0.3585 -0.0927
28295W        W43426  17.371  17.890   3.285  0.2388 -0.1021  0.1062
28296W        W43427   6.652  15.704  10.738  0.5273 -0.1883  0.1922
28297W        W43428   4.785   7.664   3.935  0.4053  0.1400 -0.1324
28298W        W43429   3.383   3.575  12.455 -0.0711 -0.0125  0.1622
28299W        W43430  17.913  15.639  15.089  0.1411 -0.1112 -0.2738
28300W        W43431   9.349  11.260  16.052 -0.2631 -0.1809 -0.0288
28301W        W43432  14.678   2.773   4.885 -0.1085 -0.0512 -0.0720
28302W        W43433   3.478   4.009   3.610  0.1381 -0.3830 -0.5441
28303W        W43434   6.228   4.219  15.345 -0.0011 -0.0393 -0.1462
28304W        W43435   6.577  15.297   0.224 -0.1094 -0.0661  0.2587
28305W        W43436   9.360  10.356   1.250 -0.1783 -0.2895 -0.3258
28306W        W43437  18.070  13.137   0.507  0.1334  0.1317 -0.1945
28307W        W43438   1.081   0.224  12.698  0.1303  0.0099 -0.1260
28308W        W43439   5.875   1.921  15.297 -0.3100 -0.0831 -0.1129
28309W        W43440   5.974   1.411  10.860 -0.0570 -0.3376 -0.4013
28310W        W43441  14.707  17.146   1.778 -0.1262  0.0196  0.0621
28311W        W43442   8.012   7.793  13.212  0.2438 -0.4511  0.1279
28312W        W43443  12.026   2.051  11.266  0.1842 -0.0461 -0.0550
28313W        W43444   8.394  16.372  13.286  0.0811 -0.3603  0.3030
28314W        W43445  16.370   7.191   2.413  0.3022  0.1140  0.0153
28315W        W43446   3.673   4.434   0.660  0.1103 -0.2118  0.4558
28316W        W43447   6.603  14.819   1.043  0.1827 -0.0382  0.0485
28317W        W43448   9.467   6.821   2.999 -0.2849 -0.0053  0.0206
28318W        W43449  16.392   1.562  13.921 -0.2112  0.1350  0.0693
28319W        W43450  15.499  11.552   5.287  0.1688  0.2046  0.0001
28320W        W43451   7.546   5.554   0.586  0.2806 -0.1313  0.2998
28321W        W43452   0.125   5.249  12.207  0.0011  0.3078  0.2566
28322W        W43453   6.425   0.643   1.899  0.0821 -0.0298  0.1738
28323W        W43454  12.193   1.901   4.669  0.5147 -0.0674 -0.3071
28324W        W43455  12.626   3.552   1.630 -0.1491 -0.1150 -0.0043
28325W        W43456   0.149   0.628   0.309  0.0760 -0.1271 -0.1855
28326W        W43457  13.784  11.796   5.241 -0.0281 -0.0574  0.3200
28327W        W43458   1.295   8.572  15.941  0.1544  0.1669  0.3133
28328W        W43459  17.479   8.156  13.128  0.1353 -0.0256  0.2523
28329W        W43460   4.605   7.492   5.285 -0.0432  0.1056  0.2816
28330W        W43461   2.657   1.583  10.804  0.1222  0.1568 -0.0905
28331W        W43462   9.786   2.611   1.021 -0.2006 -0.3005  0.0526
28332W        W43463   2.320   5.844   3.857  0.0228 -0.0210 -0.2441
28333W        W43464   4.147  10.882  12.282 -0.0975 -0.0518  0.1715
28334W        W43465   9.134   0.929   2.386 -0.1103  0.0328 -0.4685
28335W        W43466  15.502   8.460  14.573  0.0405 -0.4065  0.1953
28336W        W43467   1.167  12.807  12.647 -0.2234 -0.3819  0.1938
28337W        W43468   1.980  14.526   5.552 -0.2847  0.2218  0.0555
28338W        W43469  14.817   3.340  15.927 -0.1699  0.1484 -0.3690
28339W        W43470  12.369   9.209  12.987  0.4261 -0.2138 -0.1580
28340W        W43471  17.836   5.749   4.023 -0.0379 -0.1909 -0.1155
28341W        W43472  10.897   4.264   3.387 -0.0395  0.1413 -0.2285
28342W        W43473  10.212   5.870   0.229 -0.1254  0.0168  0.0450
28343W        W43474   1.752  11.920  15.199  0.0673 -0.2020 -0.3018
28344W        W43475  16.195   4.038  15.433 -0.1289 -0.2514 -0.1231
28345W        W43476   5.617  18.032   0.400  0.0915 -0.0090 -0.1295
28346W        W43477   0.753  10.684  13.234  0.2235  0.0607 -0.1413
28347W        W43478   8.270   5.571  15.755 -0.0292 -0.0450 -0.0479
28348W        W43479  16.095   7.585   2.118 -0.2291 -0.1592 -0.0422
28349W        W43480  16.271  15.859  12.609  0.2363  0.0664 -0.0024
28350W        W43481  10.157   1.309  10.639 -0.2494  0.3263 -0.0716
28351W        W43482  12.667   4.794  15.625  0.1010 -0.1206 -0.3247
28352W        W43483  14.928  10.366   5.687 -0.1038  0.1163 -0.0172
28353W        W43484   4.114  16.493   3.065  0.2723  0.5633  0.3001
28354W        W43485  11.531  11.750   4.136  0.1441  0.1872  0.1264
28355W        W43486   2.109  16.784   5.184  0.2129 -0.0283 -0.1060
28356W        W43487  11.146   2.030  14.585 -0.1514  0.0105  0.0114
28357W        W43488   0.127  17.637  12.347 -0.1026 -0.2950 -0.0392
28358W        W43489   6.707   3.170   1.896 -0.5478  0.1949  0.1345
28359W        W43490  13.804   2.180  15.876 -0.1853 -0.0807 -0.2058
28360W        W43491   4.186  17.178   2.381  0.0063  0.1095 -0.1709
28361W        W43492  11.055  18.134  15.421  0.0184 -0.1402 -0.0499
28362W        W43493   9.812  15.006   4.315 -0.1653  0.1978  0.1258
28363W        W43494   2.896   3.145   4.651 -0.2645 -0.3231  0.2397
28364W        W43495  17.186  10.692   1.927 -0.0762 -0.2777 -0.0262
28365W        W43496  15.878   2.879  10.689  0.2735 -0.0348  0.4585
28366W        W43497   6.305   6.171  12.893  0.0665  0.0966  0.2538
28367W        W43498   9.546   5.399  11.618  0.0975 -0.1004 -0.1150
28368W        W43499   7.862  14.937   2.959 -0.0689  0.0410  0.2711
28369W        W43500   8.370   7.833   2.222 -0.0358 -0.0732  0.1514
28370W        W43501   7.523   2.631   4.400 -0.0577 -0.0479 -0.0273
28371W        W43502   3.909  17.980   9.812 -0.1996 -0.0496  0.3663
28372W        W43503  14.221  13.474  12.111  0.0812 -0.1387  0.0712
28373W        W43504   2.640   7.277   0.027  0.0045  0.2107  0.2795
28374W        W43505  12.757   4.690   4.545  0.0153 -0.0184  0.2366
28375W        W43506  18.039   5.444  10.752 -0.1585  0.0539  0.2538
28376W        W43507   7.415  16.880  11.054 -0.0341 -0.3298  0.0606
28377W        W43508   6.030   6.422   5.895 -0.0796 -0.0294 -0.0034
28378W        W43509  17.040  17.940   2.303 -0.2840  0.2224 -0.2166
28379W        W43510   9.049   6.943  14.052  0.4058  0.1484 -0.2326
28380W        W43511   2.366   3.149   3.432  0.1116  0.0787  0.4093
28381W        W43512   1.935   0.454   2.071  0.0971  0.2382 -0.0475
28382W        W43513   6.803   9.886   4.382  0.2406 -0.4058 -0.1760
28383W        W43514   0.058  18.112   1.077 -0.0773  0.1247 -0.1890
28384W        W43515   4.383  15.280   5.058 -0.0614  0.1248  0.1598
28385W        W43516   7.089   7.988  13.267 -0.2541 -0.1436 -0.0479
28386W        W43517  12.964   6.659   4.457  0.0420  0.0945  0.2540
28387W        W43518   6.724   8.242  16.052 -0.1238 -0.1000  0.0872
28388W        W43519  17.620  15.850   2.797  0.1630  0.1223 -0.0223
28389W        W43520   0.956  17.511  11.324 -0.1273  0.1542  0.1534
28390W        W43521   7.991   9.086   1.949  0.0689 -0.1983  0.2988
28391W        W43522  13.035   6.396  13.964  0.1267 -0.2351  0.0840
28392W        W43523   5.897   6.848   4.052  0.0415 -0.2235 -0.3480
28393W        W43524   4.567  13.520   2.678 -0.0819  0.6084 -0.0814
28394W        W43525  12.413   6.472   1.671  0.2263 -0.0762  0.0416
28395W        W43526  15.360   4.465   2.133  0.0489  0.3612  0.2143
28396W        W43527   8.678   7.762   3.967 -0.0286 -0.0579 -0.0776
28397W        W43528   4.864  15.786   3.389  0.1603  0.0069 -0.2763
28398W        W43529   1.814  15.770   4.746 -0.0126 -0.1417  0.0286
28399W        W43530   2.334   9.991  11.504  0.3013  0.2160  0.0396
28400W        W43531   0.103  14.172  16.163  0.0626  0.1907  0.3030
28401W        W43532  13.172  17.941  13.887 -0.0158 -0.3404  0.1970
28402W        W43533   7.448   8.634   1.617 -0.0814  0.1573 -0.0361
28403W        W43534   0.389   2.680  10.462  0.3290 -0.2284 -0.1016
28404W        W43535  16.990   4.279  11.617  0.0090  0.0034 -0.1506
28405W        W43536   1.331  17.747   4.110  0.4268 -0.3152 -0.4804
28406W        W43537  12.834   9.884   4.855  0.1268  0.2765  0.0299
28407W        W43538   4.915   6.834  14.475 -0.0483  0.1708 -0.1812
28408W        W43539  13.465   8.933   0.430 -0.0413 -0.0450 -0.1099
28409W        W43540   8.251  14.736  13.416  0.0450  0.2158 -0.5035
28410W        W43541  14.596  10.319  12.696 -0.0403 -0.1304  0.0893
28411W        W43542  16.226   8.789  13.471  0.0837 -0.1337 -0.1209
28412W        W43543  15.991   1.236   0.816  0.1600 -0.0772  0.4183
28413W        W43544  16.062   8.888   1.069 -0.1415 -0.0546 -0.1943
28414W        W43545   0.488  14.391  13.387  0.1181  0.0243  0.1274
28415W        W43546  10.725   9.374  11.131 -0.0573  0.0339  0.0418
28416W        W43547  11.162  16.097   3.422 -0.2319 -0.0252  0.1717
28417W        W43548  10.547   3.569   0.413  0.1050  0.0387  0.0312
28418W        W43549   0.731   7.928   5.155 -0.1450 -0.2726 -0.1915
28419W        W43550   1.532  11.981  14.591  0.1388 -0.0787  0.0376
28420W        W43551   7.742  13.604  15.039  0.0594  0.0195  0.1075
28421W        W43552   9.039   3.195  12.481 -0.0165 -0.2909 -0.0989
28422W        W43553  12.087  16.968  13.784 -0.2714 -0.1371  0.0599
28423W        W43554   4.403  12.766  10.561  0.2366 -0.0879  0.0361
28424W        W43555  11.008   3.068  15.434 -0.0745 -0.0469 -0.1069
28425W        W43556  11.861   0.158   5.039  0.1678  0.1343 -0.0242
28426W        W43557   1.717  10.068   1.471 -0.0415 -0.1195  0.2312
28427W        W43558   5.900  12.158   1.273 -0.0432 -0.0332 -0.3376
28428W        W43559   7.638   0.887   0.643 -0.0656  0.3218 -0.0161
28429W        W43560   8.959   3.586   0.721  0.0955 -0.1886  0.0240
28430W        W43561  13.414   4.234  12.288 -0.0077  0.0539 -0.0556
28431W        W43562   9.660   2.361   4.568  0.0144  0.2644 -0.0164
28432W        W43563  12.186  13.513  10.698  0.2824 -0.0399 -0.1114
28433W        W43564  12.799   3.455  16.116  0.1370  0.1011  0.1825
28434W        W43565   0.729   8.697   4.908 -0.0581  0.1769  0.1112
28435W        W43566   0.833   2.462   4.575  0.0133 -0.0639  0.0114
28436W        W43567  17.374   9.017   4.739 -0.0360  0.1862  0.3489
28437W        W43568   5.680  14.898  10.560  0.1850 -0.1535 -0.0228
28438W        W43569   3.194   1.318   4.056 -0.2736 -0.0861  0.3026
28439W        W43570   8.062  15.722   0.989  0.0084  0.0598 -0.0612
28440W        W43571   6.533  16.876  12.181 -0.0512  0.0685  0.0936
28441W        W43572   2.756   9.055   9.841 -0.3471  0.0195  0.0868
28442W        W43573   2.420   7.012   5.190  0.2660 -0.1054 -0.1538
28443W        W43574  17.287   4.641  11.540  0.2277  0.0217  0.0717
28444W        W43575   8.833  12.118   3.621  0.1786 -0.0772 -0.2039
28445W        W43576   6.708  14.979  12.155 -0.0650  0.0147  0.1568
28446W        W43577   8.993   5.386  11.926  0.0387  0.3471  0.1825
28447W        W43578   8.320  14.747   0.600  0.0893  0.0847 -0.1081
28448W        W43579   4.842   8.681  15.560 -0.1372 -0.1818  0.2621
28449W        W43580   0.868   6.212  11.755  0.1976 -0.0162 -0.1724
28450W        W43581   2.895  13.694   0.882 -0.1939 -0.2928 -0.0444
28451W        W43582  10.891   2.075   3.644 -0.0908 -0.1566  0.0180
28452W        W43583  12.908   6.608   1.727  0.1738 -0.0506 -0.3499
28453W        W43584   2.725   7.440  13.536 -0.0838 -0.1371  0.1789
28454W        W43585   8.878   3.816  15.576  0.0752 -0.0431  0.0116
28455W        W43586  10.682   4.836  14.136 -0.0798 -0.0546  0.2057
28456W        W43587  16.144   0.223   4.060  0.0507 -0.1919 -0.0396
28457W        W43588  15.668  15.028   3.950  0.1601  0.1145 -0.3306
28458W        W43589   2.648   1.907   3.625 -0.2040  0.0575 -0.3631
28459W        W43590  14.304  15.885   6.272  0.0554  0.3275 -0.0073
28460W        W43591   6.149   0.822   3.776  0.2268  0.0772  0.2061
28461W        W43592   2.337   5.460  10.483 -0.0830 -0.4816  0.2583
28462W        W43593  10.085  14.463  15.075 -0.2603 -0.0094  0.0196
28463W        W43594  13.006   3.334  10.056 -0.0334  0.0573  0.0910
28464W        W43595   4.259   5.202  14.053  0.0584 -0.1181 -0.2239
28465W        W43596   2.173   9.379   4.179  0.0275  0.2108  0.3212
28466W        W43597   9.814  10.732   2.327  0.1171  0.0589  0.3512
28467W        W43598  13.459   4.080  12.861  0.1165 -0.1767  0.1270
28468W        W43599  15.159   0.007   9.905 -0.3118 -0.1058 -0.3249
28469W        W43600  12.071   0.564   4.942  0.0588 -0.2177  0.0496
28470W        W43601   0.521  14.516  15.102  0.2776  0.0974 -0.0395
28471W        W43602   5.942  13.964  13.525 -0.1671  0.4168 -0.1134
28472W        W43603   5.727   9.429  12.722  0.1913  0.1636  0.1020
28473W        W43604  14.503   4.183  13.119  0.4564  0.0680 -0.1630
28474W        W43605  15.110   0.620   3.180  0.0249  0.0807  0.3514
28475W        W43606  10.814  15.868   3.087  0.2858  0.1212  0.2956
28476W        W43607   8.294  10.855  13.328 -0.1101  0.2337 -0.0957
28477W        W43608   1.156  14.983  12.404 -0.0749 -0.0409 -0.2096
28478W        W43609  13.054   5.159  10.272  0.4369 -0.2789 -0.1634
28479W        W43610  14.997   1.307  13.264 -0.1789  0.2595  0.0566
28480W        W43611   6.466  13.640  15.973  0.0152  0.1487  0.0174
28481W        W43612   3.233   4.268  11.374  0.0259  0.0017  0.2831
28482W        W43613  11.090  17.316   3.512 -0.1603  0.4643 -0.3282
28483W        W43614   4.806  14.471   5.482  0.1977  0.0904  0.0894
28484W        W43615   6.963  16.707   3.034 -0.1547 -0.1881  0.1114
28485W        W43616  13.074   0.605  15.441 -0.3511  0.1504 -0.0417
28486W        W43617   9.692   0.297   0.124  0.3778  0.2512  0.1686
28487W        W43618  11.132   5.345   1.442  0.0175 -0.0744 -0.1863
28488W        W43619   8.630  16.569   3.756  0.0674 -0.0645  0.0789
28489W        W43620  12.497   4.934   2.304 -0.0592  0.1202 -0.1188
28490W        W43621  13.226   0.129  12.723 -0.0633  0.0946 -0.5218
28491W        W43622  14.943   4.905  16.130  0.3584 -0.0044 -0.3294
28492W        W43623   5.530   8.557   3.727 -0.0709  0.0631 -0.0840
28493W        W43624  13.569   8.300   4.232  0.2244  0.0905  0.2336
28494W        W43625   5.662   5.428   1.415  0.0289  0.1438  0.0607
28495W        W43626  14.410   5.353   0.920  0.0042 -0.2344 -0.0910
28496W        W43627  12.299   7.016  13.782 -0.2609  0.0669 -0.0552
28497W        W43628  14.222  11.589   5.093  0.0051  0.0567 -0.2606
28498W        W43629  16.085   5.062   6.011  0.2570 -0.2753  0.0368
28499W        W43630   4.059   4.407   1.972 -0.1968 -0.0095  0.0233
28500W        W43631   2.786  13.478  11.122 -0.0649  0.0781 -0.2235
28501W        W43632  17.893  17.842   0.644 -0.3940  0.1989 -0.0482
28502W        W43633   6.920  17.928   1.645 -0.0030  0.3767  0.1998
28503W        W43634   3.154  13.699   5.802  0.0806  0.3709 -0.1981
28504W        W43635  15.266   4.566  14.536  0.2699 -0.0021 -0.1397
28505W        W43636   5.137   9.198  10.861  0.0156  0.1067 -0.4354
28506W        W43637   5.529  14.114  10.757  0.0057 -0.2014 -0.5627
28507W        W43638   1.216  15.629   4.110 -0.1294  0.2675  0.2679
28508W        W43639   0.787   2.762   5.550  0.1656  0.1315  0.0489
28509W        W43640   3.363  13.158  14.463 -0.2286 -0.0327 -0.1731
28510W        W43641   5.641  11.381  13.101  0.0348  0.0083  0.1037
28511W        W43642  14.942  13.249  11.770  0.0693  0.1477  0.1159
28512W        W43643   0.161  12.446  13.329 -0.1447  0.1216  0.1510
28513W        W43644   0.533  17.850   4.173  0.2220  0.2640 -0.1104
28514W        W43645  14.839  11.880   2.258  0.0206 -0.0666  0.1785
28515W        W43646  13.008  13.701  11.328  0.0843 -0.1435  0.2465
28516W        W43647  17.658   3.029   5.479 -0.0363 -0.1374  0.2925
28517W        W43648  11.455   0.035  14.721  0.0003 -0.0267  0.1879
28518W        W43649   6.120   7.870   4.980 -0.0372  0.0129 -0.0717
28519W        W43650   5.789   3.934   3.913 -0.0134  0.0862 -0.4611
28520W        W43651   0.581   2.753  10.905 -0.1215 -0.1241 -0.3787
28521W        W43652   1.570   8.528  11.482 -0.5026  0.2475 -0.0782
28522W        W43653   4.508   1.128   4.757 -0.2837  0.0070 -0.0393
28523W        W43654   1.349   8.972  13.892  0.1421  0.1960 -0.1262
28524W        W43655  15.903   3.036   4.682  0.2010  0.0696  0.1823
28525W        W43656  10.807   3.449  11.192  0.4083  0.2467  0.0504
28526W        W43657   4.328   7.939  11.869  0.0117  0.2438 -0.2345
28527W        W43658   7.163  16.425   1.465 -0.0750  0.0746  0.3221
28528W        W43659   5.354   2.189   3.709  0.0296  0.2412 -0.1752
28529W        W43660   4.918  18.173  11.238 -0.0142  0.2993 -0.2662
28530W        W43661  17.801   8.051   3.735 -0.3222 -0.0675 -0.0452
28531W        W43662   9.149   4.734   2.569 -0.1107  0.3272  0.0485
28532W        W43663   8.307   7.395   3.942  0.1011 -0.1651  0.1615
28533W        W43664  16.096   8.508  13.077 -0.1515  0.0892 -0.0202
28534W        W43665  14.856   7.525   0.671 -0.0818  0.0241 -0.0523
28535W        W43666   4.275   1.068   4.044 -0.0901 -0.0702 -0.1425
28536W        W43667  16.226  12.700  10.856 -0.0083 -0.1632 -0.2008
28537W        W43668   6.764  17.763  13.807  0.0781  0.1980 -0.1023
28538W        W43669  15.959  13.261   1.224 -0.1595 -0.0914  0.0527
28539W        W43670   2.338  10.160  14.063 -0.0406  0.1380  0.1306
28540W        W43671  14.862  14.240   2.732 -0.0025 -0.0496 -0.1348
28541W        W43672   5.433   1.406  11.090  0.0815 -0.0721  0.0181
28542W        W43673  15.754  18.174   1.040  0.0957 -0.0907 -0.1772
28543W        W43674   3.359  16.145   2.458 -0.0199  0.0055 -0.2620
28544W        W43675  17.354  17.065  11.722  0.0944  0.2976 -0.0867
28545W        W43676   9.861   2.268  12.941  0.1435  0.1266 -0.2467
28546W        W43677   2.758  14.384   3.863  0.1738 -0.0781 -0.0121
28547W        W43678   3.375   3.007   0.983 -0.2654  0.2673 -0.0083
28548W        W43679   3.903   3.328  13.676  0.2019 -0.0240  0.5170
28549W        W43680   4.025   0.745  11.896  0.0567  0.0995 -0.1857
28550W        W43681   1.728  14.142   1.480 -0.1632  0.2011  0.0605
28551W        W43682   3.766   2.921   0.205 -0.0546 -0.1339 -0.2332
28552W        W43683  15.241   1.214  14.131 -0.0250  0.0178 -0.3644
28553W        W43684  15.862   5.164  10.869  0.0570 -0.3142  0.3684
28554W        W43685  10.839  17.530   4.564 -0.2690 -0.1747  0.1153
28555W        W43686  15.484  16.917  12.265  0.0938 -0.3243  0.2585
28556W        W43687   8.002  17.564   2.011 -0.2973 -0.0709  0.0197
28557W        W43688  11.709   3.170  12.991  0.3552 -0.0853  0.2058
28558W        W43689   6.974  16.725  11.111 -0.1825 -0.0408 -0.1107
28559W        W43690   3.218   3.832  13.711 -0.0054 -0.0450 -0.0890
28560W        W43691   7.695  14.694  13.450  0.0174 -0.1721 -0.0515
28561W        W43692  16.453   3.487  12.713 -0.0755  0.0204  0.2226
28562W        W43693   9.539   8.056   0.274  0.2718  0.0425 -0.1725
28563W        W43694  15.553  10.078  12.465  0.1301 -0.0418  0.1466
28564W        W43695   9.252  10.544   4.459  0.2962 -0.0148 -0.0081
28565W        W43696   8.205  17.596   3.452 -0.0022  0.1273  0.4270
28566W        W43697   2.691   7.677   4.687  0.1382 -0.0483  0.2176
28567W        W43698  16.611   0.250   3.367  0.1683  0.0372  0.5034
28568W        W43699   9.124  14.875  11.482  0.3067 -0.1456  0.0689
28569W        W43700  15.120   7.394   4.441 -0.2482 -0.0975  0.0949
28570W        W43701  15.734   2.099  14.435 -0.2388  0.3783 -0.0036
28571W        W43702  17.256   5.607  13.410  0.0295 -0.3040 -0.1626
28572W        W43703  14.776   1.289   1.507  0.1923 -0.2634  0.1545
28573W        W43704   7.987   7.050  10.493  0.2798 -0.0838  0.1272
28574W        W43705   7.429  14.978  11.381  0.3153 -0.1019  0.1277
28575W        W43706   6.004  13.102  12.077 -0.0402 -0.2638  0.1229
28576W        W43707  14.339   9.660  13.336  0.2232 -0.1171 -0.2615
28577W        W43708  16.023   2.816   4.236  0.0849 -0.0943  0.0242
28578W        W43709   7.630   8.569   1.130 -0.0390  0.0063  0.0429
28579W        W43710   7.001   2.809   0.821 -0.1383  0.2641 -0.3040
28580W        W43711  16.401   3.162   5.936 -0.0234 -0.0997 -0.1133
28581W        W43712  12.830   4.788   3.961  0.0853  0.2048  0.0522
28582W        W43713   2.260  14.026  13.813 -0.0584  0.0644  0.1428
28583W        W43714   9.896   0.223  12.377 -0.0212  0.1320  0.1251
28584W        W43715  10.141   8.472  12.729  0.0504  0.0552  0.2110
28585W        W43716   2.449  12.291   3.037 -0.3403 -0.1533 -0.1355
28586W        W43717  11.264   3.472   1.795  0.0583  0.0189 -0.4680
28587W        W43718  16.727   1.005  13.512  0.0234  0.0141  0.1709
28588W        W43719   0.942   5.518   3.889 -0.1603 -0.3255 -0.0501
28589W        W43720   3.984  16.374   4.766  0.0024  0.0251 -0.0107
28590W        W43721   4.851   9.471  10.455  0.2973  0.0178 -0.4068
28591W        W43722   7.267  17.498  12.054 -0.1884 -0.0016 -0.0098
28592W        W43723  13.685   2.690  14.026  0.1476  0.0642  0.1928
28593W        W43724   8.793   4.035  12.413  0.3102 -0.0964 -0.0430
28594W        W43725   7.616  10.051  15.525 -0.0580 -0.0626 -0.1212
28595W        W43726   2.646   6.248  15.105 -0.0900 -0.0278 -0.2099
28596W        W43727   6.228  11.026  14.468  0.1047 -0.1632  0.1005
28597W        W43728   0.418   5.344   0.980  0.1903  0.0052 -0.2881
28598W        W43729   8.419   4.766   2.550 -0.2411 -0.0368  0.2821
28599W        W43730  12.514   3.432   2.416 -0.1725  0.1859  0.1465
28600W        W43731   0.128  16.239  15.068  0.4603  0.0097 -0.0418
28601W        W43732   4.992   3.386   1.696  0.1579  0.2157  0.1397
28602W        W43733   6.206  16.916  14.712  0.0386 -0.0352 -0.1093
28603W        W43734   8.982  12.002  13.565  0.1601 -0.1446  0.1199
28604W        W43735  11.235   8.885  15.567  0.0224 -0.1315 -0.1767
28605W        W43736   9.633  13.874   1.096  0.3800 -0.0614  0.1241
28606W        W43737  17.082  14.356  12.937 -0.0502  0.0952 -0.0427
28607W        W43738  16.586  15.536  12.337 -0.2502 -0.0585 -0.3829
28608W        W43739   9.962  11.815   4.456  0.0271 -0.0765 -0.0719
28609W        W43740  15.744  13.028   2.606  0.2566  0.2387 -0.2147
28610W        W43741   2.878  11.007  12.614  0.0706 -0.0765  0.0794
28611W        W43742  10.171   8.028   2.334 -0.2180  0.2168 -0.0345
28612W        W43743   0.070   6.966   3.160  0.2872 -0.1280 -0.1318
28613W        W43744   9.100   6.300  13.512  0.0400  0.0606  0.0825
28614W        W43745  17.286  15.848   4.048  0.0079  0.0245 -0.0985
28615W        W43746   9.888   1.441  11.758  0.0299 -0.0555 -0.1331
28616W        W43747   9.007   0.379   5.259  0.1226  0.0845  0.1323
28617W        W43748   7.814  12.654  12.348  0.0650  0.2120  0.1614
28618W        W43749   0.642  13.334   2.136 -0.1566  0.1121 -0.0715
28619W        W43750  13.945   5.959  14.897  0.5192  0.0839 -0.0314
28620W        W43751   1.901  13.974  11.281 -0.2585 -0.0195 -0.1780
28621W        W43752  14.044   8.563  10.773 -0.3041 -0.0726  0.0238
28622W        W43753   7.241   0.113   1.867  0.1384  0.0059  0.2283
28623W        W43754   6.373   2.560  11.566  0.0172  0.1929  0.0756
28624W        W43755  16.564   4.426   0.593 -0.2382  0.1879  0.0520
28625W        W43756   8.238   8.162   4.686  0.1354  0.3142  0.0605
28626W        W43757   6.820   5.364   3.370  0.1499 -0.2304  0.1821
28627W        W43758  15.939  13.397  14.341  0.0239  0.0627  0.0389
28628W        W43759  15.894   6.696  12.958  0.1937 -0.0799 -0.1742
28629W        W43760   2.283   7.464   1.789 -0.2031 -0.5556  0.2322
28630W        W43761   3.423   3.024  13.709 -0.1718  0.2629  0.1530
28631W        W43762   3.342   2.354   3.988  0.0457 -0.0278 -0.0085
28632W        W43763   1.406   1.981  13.789  0.0678 -0.0353 -0.3198
28633W        W43764   8.391   2.439  10.401 -0.0446 -0.1443 -0.2871
28634W        W43765   2.161   6.598   1.913  0.2299 -0.1342  0.3350
28635W        W43766  11.453  11.998   1.466 -0.0606  0.1279  0.0793
28636W        W43767  15.230  10.071   6.039  0.2655  0.0115  0.2948
28637W        W43768  10.656  10.969  11.144  0.2068  0.0909 -0.3124
28638W        W43769   1.144  16.487   3.990 -0.1478  0.0763 -0.3154
28639W        W43770   2.003   6.796  12.483 -0.1761  0.0795 -0.2521
28640W        W43771  12.189   1.563   1.747  0.2555 -0.0390  0.0093
28641W        W43772   6.426  11.205  15.001  0.3192 -0.2948  0.1430
28642W        W43773  17.924  12.534  11.714 -0.1299 -0.2510  0.3728
28643W        W43774   5.308  14.050   2.348 -0.0366 -0.0989  0.0178
28644W        W43775  12.528   0.017   2.587  0.2367 -0.2888 -0.1045
28645W        W43776   2.431  14.745   5.474  0.1813  0.2943 -0.1366
28646W        W43777  16.825  14.491   5.612  0.0637  0.0602 -0.1317
28647W        W43778   6.958  14.247  11.782  0.0631  0.2727  0.0093
28648W        W43779  17.003  13.028   2.006  0.0477 -0.2373  0.4464
28649W        W43780  11.546   2.799  14.819 -0.2063 -0.4066 -0.1444
28650W        W43781  13.680   5.750  14.466 -0.2464  0.0246  0.1972
28651W        W43782   8.972  17.586   5.674 -0.0473  0.1303  0.0456
28652W        W43783  14.363  15.090   4.491  0.0480  0.1344  0.2651
28653W        W43784  12.085  11.307   4.859  0.1604  0.1939 -0.4335
28654W        W43785   0.354   6.830   4.497  0.0290 -0.0464  0.3463
28655W        W43786  17.474  11.839   5.501 -0.1795  0.1418 -0.1005
28656W        W43787  13.811   4.532  12.215 -0.1994  0.1544 -0.1790
28657W        W43788   4.099  15.032  10.964  0.0978 -0.2260 -0.0959
28658W        W43789  18.172   6.570  10.151 -0.0801 -0.2065  0.1280
28659W        W43790   2.050  10.997   5.384 -0.1677  0.1604  0.0586
28660W        W43791  10.267   9.636   4.353  0.0083  0.0787 -0.2453
28661W        W43792   4.082  13.746   3.473 -0.1268 -0.1708  0.3203
28662W        W43793   1.721  12.741   3.222  0.0381  0.0121 -0.0420
28663W        W43794   0.588   8.059  14.469  0.1180 -0.3400  0.0034
28664W        W43795  14.517   5.686   5.091  0.0418  0.0441 -0.0463
28665W        W43796  17.192   4.273  11.068 -0.1458  0.0337 -0.0243
28666W        W43797   8.090  17.663  14.818 -0.0112  0.3002 -0.0929
28667W        W43798  10.286   0.618  11.389 -0.0820  0.2159  0.0519
28668W        W43799   1.264   4.736  13.068 -0.0539 -0.1107  0.0271
28669W        W43800   9.395  13.474   4.337  0.0422 -0.1330 -0.1794
28670W        W43801   3.678  13.239   5.191 -0.0340 -0.0571 -0.3365
28671W        W43802  11.122  13.698   1.883  0.3229  0.1505 -0.0341
28672W        W43803  10.285  15.040  12.139 -0.2259 -0.5367  0.0472
28673W        W43804   1.681  10.976  13.043  0.0231  0.3130  0.0101
28674W        W43805   7.758  10.063  11.674  0.0040  0.1837 -0.0777
28675W        W43806   6.147  10.836  13.487  0.3055  0.0156 -0.0783
28676W        W43807   4.454   6.459  13.917  0.1421 -0.0926 -0.0589
28677W        W43808  10.291   4.461  16.095 -0.1495 -0.1536 -0.1364
28678W        W43809  15.943   1.440   1.329  0.0342 -0.0683 -0.1150
28679W        W43810   7.267  12.313   0.210  0.2112 -0.0334  0.4838
28680W        W43811  11.537  11.855  14.158  0.1112 -0.0883  0.0111
28681W        W43812  11.750   7.551   3.524  0.1162  0.0031 -0.2827
28682W        W43813   5.939  18.129  10.882  0.1941  0.0775  0.2888
28683W        W43814   1.822  14.094  12.588 -0.2004 -0.0414  0.1061
28684W        W43815  13.996  15.444   0.537  0.1876  0.0546  0.1469
28685W        W43816  11.561   1.716  13.227  0.0627 -0.1665  0.0927
28686W        W43817  14.367   4.111  15.436  0.1331  0.0077 -0.3096
28687W        W43818  16.472   9.634  12.949  0.2318 -0.0040 -0.1303
28688W        W43819   7.108   9.710  11.929 -0.0024 -0.3116  0.1524
28689W        W43820   5.465  11.804   1.271  0.0871  0.0229  0.2207
28690W        W43821   0.751   6.574   2.683  0.2642 -0.1779 -0.0219
28691W        W43822   9.445  14.352   1.145  0.1036  0.3354  0.0965
28692W        W43823   3.633  14.376  11.487 -0.1368  0.1660  0.0203
28693W        W43824   9.195  13.399   1.136  0.0636  0.1709  0.4837
28694W        W43825   4.707   8.565   2.197  0.3251  0.4600 -0.1522
28695W        W43826  15.061  17.520   4.025  0.0379 -0.0558 -0.0518
28696W        W43827   4.287  16.881  14.423  0.1270 -0.0915 -0.0097
28697W        W43828   5.357   7.707  13.623 -0.2389  0.1126 -0.0823
28698W        W43829  11.809  13.958   1.016 -0.2660 -0.1450  0.3739
28699W        W43830   5.850   2.408  12.645 -0.3278 -0.3323  0.3882
28700W        W43831   1.051   9.794  10.773 -0.0150  0.0655  0.1263
28701W        W43832  18.170  15.643   2.860 -0.1466  0.0071  0.0013
28702W        W43833   8.612  16.417   4.233 -0.1562 -0.4252 -0.3409
28703W        W43834  15.587   8.947  11.461  0.4035 -0.0424  0.3731
28704W        W43835   0.326   1.727  11.886 -0.0917 -0.0460 -0.1203
28705W        W43836  12.108   7.106  11.948 -0.4608  0.0863 -0.1243
28706W        W43837  15.344  15.419  11.539  0.3273 -0.1310 -0.0699
28707W        W43838  17.143   5.284   0.680 -0.2412 -0.0032  0.0687
28708W        W43839   9.332   1.585  15.081 -0.1824  0.1233 -0.3172
28709W        W43840  12.914  15.822  13.384 -0.0354 -0.1316 -0.0833
28710W        W43841  14.609  14.467   1.042  0.3186 -0.0647 -0.1432
28711W        W43842   9.531  11.431  14.389  0.1092 -0.0463  0.2745
28712W        W43843  13.970  13.526   3.403  0.0506  0.2825  0.1387
28713W        W43844   8.147  11.158   1.227  0.2580 -0.0731  0.2512
28714W        W43845  10.181   7.975   3.225 -0.1580 -0.1475 -0.3389
28715W        W43846  12.683   2.449  15.036  0.1281 -0.0319 -0.0400
28716W        W43847  13.045   9.655  11.303  0.2152  0.0312 -0.1644
28717W        W43848   1.915   0.935   2.033  0.3073  0.1266 -0.1959
28718W        W43849   5.412   3.411   0.507  0.2099  0.0057  0.2808
28719W        W43850  10.384   5.782  14.697 -0.1473 -0.0589 -0.1138
28720W        W43851   7.980   7.949  14.234  0.1231  0.1138 -0.0871
28721W        W43852  17.851   4.916   4.071  0.0956 -0.0961 -0.0174
28722W        W43853  17.196   8.875  13.841 -0.1229  0.2556 -0.0867
28723W        W43854   6.412   3.560   4.022  0.0420  0.1829  0.2265
28724W        W43855  17.988  17.917  12.619  0.1034 -0.1724  0.3527
28725W        W43856  17.144  11.516   0.754 -0.2660 -0.0256 -0.0208
28726W        W43857   9.579  12.175   2.547  0.2341  0.0559 -0.1570
28727W        W43858  13.124   3.890  12.535 -0.1101  0.2316  0.1226
28728W        W43859  15.580   0.253  13.779 -0.0386 -0.2531  0.0156
28729W        W43860   2.267   5.110  13.323 -0.0042 -0.1532 -0.1716
28730W        W43861   2.793  11.674   2.018 -0.0743 -0.0021  0.1813
28731W        W43862   4.138   6.582   4.165  0.1185 -0.0390 -0.3062
28732W        W43863   5.106   8.139  12.843  0.0048  0.2632  0.0081
28733W        W43864  11.088   7.812   1.171  0.0021 -0.0227  0.2687
28734W        W43865   2.581  14.296  11.860  0.0182  0.0099 -0.0509
28735W        W43866   8.796   1.572  10.517  0.0084  0.0335 -0.1070
28736W        W43867  15.400   2.561   5.654  0.0948 -0.0134  0.0013
28737W        W43868  10.958   8.238  14.536 -0.3004  0.0697  0.1175
28738W        W43869   2.842   2.457  13.114 -0.2085  0.1179 -0.1728
28739W        W43870   8.017   7.952   5.215  0.0258 -0.2183  0.2090
28740W        W43871  13.314  13.764  12.729  0.0754 -0.0142 -0.1189
28741W        W43872   7.874   8.544   3.279  0.0860 -0.0245  0.1130
28742W        W43873  14.348  15.046   5.785 -0.1632 -0.1569  0.2014
28743W        W43874  10.872  14.438  12.135 -0.1321 -0.2077  0.2834
28744W        W43875   9.604   2.356  11.073 -0.0518  0.0145 -0.0330
28745W        W43876   0.475   9.662   2.046  0.0392 -0.0831 -0.2074
28746W        W43877   4.047  15.082   3.477 -0.1507  0.0006  0.2505
28747W        W43878  17.458  17.531  14.231 -0.1783 -0.0944 -0.1918
28748W        W43879  10.370  14.447   4.887 -0.0955 -0.1630 -0.0306
28749W        W43880  17.732  13.148  13.227 -0.1277 -0.3331  0.0218
28750W        W43881   1.142  17.493   1.116  0.1166 -0.0217 -0.0060
28751W        W43882   8.340  10.661  11.025  0.0384 -0.3202 -0.2940
28752W        W43883   4.885   1.858   3.989 -0.2241  0.0165  0.0710
28753W        W43884  17.432  16.806   5.153 -0.1944 -0.2942  0.1148
28754W        W43885  12.189   7.567   1.562  0.2193 -0.0528  0.0590
28755W        W43886   3.888  10.258   0.168  0.0955 -0.4021  0.0811
28756W        W43887   8.531   9.802  10.059  0.0515 -0.2563  0.4969
28757W        W43888   4.502  11.691   5.854  0.1869 -0.0666 -0.1462
28758W        W43889  13.779   5.033   0.244 -0.1036 -0.1447  0.0248
28759W        W43890   2.990   1.405   2.991  0.1306 -0.3032 -0.1396
28760W        W43891   9.028   7.513   4.681  0.1130 -0.3815  0.0028
28761W        W43892  18.114  16.052   1.117 -0.1360  0.2820 -0.0003
28762W        W43893   7.117   3.724   6.122 -0.1447  0.2630 -0.2333
28763W        W43894  12.419  17.399   0.765  0.1401 -0.0275 -0.0173
28764W        W43895   9.101   5.998  14.273  0.0149 -0.2239  0.0171
28765W        W43896   9.861   8.233  11.050 -0.3654  0.2692  0.3462
28766W        W43897  14.544   2.655   2.771 -0.3532  0.2294 -0.2625
28767W        W43898   4.922   7.552  10.780 -0.5390  0.0184 -0.2576
28768W        W43899   8.392  14.794   2.029 -0.0354  0.2013 -0.1090
28769W        W43900   7.938   2.609   3.972  0.0485 -0.0430  0.1611
28770W        W43901  11.126   6.947  13.853 -0.2027  0.1348  0.0870
28771W        W43902  12.859  11.618  12.415 -0.0574  0.1334 -0.1469
28772W        W43903   2.224  10.424  15.794 -0.1782  0.0358 -0.2013
28773W        W43904  14.323  15.160  15.439  0.2839  0.3115  0.0270
28774W        W43905  14.846   1.401  12.820 -0.1392  0.1303  0.2404
28775W        W43906  13.258   7.968  12.747  0.0165 -0.1084  0.3733
28776W        W43907  11.403   7.593   0.828  0.0152 -0.0505 -0.2084
28777W        W43908  10.618  12.012   0.067  0.0352  0.0495 -0.1245
28778W        W43909   6.386   9.907   4.749  0.0054  0.0181  0.2371
28779W        W43910  10.191  11.874   3.953  0.0085  0.2275 -0.3022
28780W        W43911  14.880  17.287   2.627  0.1328 -0.1125  0.0689
28781W        W43912  10.775   7.141  14.858 -0.1011  0.1318  0.1514
28782W        W43913  14.475   8.693  14.793 -0.2734  0.0080  0.0864
28783W        W43914  10.105  13.906   3.056  0.1073  0.1340  0.0297
28784W        W43915   6.522   7.306  15.205 -0.0825 -0.1581 -0.1056
28785W        W43916  11.977   2.259   0.774 -0.0095 -0.1476  0.1678
28786W        W43917   1.816   3.914  15.157  0.1824  0.2605  0.4063
28787W        W43918   2.321   6.840  11.412 -0.0874 -0.1575 -0.3481
28788W        W43919   4.107   2.276   1.320  0.0889  0.0637 -0.1763
28789W        W43920  14.710   5.987   3.856  0.3315 -0.0165  0.0458
28790W        W43921  15.395  17.779   1.203  0.0446  0.1179 -0.2173
28791W        W43922   1.755   3.221   6.219 -0.2287 -0.2862 -0.0192
28792W        W43923   3.635   8.071  10.989  0.1110  0.0225  0.0584
28793W        W43924   2.122   4.434  15.219 -0.0144  0.2751 -0.2106
28794W        W43925  11.220   5.342  15.229 -0.1072  0.0505 -0.3442
28795W        W43926  14.653  17.467   2.230  0.1967 -0.0266  0.0617
28796W        W43927   5.413  16.078  12.223 -0.1520 -0.3175 -0.2840
28797W        W43928   3.547  13.471   1.217 -0.0324  0.0319  0.1428
28798W        W43929   1.151   1.703   4.122 -0.1077  0.0104 -0.2871
28799W        W43930  14.055   9.201  15.488 -0.0705 -0.1654  0.1073
28800W        W43931  16.697   3.350  10.146  0.1054  0.1845  0.1137
28801W        W43932   8.226  14.316   4.040  0.1004  0.0864  0.1364
28802W        W43933   4.508  15.650  16.206 -0.0173  0.1965 -0.0897
28803W        W43934  14.112  16.795  10.377 -0.0324  0.0490  0.0471
28804W        W43935   8.057   8.497  12.421  0.0077 -0.2921  0.1293
28805W        W43936  14.487   4.018  12.062 -0.1775 -0.2468  0.0673
28806W        W43937   6.321  11.443  11.885  0.1767  0.2484  0.1612
28807W        W43938  13.220  13.658  14.218 -0.0717  0.0847 -0.0029
28808W        W43939  13.676  11.750  15.850  0.1988  0.0564 -0.3122
28809W        W43940  12.712  13.312  15.915  0.0700 -0.0969  0.2535
28810W        W43941  17.791  14.379   0.099  0.0547 -0.1255 -0.0712
28811W        W43942  14.422   3.600   3.126  0.1359  0.2279 -0.2542
28812W        W43943   6.104   1.265   0.382 -0.2181 -0.1823 -0.1271
28813W        W43944  15.719  15.778  14.651  0.0468 -0.0248  0.1741
28814W        W43945  11.100  16.508  15.684 -0.3785 -0.1892 -0.0030
28815W        W43946   1.379  15.421   1.387  0.1866 -0.1755  0.2510
28816W        W43947   9.068  14.133   5.396 -0.0393 -0.0589  0.0588
28817W        W43948   5.826   7.681   5.815  0.3379 -0.3049 -0.2586
28818W        W43949   7.002   8.730  16.228 -0.0251  0.1272  0.0131
28819W        W43950   9.292  16.816   3.274 -0.5442  0.1433  0.0380
28820W        W43951   4.554  16.296  10.623 -0.0919  0.1601 -0.2915
28821W        W43952   4.950   6.050   4.228 -0.0070  0.0115  0.1051
28822W        W43953  16.001   9.819  11.333 -0.0070  0.0160  0.1052
28823W        W43954   7.730  11.621  14.973 -0.0931 -0.1144  0.0292
28824W        W43955   8.214   5.881  11.018 -0.0762  0.1910 -0.2098
28825W        W43956   2.814   5.690   2.761  0.0420  0.1590  0.1372
28826W        W43957  15.954   0.063  11.716  0.0340 -0.2199 -0.0159
28827W        W43958  17.585  11.461   2.303 -0.2014  0.2834 -0.1173
28828W        W43959   9.587  10.018   1.642 -0.0934  0.2515  0.3865
28829W        W43960  12.056  11.637   0.622  0.2056  0.1891 -0.0195
28830W        W43961  10.405  13.618  11.084 -0.1931  0.1833  0.2506
28831W        W43962  15.963  13.567  13.353  0.4249  0.1656  0.0651
28832W        W43963   1.994   5.396  12.332  0.0910 -0.0542 -0.0243
28833W        W43964   7.873  18.005   4.767  0.1125 -0.0252  0.0337
28834W        W43965   3.177   7.503   4.565  0.1590 -0.2137 -0.0479
28835W        W43966   8.554  18.180  12.023  0.0112  0.2192  0.4778
28836W        W43967  18.110   4.691  10.352  0.3356  0.1062  0.2825
28837W        W43968   8.872  18.070   9.816  0.1408 -0.3214  0.1224
28838W        W43969   7.450   1.405   0.654  0.1359 -0.0078 -0.0626
28839W        W43970  10.557   5.273   1.233 -0.1738  0.0065 -0.3303
28840W        W43971  11.118   9.256  14.143  0.0854  0.0478  0.0393
28841W        W43972   7.045   3.762   1.380 -0.0127 -0.2063 -0.3426
28842W        W43973   7.770   3.370  14.248  0.0373 -0.0639 -0.1865
28843W        W43974  17.676   1.011  13.579  0.1265  0.0635 -0.1674
28844W        W43975   3.499   7.741  11.397  0.0133  0.2239 -0.1893
28845W        W43976  14.740  14.330  15.390  0.1748 -0.0346 -0.2212
28846W        W43977   2.097   8.814  12.322  0.1070 -0.2507  0.1833
28847W        W43978  10.959   8.294   1.191  0.1012  0.0692  0.2776
28848W        W43979  15.080  17.345  10.482 -0.0937 -0.0030 -0.1197
28849W        W43980   2.362   9.280   2.378  0.0891 -0.2535 -0.1670
28850W        W43981   4.052  10.683   0.381 -0.1343  0.0238 -0.1403
28851W        W43982   7.116  13.481   4.256  0.0879 -0.0342  0.1014
28852W        W43983  14.468  12.016   5.086  0.3890 -0.1726 -0.0892
28853W        W43984  12.065   0.759  13.956  0.0881  0.0732 -0.0340
28854W        W43985   3.137  11.919   1.700  0.1156 -0.0618 -0.2841
28855W        W43986  15.408   8.877   3.334 -0.0347 -0.3406 -0.1715
28856W        W43987  10.637   3.564   5.182  0.2025 -0.0222 -0.0217
28857W        W43988   7.834  16.218   5.326  0.4152 -0.3361 -0.0193
28858W        W43989  15.077   7.452   3.700  0.1405 -0.0132 -0.0391
28859W        W43990   9.427   6.229  11.363 -0.1307 -0.1115  0.1557
28860W        W43991   2.974  15.204   4.551  0.1037  0.0285 -0.0262
28861W        W43992  15.549   8.456   4.015  0.0037  0.0271  0.1686
28862W        W43993   3.105   4.495   1.364 -0.0461 -0.0421  0.1898
28863W        W43994  11.420  16.933  11.393 -0.2210  0.2528  0.0982
28864W        W43995   5.380  14.834  11.384 -0.3554 -0.1193 -0.1472
28865W        W43996  14.999   1.294   2.482  0.0650  0.2335 -0.0794
28866W        W43997   3.545  10.084   2.736 -0.0886 -0.1228 -0.3293
28867W        W43998  12.265  10.449  15.948  0.0145 -0.1150 -0.3667
28868W        W43999  14.379   2.903   5.243 -0.0568 -0.0074  0.0740
28869W        W44000   8.891   3.353  14.435 -0.5895  0.2296  0.1245
28870W        W44001  11.767   6.716  14.615  0.1870  0.0587  0.1454
28871W        W44002   6.202   4.666  10.862 -0.2692  0.2158  0.1196
28872W        W44003  15.404  15.560  12.040  0.0041  0.1258 -0.1529
28873W        W44004   6.605   1.743  12.882  0.2706  0.1355  0.0201
28874W        W44005  17.450  14.199   2.320 -0.1137  0.0889 -0.3179
28875W        W44006  10.100  11.961   0.424 -0.1616 -0.2251 -0.4594
28876W        W44007  12.637   4.644   5.096 -0.4545  0.0964  0.1329
28877W        W44008   9.354   5.013  13.995  0.2131 -0.3598 -0.0231
28878W        W44009   8.044  17.409  13.052 -0.3043  0.0581 -0.0161
28879W        W44010   8.748   8.910   0.004 -0.0964 -0.2212 -0.0084
28880W        W44011   0.424   7.399   3.861  0.0510  0.0753  0.3193
28881W        W44012  15.015  13.807  14.192  0.1535 -0.2933 -0.0141
28882W        W44013  11.270  10.712  14.591  0.0610  0.1670 -0.2996
28883W        W44014   8.410   4.201  12.027  0.0239  0.1084 -0.1316
28884W        W44015  11.074   3.654   4.063 -0.3015 -0.1196  0.1392
28885W        W44016   3.291   1.047  12.534  0.1460 -0.2268  0.1147
28886W        W44017   5.522   5.060   0.371 -0.4209  0.1713  0.1928
28887W        W44018   8.273  16.990  10.732  0.2224 -0.3347 -0.1678
28888W        W44019  10.291   2.370  15.018 -0.0793 -0.4343  0.1934
28889W        W44020  14.545   1.969  11.384  0.1133 -0.1649  0.0583
28890W        W44021   7.488   7.070   5.702  0.1102 -0.4231  0.3388
28891W        W44022  18.165   9.260   2.824  0.0313 -0.1271 -0.4285
28892W        W44023  12.965   8.208  14.960 -0.0870 -0.0082 -0.2554
28893W        W44024   9.885  13.623  14.127  0.2844  0.0388  0.0935
28894W        W44025   7.809  10.595   4.035 -0.5133 -0.2029  0.0701
28895W        W44026  18.065   0.903   3.015 -0.3150  0.0126 -0.0698
28896W        W44027   0.849  17.023  11.543 -0.0078 -0.0369 -0.1932
28897W        W44028  14.515  13.134  13.404  0.1827  0.1306 -0.0210
28898W        W44029   9.012  12.652   3.923 -0.0838  0.3531  0.2577
28899W        W44030  17.320   4.976  11.958  0.1358 -0.2322  0.2647
28900W        W44031  17.464  10.190   2.124  0.2436 -0.0059 -0.0906
28901W        W44032   5.182  12.812  14.381 -0.1250 -0.1575  0.1447
28902W        W44033  13.573   5.545  10.725  0.1896 -0.0459  0.1894
28903W        W44034   8.017   3.148  15.600 -0.0893 -0.2733 -0.0638
28904W        W44035   7.982   0.775   6.358  0.2736  0.1003 -0.0278
28905W        W44036   5.912  17.152   3.800 -0.0329 -0.3245  0.1405
28906W        W44037   6.142  18.112   0.593  0.0458 -0.1406 -0.0191
28907W        W44038  15.098  12.500   3.355 -0.6925  0.2031  0.0993
28908W        W44039   2.475  13.771  14.231 -0.1777  0.0040 -0.2267
28909W        W44040  15.466   2.894   1.932  0.2422  0.0073  0.0757
28910W        W44041   0.282  10.564  15.559 -0.1365 -0.0034  0.0476
28911W        W44042   8.364   7.011  11.306 -0.1499 -0.0088 -0.2537
28912W        W44043   7.943   4.681   1.487 -0.1694  0.0568  0.1247
28913W        W44044  17.925   2.658  12.594 -0.1227  0.0276  0.1109
28914W        W44045   2.933  13.825  11.543 -0.0887  0.3257  0.3222
28915W        W44046   5.844  13.868   4.390 -0.0579 -0.0675 -0.2403
28916W        W44047   4.455   5.960  11.175  0.0423  0.1471 -0.1473
28917W        W44048  10.303   5.627   4.876 -0.0851 -0.1633 -0.0093
28918W        W44049   2.181   4.839  14.791 -0.0607  0.1782  0.0989
28919W        W44050   1.653   1.008  12.815 -0.1414 -0.2238 -0.1311
28920W        W44051   7.084   7.298  15.056 -0.2192 -0.0201 -0.3189
28921W        W44052   2.166  14.829  15.951 -0.0300 -0.3806 -0.1118
28922W        W44053   2.487   0.095   0.221 -0.0320 -0.1987  0.2690
28923W        W44054   1.863  12.246  13.599 -0.1053  0.0420 -0.1244
28924W        W44055   9.208   0.607  13.522  0.1516 -0.1771 -0.2029
28925W        W44056   6.361  11.950   2.264  0.1129 -0.0907  0.3721
28926W        W44057   1.986   8.798   2.255  0.4054  0.3625 -0.0001
28927W        W44058  14.689   2.245   3.040  0.2895  0.0095  0.0457
28928W        W44059  13.345  12.539   2.563 -0.2432  0.0807 -0.2010
28929W        W44060  15.586   5.782  16.166 -0.0883  0.0912 -0.1303
28930W        W44061  10.010  10.607   4.517 -0.1417 -0.2564  0.0235
28931W        W44062  10.226  16.704  11.415 -0.0780  0.1255 -0.4237
28932W        W44063   8.978  16.426  11.561 -0.0009 -0.0285  0.1674
28933W        W44064  12.014   0.069   1.208 -0.1126  0.1511  0.2045
28934W        W44065   1.302  11.590  10.858 -0.3863 -0.0880 -0.0497
28935W        W44066  11.799   0.426   3.499  0.0189  0.0714 -0.3939
28936W        W44067   7.730  17.819   4.085 -0.1023 -0.0900  0.0515
28937W        W44068   6.134  17.576   2.299  0.3465  0.2102  0.4839
28938W        W44069  11.363   0.387  12.329 -0.1777 -0.2383 -0.1828
28939W        W44070  17.614   2.791  12.240 -0.1509 -0.0499  0.1969
28940W        W44071   0.759  13.248  13.999 -0.2425  0.0961 -0.0018
28941W        W44072  11.026  11.280   4.753  0.0545 -0.0240 -0.0787
28942W        W44073   0.485   3.961   1.194 -0.1558  0.1188  0.3074
28943W        W44074  10.462   2.527   4.204  0.0912 -0.0135 -0.2747
28944W        W44075  14.432   9.811   3.768 -0.3194 -0.2256  0.0921
28945W        W44076   7.108   7.747   2.690  0.2195 -0.0952  0.0679
28946W        W44077  15.235   9.582  15.314 -0.4903 -0.2653  0.0699
28947W        W44078  16.167   8.035  15.112 -0.4520  0.0807 -0.1615
28948W        W44079  13.955   9.237  13.750  0.4221  0.0633 -0.3075
28949W        W44080   0.900  17.068   5.304 -0.1668  0.0491  0.2193
28950W        W44081   5.396  14.398   2.757  0.1401  0.0980 -0.0248
28951W        W44082  16.442   2.747   1.195 -0.2063  0.0485 -0.0080
28952W        W44083   7.522   1.638   4.336  0.2860 -0.0739 -0.0611
28953W        W44084   0.197  16.953   3.972 -0.1313  0.1845  0.2463
28954W        W44085   5.740  12.203   4.267  0.2742  0.3089 -0.2555
28955W        W44086  12.277  14.375  11.283 -0.1408 -0.3483 -0.0097
28956W        W44087   3.863   1.740   1.071 -0.1962 -0.1808 -0.1395
28957W        W44088  12.504  12.387  14.371 -0.3128 -0.1349 -0.4382
28958W        W44089  18.110  15.757  11.444  0.1601 -0.2071  0.4613
28959W        W44090  17.299   2.869   5.113 -0.4021 -0.1208 -0.0726
28960W        W44091   1.047   9.052   1.166  0.2584 -0.0979  0.0609
28961W        W44092  18.012   9.024  16.208 -0.0565  0.0417 -0.0367
28962W        W44093   2.159   5.635   4.297 -0.1527 -0.0486 -0.2187
28963W        W44094  14.118   4.342  11.847 -0.0192  0.1243  0.2439
28964W        W44095  15.324   0.261   0.425  0.0965  0.0162  0.1935
28965W        W44096  13.029   0.467   4.341  0.1047  0.2634  0.0097
28966W        W44097   5.270  11.775   0.823 -0.0152 -0.0202  0.0593
28967W        W44098   3.920  11.029  10.844 -0.0521  0.0215  0.0938
28968W        W44099  17.834   3.105  13.783 -0.0368  0.1671 -0.2249
28969W        W44100   7.730  15.147   1.625  0.3608 -0.2270  0.1166
28970W        W44101   4.817  10.359   1.456  0.1935  0.0851 -0.0157
28971W        W44102   6.918   0.503   2.699  0.0599 -0.1502 -0.1908
28972W        W44103   1.643  13.321   1.512 -0.1709 -0.0429  0.0081
28973W        W44104  12.747   2.623  11.915  0.0120  0.2099 -0.0109
28974W        W44105   5.517  11.453  11.123 -0.2109 -0.2528 -0.1380
28975W        W44106   1.780  13.901   2.547 -0.0755  0.1228  0.4062
28976W        W44107   9.834   2.784   4.257  0.2197 -0.0888  0.2388
28977W        W44108  16.197   2.964  11.876  0.4035 -0.1247  0.2169
28978W        W44109   2.373   3.517  14.545 -0.0708  0.0723 -0.2256
28979W        W44110   8.537   4.557  10.581 -0.3159  0.1493  0.2251
28980W        W44111  12.401   7.104  15.947 -0.2045  0.0837 -0.2590
28981W        W44112  14.598   2.312  14.602  0.1167  0.0562  0.0532
28982W        W44113  17.085   0.131   2.594 -0.0660  0.0590  0.1098
28983W        W44114  15.774  14.505   3.752  0.3166  0.0166 -0.0715
28984W        W44115   1.273  10.323   5.891  0.1856  0.0919  0.0884
28985W        W44116   0.347   0.012   1.596 -0.2358 -0.5261 -0.1105
28986W        W44117  15.870   0.961  13.410  0.1184  0.0516 -0.0212
28987W        W44118  10.724   9.584  14.810 -0.2364  0.1447 -0.1985
28988W        W44119  12.919  11.606  14.363 -0.0425  0.0605  0.1483
28989W        W44120   2.291   7.958   2.500  0.3532  0.1410 -0.0300
28990W        W44121   8.697  18.062  13.755 -0.1342 -0.1234 -0.2100
28991W        W44122  10.510   8.777  15.549 -0.0687 -0.0880 -0.2575
28992W        W44123  17.856   6.482  12.785 -0.0040  0.2416 -0.1075
28993W        W44124  17.738   1.836  15.277 -0.0477 -0.2929 -0.0610
28994W        W44125   4.606  16.532  15.744 -0.0354  0.0392 -0.0702
28995W        W44126  11.593   1.744  15.066 -0.1479  0.0188  0.1351
28996W        W44127  17.614   5.892  12.693  0.1548  0.2201 -0.0069
28997W        W44128  16.352  12.775  14.940  0.1481  0.0517 -0.1042
28998W        W44129   6.013   2.495   2.056 -0.0221 -0.1990 -0.0976
28999W        W44130   6.982  17.252   2.904  0.4010  0.2760 -0.0992
29000W        W44131   0.566   4.724  11.057  0.0061 -0.0006 -0.3594
29001W        W44132   5.213   0.258  14.011  0.2411  0.0074  0.1502
29002W        W44133  12.744  17.729  15.745  0.0815  0.0194 -0.0319
29003W        W44134   8.457  12.833  10.621 -0.0525  0.1344 -0.1776
29004W        W44135   6.472   0.182   0.182  0.1353  0.0997  0.4145
29005W        W44136  12.808  12.993  15.491 -0.0528  0.1174 -0.1912
29006W        W44137   7.276  13.170   2.286 -0.0488 -0.0568 -0.0999
29007W        W44138  14.095  15.327  14.361  0.0336 -0.2024 -0.0145
29008W        W44139   0.702   4.350  11.867  0.1239 -0.0141  0.1116
29009W        W44140   4.696  10.012  15.240  0.0177  0.1336  0.1531
29010W        W44141  16.380  14.678  14.268 -0.0503 -0.2851 -0.0763
29011W        W44142  17.326  10.178  13.901 -0.0178 -0.2100  0.4556
29012W        W44143   4.842   6.767  10.690 -0.0832  0.0221 -0.0639
29013W        W44144   3.432   5.440  13.019 -0.2642  0.0389 -0.3246
29014W        W44145   9.029  16.108  11.977 -0.0446 -0.0069  0.0706
29015W        W44146  11.686   9.284  10.859 -0.1329  0.1023 -0.1168
29016W        W44147  18.004   4.251   1.993 -0.1953 -0.2200  0.0020
29017W        W44148  17.174   9.213   2.799  0.0454  0.2971  0.0212
29018W        W44149  17.554   8.793   3.647  0.3971  0.0570 -0.3008
29019W        W44150   4.271  13.250   1.499  0.0071  0.1560  0.0432
29020W        W44151  11.155   8.432  13.360  0.1039  0.1817 -0.1051
29021W        W44152  10.940  12.964  13.575  0.0635  0.0110  0.1993
29022W        W44153   4.862   6.783  13.976 -0.2830  0.1463  0.0472
29023W        W44154  12.462  11.449  13.443  0.1324 -0.0444  0.0655
29024W        W44155  16.958   0.360  12.716 -0.1377 -0.0613 -0.0955
29025W        W44156  17.872   5.854  15.124  0.0544  0.0069  0.0137
29026W        W44157   0.333   8.356  12.118  0.0850 -0.0075  0.2023
29027W        W44158   9.007   2.860  15.671  0.0944  0.1962  0.0486
29028W        W44159   8.028   6.880  11.621 -0.0490 -0.1240  0.1328
29029W        W44160  17.979   0.058   1.533 -0.2026  0.2947  0.1309
29030W        W44161  10.307  13.382   3.662 -0.0542 -0.0400  0.1090
29031W        W44162  10.678   0.387   4.993 -0.1340  0.1755  0.0871
29032W        W44163  12.221   6.397  14.533  0.0095 -0.1854 -0.1155
29033W        W44164  11.806   2.573  12.948 -0.0848  0.0074 -0.0681
29034W        W44165  11.448  17.899   3.423  0.0581  0.0496  0.4014
29035W        W44166   7.008  12.251  13.278  0.0947 -0.1177 -0.1218
29036W        W44167  10.161   7.177  13.197  0.1861 -0.0104 -0.1907
29037W        W44168   0.953   5.232   2.781 -0.0089 -0.1671  0.2850
29038W        W44169  11.716   8.709  12.746 -0.0084 -0.0328 -0.1850
29039W        W44170   5.080   0.646   0.904  0.2064 -0.1864 -0.0467
29040W        W44171  17.894  12.345  15.903 -0.1018  0.0260 -0.2049
29041W        W44172   7.320   0.695  13.424 -0.1841 -0.1380 -0.1757
29042W        W44173   0.801   6.695  14.754  0.0461 -0.3246 -0.2529
29043W        W44174  11.949   4.179   1.253  0.0868 -0.1272 -0.2299
29044W        W44175  15.609  16.440  10.563 -0.2560 -0.0046  0.0674
29045W        W44176   8.466   1.331  11.350 -0.1129  0.1200  0.0702
29046W        W44177  17.328  15.508   3.119 -0.2856 -0.3440 -0.2261
29047W        W44178   4.870   9.691   2.189 -0.1022 -0.1839 -0.3220
29048W        W44179  13.156  14.690  15.839  0.0591 -0.0787 -0.0935
29049W        W44180  11.131   6.737  14.977 -0.0683 -0.1970 -0.1087
29050W        W44181  11.995   3.051   5.233 -0.0163  0.2313 -0.1796
29051W        W44182   0.817  14.999   1.966 -0.3593  0.0788  0.0831
29052W        W44183   8.380   0.445  15.112 -0.2491  0.2114  0.0392
29053W        W44184   4.654  14.073   4.751 -0.0974 -0.1595 -0.3087
29054W        W44185  17.191  11.604  12.483  0.1118  0.1292 -0.1574
29055W        W44186   3.849   9.697   0.054 -0.2047 -0.0315  0.1398
29056W        W44187  15.594  12.717   4.838 -0.2373 -0.1339  0.0743
29057W        W44188  10.494   1.979  15.237 -0.1223 -0.0448  0.2217
29058W        W44189   9.988  17.132  12.356 -0.3891  0.2031  0.1698
29059W        W44190   4.570   3.615   3.410  0.1191  0.1169 -0.0568
29060W        W44191   4.099   6.483  13.600 -0.0330 -0.3335 -0.0223
29061W        W44192   0.790   1.320   4.117  0.0125 -0.1330  0.0734
29062W        W44193   4.555  17.479   3.686  0.2571  0.2649  0.0630
29063W        W44194   7.955   5.648   2.790  0.3593  0.2868  0.0822
29064W        W44195   0.673   2.878   0.373 -0.2856 -0.1597  0.4762
29065W        W44196   1.084  12.965   3.272 -0.0712  0.2478 -0.0278
29066W        W44197  15.365  14.229   1.452 -0.0138  0.0014  0.0812
29067W        W44198   5.235  13.156   0.788 -0.1796 -0.1517  0.0801
29068W        W44199  11.631   5.359  10.777  0.0220  0.2936 -0.1815
29069W        W44200  15.379  10.197  10.844 -0.0892 -0.0937 -0.2268
29070W        W44201   4.450   4.737   2.261  0.1471  0.1947  0.0054
29071W        W44202   6.439  11.979  11.062 -0.1763 -0.2142 -0.0171
29072W        W44203   5.516  15.181   1.861  0.0125  0.1544  0.0480
29073W        W44204   1.270  12.728  14.258 -0.0477 -0.2930  0.0060
29074W        W44205   5.659  16.781  11.780 -0.2363  0.0337 -0.0990
29075W        W44206   7.116   9.378  13.926  0.2174  0.1105  0.1786
29076W        W44207   8.041   6.398  14.269  0.0586 -0.0801 -0.2314
29077W        W44208   4.029  17.359   0.554  0.0403 -0.0437 -0.1759
29078W        W44209   0.761  12.078   1.496 -0.2592  0.0645 -0.2181
29079W        W44210  13.956  18.025  15.528 -0.0439 -0.0756 -0.3142
29080W        W44211   8.916   6.948  16.051 -0.2752 -0.1362 -0.1371
29081W        W44212   3.054   0.537   5.123 -0.1985  0.3616  0.0222
29082W        W44213  18.003   5.195   1.252  0.2500 -0.0601 -0.1458
29083W        W44214   8.999  14.005  14.366  0.3289 -0.2152  0.0744
29084W        W44215  14.850   0.808   2.298  0.1065 -0.5208 -0.1023
29085W        W44216  12.243   0.982   0.332 -0.0571  0.0861  0.0414
29086W        W44217  12.423   8.407   3.139  0.0641 -0.1819  0.1881
29087W        W44218   0.840   2.025  16.128  0.1349 -0.0076 -0.0366
29088W        W44219   4.461  10.181   5.251  0.0025 -0.2072 -0.2263
29089W        W44220   6.752  16.107   1.829  0.0949 -0.1448  0.0676
29090W        W44221   7.102  10.479  16.184  0.2416  0.0462  0.4167
29091W        W44222   0.981   7.275  13.303 -0.0332  0.0017 -0.1313
29092W        W44223   7.823  13.316   2.598 -0.0553 -0.1555 -0.0699
29093W        W44224  13.117   5.632  10.492  0.0328  0.3041 -0.4093
29094W        W44225  13.226   2.493  13.901  0.3054 -0.0734  0.3284
29095W        W44226  15.089   5.605  13.371  0.0404 -0.2622 -0.3308
29096W        W44227  13.954  12.177  15.613 -0.0348  0.2566 -0.1757
29097W        W44228  16.262   1.677   2.810 -0.0918 -0.0181 -0.1435
29098W        W44229   6.817  15.501   2.595  0.0433 -0.2471 -0.1636
29099W        W44230  15.051   5.270   0.231 -0.0048 -0.1859  0.0626
29100W        W44231   5.745   3.641  15.995 -0.1531 -0.1274 -0.3227
29101W        W44232  13.050   3.801  13.146 -0.1101  0.0314 -0.2988
29102W        W44233   6.935  10.177   4.928  0.1008 -0.2923 -0.0701
29103W        W44234   9.534   6.972   1.542 -0.0498  0.1183  0.0148
29104W        W44235  15.275   7.151  14.679  0.0033  0.1007  0.1094
29105W        W44236   4.716  14.515   3.509 -0.1005 -0.0990  0.2300
29106W        W44237   0.924  17.528  14.994 -0.0574  0.3075  0.0063
29107W        W44238   9.338  14.638  11.888  0.1820 -0.0446  0.0568
29108W        W44239   5.922  11.249  10.702  0.1064 -0.1446  0.1839
29109W        W44240   8.487  14.174  14.382 -0.0645  0.2290 -0.4531
29110W        W44241  14.694  15.012   1.769  0.0879  0.0741 -0.1863
29111W        W44242  16.766  10.950   4.228 -0.3408 -0.1425 -0.3619
29112W        W44243  12.064   3.883  15.260  0.2908  0.0182  0.1551
29113W        W44244   7.218   6.204   2.318  0.3954 -0.2174 -0.1629
29114W        W44245  11.225   3.012   4.656 -0.0565 -0.2642 -0.0272
29115W        W44246   6.721  17.396  14.158  0.0151  0.2310 -0.2582
29116W        W44247   6.398   0.508   4.138 -0.1098  0.0600  0.0055
29117W        W44248   0.237  15.648   4.679 -0.3104 -0.2309 -0.1450
29118W        W44249  10.399  14.861  10.968  0.1198  0.0492 -0.0197
29119W        W44250   2.906  12.617   3.127  0.3140 -0.1152  0.0642
29120W        W44251  13.160   1.275  12.053  0.3004  0.0454 -0.0093
29121W        W44252   6.769  13.900   2.563  0.0071 -0.1368 -0.3527
29122W        W44253  11.159   0.841  11.223  0.1694 -0.0647 -0.0773
29123W        W44254   0.856  15.385  13.119 -0.1449 -0.0310  0.1965
29124W        W44255   2.132  11.544   1.991 -0.0761  0.0468 -0.2173
29125W        W44256   5.018  16.308  12.457  0.1284  0.5842  0.0988
29126W        W44257   5.952  17.576  12.664 -0.1729 -0.1467  0.2275
29127W        W44258   7.411   3.393  15.672 -0.0060  0.1343 -0.2361
29128W        W44259   4.753   6.257  11.507  0.0366  0.0099 -0.0691
29129W        W44260   4.683  10.508  11.537 -0.1207  0.0106  0.2979
29130W        W44261   0.253   6.063  15.123 -0.1792 -0.0181  0.3835
29131W        W44262   8.163   7.436  14.119  0.0687 -0.0557 -0.0413
29132W        W44263   6.796   0.459  16.163  0.3261  0.2491 -0.1982
29133W        W44264   2.098  10.892  12.744 -0.0619 -0.0104  0.1662
29134W        W44265  11.208  16.719  11.804  0.2286 -0.0121 -0.2126
29135W        W44266  12.821  17.067  11.936 -0.1744  0.1822 -0.0375
29136W        W44267   1.271  14.622  11.957  0.1291 -0.0451  0.1509
29137W        W44268   1.544  11.300   3.873 -0.0291  0.0762  0.1107
29138W        W44269   8.626   1.670  14.456  0.1717  0.0853 -0.4532
29139W        W44270   3.029  15.552  13.505 -0.0497  0.0295  0.1170
29140W        W44271   1.584  16.437   2.571  0.1514 -0.0531 -0.1022
29141W        W44272   7.080  10.454   2.966 -0.0523 -0.0619 -0.0581
29142W        W44273   2.288  15.278  14.832  0.2313 -0.0688  0.0436
29143W        W44274  12.943  17.372  13.945  0.1436  0.0010 -0.0850
29144W        W44275   3.946   5.968  11.986  0.0871  0.1756 -0.1010
29145W        W44276  14.371  13.544   2.994  0.0301  0.2934 -0.0950
29146W        W44277  14.050  15.176  13.812  0.0501  0.2537 -0.1324
29147W        W44278   1.011   7.445  13.790  0.2319  0.2756 -0.3164
29148W        W44279   6.545   9.006  15.257 -0.0057  0.1233 -0.0440
29149W        W44280  12.804   6.633  15.254 -0.3998 -0.1842  0.2719
29150W        W44281  12.015  13.161   2.090  0.0706  0.0898 -0.2578
29151W        W44282   8.264  13.516  14.739  0.0633  0.1934  0.0997
29152W        W44283  17.868  11.982   6.269  0.1296  0.0846  0.3636
29153W        W44284   9.118   0.897   5.114  0.0066 -0.0129 -0.0029
29154W        W44285   1.821  12.617   4.780 -0.2161 -0.1371  0.1196
29155W        W44286   5.640   3.542  13.385  0.1426 -0.1225 -0.2823
29156W        W44287  15.051  10.332   2.118  0.2551 -0.1015  0.0002
29157W        W44288  18.103  13.847  15.568  0.0862  0.2295 -0.1065
29158W        W44289   8.160  16.012  13.660  0.0833  0.1023 -0.2253
29159W        W44290  17.149   3.639   0.896  0.0856  0.0633  0.1897
29160W        W44291   4.254  13.002   3.220  0.0462  0.2184  0.3223
29161W        W44292   0.106  11.730   3.693  0.1117 -0.2319  0.1954
29162W        W44293   0.687   4.006   4.525 -0.0539 -0.1338  0.1918
29163W        W44294  16.972   7.839  11.310 -0.2734 -0.3296  0.2501
29164W        W44295   3.471   5.572   3.700 -0.2284  0.2277  0.0690
29165W        W44296  14.046  13.994   1.715  0.1844 -0.0825 -0.0511
29166W        W44297   2.297   4.702  11.331 -0.0612  0.0070  0.3114
29167W        W44298  10.431   6.335   4.268  0.2277  0.0175  0.1010
29168W        W44299   3.061   7.226  14.948 -0.1853  0.2476  0.0706
29169W        W44300   1.787   5.342   4.160 -0.2046  0.2594 -0.0383
29170W        W44301   3.971  10.904  13.570  0.2930  0.1198  0.1597
29171W        W44302   7.053   5.725  13.462  0.1192  0.1212 -0.2610
29172W        W44303   5.873   1.344  14.106 -0.0767 -0.0110  0.1118
29173W        W44304  10.243  12.180  11.025  0.1608 -0.1421 -0.1246
29174W        W44305  10.183  12.307   1.149  0.3185 -0.0530 -0.0120
29175W        W44306   0.006   6.379   5.837 -0.4348 -0.0799  0.0444
29176W        W44307   1.847  13.545   5.884 -0.1225  0.0122  0.3082
29177W        W44308   6.802   2.784  11.823  0.1158  0.2161  0.1395
29178W        W44309   3.575   3.430   0.856 -0.1173 -0.1687  0.0782
29179W        W44310  12.607  15.934  14.137 -0.3838  0.0496 -0.2276
29180W        W44311   2.984   4.191   3.454 -0.0154 -0.2827 -0.0256
29181W        W44312   8.957   0.359  13.873 -0.1014 -0.0649  0.0492
29182W        W44313   3.428  15.619  12.131 -0.2571  0.0988 -0.0069
29183W        W44314  11.746  15.983  15.130 -0.0673 -0.0724  0.0856
29184W        W44315   4.786   3.424   4.265  0.0201 -0.0161 -0.1436
29185W        W44316  14.045  16.282   3.874  0.0230 -0.1758  0.1926
29186W        W44317   9.789  16.126   2.532 -0.0097  0.1726 -0.0576
29187W        W44318   4.044   2.496   4.146 -0.1269  0.2833 -0.0721
29188W        W44319   0.210   3.153  11.726 -0.2140  0.0934 -0.2464
29189W        W44320   7.990  14.531  12.988 -0.0132  0.1543 -0.4645
29190W        W44321   9.967   7.911   4.654  0.0724 -0.0457  0.0887
29191W        W44322  16.584   0.179  10.616  0.0066 -0.5385  0.0748
29192W        W44323  10.473   0.829  12.937 -0.0236 -0.0278 -0.1264
29193W        W44324   7.919   3.902   1.545 -0.1319  0.1096 -0.1788
29194W        W44325  11.295   0.084   1.250  0.1101 -0.1415  0.0060
29195W        W44326   5.640  12.600   2.729 -0.1838 -0.3038  0.2011
29196W        W44327   0.685   0.671  16.222 -0.0297  0.0822 -0.1970
29197W        W44328  14.059  14.496  15.031  0.1014  0.2683 -0.2921
29198W        W44329  14.567   9.000  14.424  0.1775 -0.1967 -0.0694
29199W        W44330  10.264  16.220   2.329 -0.1709 -0.0094 -0.2451
29200W        W44331   1.455  15.609  11.799  0.2546 -0.1070 -0.0636
29201W        W44332  14.810   7.227   4.839  0.4986 -0.1654 -0.0966
29202W        W44333   8.151  11.410   1.682 -0.0004 -0.0229  0.0358
29203W        W44334   5.279   5.165   3.347  0.2039  0.0100 -0.1161
29204W        W44335  14.655  15.716   5.881 -0.0854 -0.2278 -0.0256
29205W        W44336   4.930   6.456   4.481 -0.1662 -0.1073  0.2170
29206W        W44337   6.045   6.060   3.058 -0.0208 -0.1342  0.2445
29207W        W44338   4.469   8.735   3.896  0.0993  0.0119 -0.0312
29208W        W44339   8.192  16.927  12.955  0.0311  0.1117  0.1040
29209W        W44340   8.442   8.530   1.205 -0.1432  0.2367  0.1441
29210W        W44341   4.307   4.558   1.393  0.0256  0.3043 -0.0301
29211W        W44342   6.327   5.554  15.186  0.1406  0.0190  0.2128
29212W        W44343   7.400  12.502   4.684  0.3092 -0.3683  0.0804
29213W        W44344  15.071  16.043  14.515 -0.3947  0.2327 -0.0807
29214W        W44345   2.952  12.159  12.234 -0.0900 -0.1853 -0.3471
29215W        W44346   1.196   9.471   4.607  0.0837  0.1156 -0.2282
29216W        W44347   5.058  15.864  12.810  0.0933 -0.1674 -0.0954
29217W        W44348   0.213  16.729  11.075  0.0962 -0.0087 -0.0680
29218W        W44349   5.066   2.112   2.835 -0.0963  0.0801 -0.0583
29219W        W44350   9.300   2.783   3.973 -0.1971 -0.1324  0.0826
29220W        W44351   3.335   5.026   4.331  0.3295  0.4502 -0.1931
29221W        W44352   4.835   3.011  12.463  0.0223  0.1416 -0.0682
29222W        W44353  13.015  13.966   4.409  0.0412  0.0115  0.0153
29223W        W44354  17.891  15.961  12.693  0.0687  0.1271  0.1378
29224W        W44355   2.396   4.849   3.624 -0.0642 -0.1212  0.1337
29225W        W44356  16.601  16.654   5.377  0.1855 -0.2111 -0.0410
29226W        W44357   7.650  16.498  15.994 -0.0005  0.2982 -0.0926
29227W        W44358  11.504  14.170   3.510  0.0578 -0.1084 -0.2163
29228W        W44359   0.588  11.764   1.854  0.2173 -0.1991 -0.1168
29229W        W44360  17.506   7.936   2.237 -0.1451 -0.0715 -0.2208
29230W        W44361  12.187  11.012  12.741  0.0298  0.2659 -0.1797
29231W        W44362  10.464   3.132  14.634 -0.1255  0.3253  0.1617
29232W        W44363   3.251  12.925  12.646  0.1406 -0.2048  0.3003
29233W        W44364  12.721   3.121   0.790  0.3862  0.0735 -0.1707
29234W        W44365   6.559   7.739   1.791  0.1068 -0.1230  0.3726
29235W        W44366   3.020  16.803  14.687  0.0948  0.1013  0.2113
29236W        W44367  12.831  11.792   3.071 -0.0593  0.1161  0.2098
29237W        W44368   9.305   7.373  15.325  0.0735 -0.3198 -0.0548
29238W        W44369   6.454  15.854   2.718 -0.2256 -0.0514 -0.0496
29239W        W44370  16.308   7.417   6.134  0.0110  0.1217 -0.1910
29240W        W44371  11.803   6.209  11.935 -0.2417  0.0107  0.0920
29241W        W44372  12.192  17.011  10.173  0.1886  0.0631 -0.0211
29242W        W44373   9.826   0.278  14.513 -0.3225  0.0124  0.0289
29243W        W44374  10.080  14.475  10.756 -0.1384 -0.0041 -0.2013
29244W        W44375   3.162   5.301   3.342  0.2188  0.0586 -0.1858
29245W        W44376  16.851   9.998  12.867  0.1433  0.2383  0.1188
29246W        W44377   5.440   2.165   5.092 -0.1417 -0.1672  0.2306
29247W        W44378  16.886  18.089   0.873  0.0934  0.1042 -0.0160
29248W        W44379  13.261   9.617   4.901 -0.1313 -0.0959 -0.1850
29249W        W44380   8.743   3.502   0.323  0.0711  0.0833  0.2586
29250W        W44381  15.571  13.700  12.577  0.0934  0.0611 -0.0726
29251W        W44382  13.874  17.371   0.626  0.3235 -0.0738  0.1597
29252W        W44383  10.965  12.542  13.843 -0.0431 -0.1386  0.1848
29253W        W44384  17.710   3.001   0.817  0.0032 -0.2250  0.1254
29254W        W44385  12.932   7.585   5.305  0.2073 -0.0615 -0.2624
29255W        W44386   1.757  13.591  14.793 -0.0085  0.0047  0.2023
29256W        W44387   5.960   4.035  11.663 -0.0021 -0.0442  0.1093
29257W        W44388   7.975   0.915  13.905  0.1314  0.1501 -0.1684
29258W        W44389   0.655   2.780  14.645  0.1507 -0.1160 -0.4872
29259W        W44390  15.074   6.982   1.880 -0.2454  0.1268  0.1409
29260W        W44391  16.199   8.456  11.479 -0.2310  0.1014 -0.4027
29261W        W44392   7.838   9.040   3.556  0.3030 -0.2074 -0.2407
29262W        W44393   3.876   7.742  12.265  0.1383  0.2583  0.0166
29263W        W44394   9.040  17.756   4.410 -0.0800  0.1403 -0.1707
29264W        W44395   8.697  17.468   3.412  0.0505 -0.0775 -0.3489
29265W        W44396  13.449   8.117  16.146 -0.1583  0.1002  0.1381
29266W        W44397   8.977   5.361  14.419 -0.2215 -0.0820  0.0548
29267W        W44398   8.054  16.768  14.309  0.1255  0.2066  0.0879
29268W        W44399   4.246  10.129   4.730 -0.0155 -0.2799  0.0230
29269W        W44400   3.260  14.324  12.461  0.3291  0.1131 -0.1341
29270W        W44401  16.005  13.413   2.815  0.0173 -0.2419  0.2285
29271W        W44402  11.967   2.362   3.525  0.1488  0.0238  0.2409
29272W        W44403   5.223  10.806   5.238  0.0894  0.1426 -0.2440
29273W        W44404  10.884   6.547   2.399  0.3070 -0.1770 -0.1460
29274W        W44405   1.404   7.174  14.199  0.0320  0.1784  0.2863
29275W        W44406  13.768  10.018   4.793 -0.3137  0.0783 -0.2078
29276W        W44407  12.280   0.694  13.147 -0.0547  0.0576  0.1223
29277W        W44408  13.270   2.122  13.013  0.3627 -0.2795  0.2346
29278W        W44409  15.382   2.990   1.443 -0.2636 -0.0979 -0.1634
29279W        W44410  10.747   2.851  14.102  0.0941 -0.1071 -0.0719
29280W        W44411   5.622   1.577  13.212  0.0379  0.1128 -0.2749
29281W        W44412  15.873  17.757  12.378  0.1546 -0.1409  0.0161
29282W        W44413  16.011  13.876  12.244 -0.0920  0.3175  0.2573
29283W        W44414  14.537  14.895   0.260 -0.1976  0.0506 -0.0392
29284W        W44415  15.345   8.879   2.824  0.0055  0.2385  0.5013
29285W        W44416   3.261  13.218   4.942 -0.1484  0.2924 -0.4836
29286W        W44417  17.102   1.183   5.474  0.0064 -0.1157  0.0278
29287W        W44418  13.306   1.767   4.999 -0.1505  0.0911  0.0975
29288W        W44419  13.793  14.854  15.231  0.2397 -0.0540  0.3733
29289W        W44420   5.537  13.623  10.667 -0.2480 -0.1449  0.0165
29290W        W44421   6.594  11.616   1.823  0.1089  0.1308 -0.1794
29291W        W44422   5.707   4.828   5.517 -0.0580  0.0115 -0.0674
29292W        W44423   1.169  17.022   4.861 -0.0692  0.0691 -0.0464
29293W        W44424  14.575  12.989  13.904 -0.0265 -0.1893 -0.2475
29294W        W44425   3.947   3.862  13.284  0.1039  0.2026 -0.0859
29295W        W44426  11.298   7.446  11.581 -0.2298 -0.0048  0.1703
29296W        W44427   5.580  13.421   3.058 -0.1190  0.0946 -0.2045
29297W        W44428   2.047  10.380   2.263  0.2872  0.1016  0.4253
29298W        W44429   7.184   5.041   3.256  0.2494  0.1033 -0.1121
29299W        W44430  16.915   1.192   0.681  0.0020  0.2002 -0.0991
29300W        W44431   8.466   6.696  14.675  0.1745 -0.1764 -0.1631
29301W        W44432   9.740  14.417  14.612  0.0032  0.0716 -0.3841
29302W        W44433  15.780   1.438  14.377 -0.2207 -0.0261  0.0753
29303W        W44434   3.992   3.854   1.866 -0.0166 -0.1042 -0.1464
29304W        W44435   9.361   4.602  11.159  0.4070  0.3104 -0.0086
29305W        W44436  14.541  16.526   1.298 -0.3187  0.2766 -0.0511
29306W        W44437  16.214   1.506  15.805  0.1653  0.2494 -0.1346
29307W        W44438   1.362   5.659  13.479  0.1835 -0.3234  0.1268
29308W        W44439   2.852  15.817  15.652 -0.0680  0.0018  0.1184
29309W        W44440  14.259  12.825  13.085  0.1158 -0.0368  0.0326
29310W        W44441   6.124   2.425   3.892  0.0276 -0.0225  0.1338
29311W        W44442  12.222   2.581  14.852  0.1505  0.2789 -0.1667
29312W        W44443  12.241   0.073  10.814  0.0897  0.1456 -0.0697
29313W        W44444   1.585   8.106   3.980 -0.2737  0.0533 -0.0874
29314W        W44445   1.764   7.662   0.175  0.0365 -0.2304  0.0526
29315W        W44446  11.169  17.033   0.756 -0.1358  0.0555  0.1016
29316W        W44447   4.154   8.806   4.274 -0.0602 -0.1861 -0.2643
29317W        W44448   0.697  16.706  14.755  0.3349  0.0784  0.0024
29318W        W44449  15.431   1.981   0.513 -0.1030 -0.0507  0.0356
29319W        W44450   1.694  16.387  13.542 -0.1486 -0.0708  0.1009
29320W        W44451   9.774   6.189   2.513  0.0590 -0.1958 -0.0095
29321W        W44452   2.443  17.691   5.021  0.0502  0.0587 -0.1458
29322W        W44453   5.030  12.059  15.151  0.0361 -0.1752  0.0718
29323W        W44454  18.158  13.382   3.781 -0.2602 -0.0341  0.0248
29324W        W44455  13.009  11.145   5.044 -0.2213  0.1411  0.1326
29325W        W44456  14.399  10.460   4.075 -0.1965  0.1456  0.2574
29326W        W44457   2.156   8.360   0.363  0.2254 -0.3099 -0.4307
29327W        W44458   5.444  13.563   2.400  0.0783  0.3328 -0.0708
29328W        W44459  12.034   2.915   3.640  0.1194 -0.2870  0.0040
29329W        W44460   7.257  10.206  13.372  0.0287 -0.2818 -0.1747
29330W        W44461   6.193   9.888  13.879  0.1441 -0.1006 -0.1473
29331W        W44462   8.090  12.388   0.590  0.1040 -0.2401 -0.0504
29332W        W44463  15.109  14.460   0.785  0.0463 -0.0267 -0.2752
29333W        W44464   3.372  13.854   1.728 -0.1593  0.0457 -0.0189
29334W        W44465   3.070   2.950   3.990 -0.0204  0.1634  0.1754
29335W        W44466  14.292   3.146   0.079  0.1175 -0.2191  0.0683
29336W        W44467   3.345  14.195  14.869  0.0883  0.1925 -0.1089
29337W        W44468  11.061  16.291  12.924 -0.0081 -0.0481  0.0357
29338W        W44469  16.187   5.685   3.443  0.0024 -0.1006  0.2335
29339W        W44470   8.572   5.546  12.120  0.1107  0.1180  0.2811
29340W        W44471  12.405   9.522   2.467  0.0565  0.3596  0.1989
29341W        W44472   1.918  17.587   0.317  0.0393 -0.1646 -0.0533
29342W        W44473   6.649   2.348  14.657 -0.0837  0.1197 -0.0693
29343W        W44474  11.304  14.899   2.192 -0.2026  0.0041  0.0399
29344W        W44475   0.400  15.335   5.585 -0.3024 -0.2434 -0.3035
29345W        W44476  14.922  11.770   5.687  0.0368  0.0038 -0.1009
29346W        W44477  12.515   5.708   3.609 -0.1829 -0.3371  0.3111
29347W        W44478  15.155   8.980  11.687 -0.1069  0.0129 -0.2766
29348W        W44479  15.382   8.884  12.990 -0.0373  0.0110  0.0275
29349W        W44480   6.644   5.799   5.520 -0.1524  0.1027 -0.2305
29350W        W44481   9.308  16.200   2.576 -0.3837  0.1334  0.0708
29351W        W44482  13.822  11.331  15.591  0.2264 -0.2070  0.0496
29352W        W44483   0.748   2.829   2.357 -0.0939 -0.3533 -0.3407
29353W        W44484   7.661  13.468   1.524  0.1211 -0.3515 -0.2106
29354W        W44485   4.290  16.041   1.762 -0.0698 -0.1028  0.0877
29355W        W44486  16.657  17.297   1.427  0.0590 -0.0492  0.4249
29356W        W44487   9.063  15.142  14.171 -0.2067  0.1930 -0.0153
29357W        W44488   4.980   6.910   1.578  0.0105  0.0716  0.2928
29358W        W44489   8.113   6.982   5.639 -0.0149 -0.0153  0.0824
29359W        W44490   7.307  11.218   4.533 -0.0439  0.1275 -0.1129
29360W        W44491   6.703  12.968  15.572  0.0806  0.1181  0.1315
29361W        W44492   1.637  16.634  13.062  0.1202  0.2721  0.0587
29362W        W44493   8.878   3.972   4.606  0.0819  0.0855 -0.0077
29363W        W44494  16.865   4.062  12.089 -0.1358  0.0037 -0.1313
29364W        W44495   4.677  15.405  13.445  0.1674  0.2386 -0.0399
29365W        W44496  13.535   0.110   0.505  0.0320  0.2079  0.0589
29366W        W44497   7.365   2.838  15.063 -0.0639  0.0589  0.0563
29367W        W44498   3.447  12.441   1.062  0.0320 -0.0154 -0.0922
29368W        W44499  15.782   6.712   1.067  0.1110 -0.1466 -0.4512
29369W        W44500  13.483  14.255  15.818 -0.3434  0.1334  0.0592
29370W        W44501  10.191  17.457  15.245 -0.0165 -0.1651 -0.0970
29371W        W44502   0.283  13.526   4.205  0.1812 -0.0442  0.3343
29372W        W44503   6.786  11.854   2.521  0.1492 -0.0995 -0.1250
29373W        W44504   8.406   7.615  15.094  0.1603 -0.1013  0.0742
29374W        W44505   9.661   5.169   0.921 -0.3154  0.0834 -0.2170
29375W        W44506   8.626  13.181  15.941  0.3212 -0.0779 -0.2371
29376W        W44507  15.951  15.675   2.929 -0.1069  0.0108 -0.0602
29377W        W44508  13.693   1.544   0.715 -0.1844  0.0883  0.1254
29378W        W44509   3.621   8.597  12.900 -0.1898  0.0954 -0.1769
29379W        W44510   9.006   2.761   2.511 -0.2900  0.0713 -0.3865
29380W        W44511  12.887   8.411   2.373  0.3096 -0.1967 -0.0271
29381W        W44512  12.661  15.482   4.157 -0.0983 -0.0277 -0.1611
29382W        W44513  13.967   7.018   0.696  0.0835 -0.1447 -0.0364
29383W        W44514   6.731   9.262   1.976 -0.3501 -0.0634 -0.4843
29384W        W44515   3.818  16.241   2.692 -0.1779 -0.0431 -0.2013
29385W        W44516   5.047   3.727  15.506 -0.1237  0.2195  0.1788
29386W        W44517   8.304  13.786  11.173  0.0026 -0.0556 -0.1420
29387W        W44518   3.537  16.871  14.735  0.0239  0.1880  0.1951
29388W        W44519  17.101   4.218  13.502  0.2005 -0.2742 -0.0946
29389W        W44520   3.564   3.732   0.111 -0.0468 -0.0850  0.1161
29390W        W44521   0.708  13.001   1.416 -0.0820 -0.1100  0.3533
29391W        W44522  13.696   0.726   2.070 -0.2205  0.3146  0.4647
29392W        W44523  15.042  13.583   3.719 -0.1074  0.0980  0.2786
29393W        W44524  10.827   0.194   0.501  0.0057 -0.1206 -0.2327
29394W        W44525   9.070  16.108  14.835 -0.0874  0.1764  0.1067
29395W        W44526   2.668  15.917  13.476  0.1274  0.1877 -0.0490
29396W        W44527   7.602   3.356  13.436  0.0098 -0.0892  0.0005
29397W        W44528   8.036   0.870   4.407 -0.2021 -0.0747 -0.1661
29398W        W44529  14.320  15.338   1.957 -0.4007 -0.1284 -0.0137
29399W        W44530  12.000  13.583  12.887 -0.1554  0.1212  0.1313
29400W        W44531  11.216  10.661  14.055  0.2274  0.0782 -0.1650
29401W        W44532  16.774   2.226  12.281  0.1989 -0.2229 -0.0011
29402W        W44533  16.102  13.960  11.467  0.2561 -0.0653 -0.1607
29403W        W44534   0.458   3.683   3.798 -0.1825  0.0203  0.1474
29404W        W44535  11.479   5.112   4.270 -0.0070  0.1691 -0.0187
29405W        W44536   9.809   8.802  13.558 -0.2443  0.0842  0.3153
29406W        W44537  14.469  17.259   3.143 -0.1036  0.1679 -0.2673
29407W        W44538   1.120  10.830  12.363  0.0437  0.1763  0.0035
29408W        W44539   6.457   2.228   2.703 -0.1316 -0.2751 -0.1713
29409W        W44540   7.311   5.189  15.118  0.0207  0.1156 -0.2167
29410W        W44541  13.216   0.920   5.295  0.3858 -0.2606 -0.2019
29411W        W44542  13.285  11.475  11.540  0.4229  0.1514  0.4675
29412W        W44543   8.056  10.243   1.156 -0.0851 -0.1984 -0.0580
29413W        W44544  16.215  14.337   0.332 -0.2349  0.1774 -0.1721
29414W        W44545  10.581  11.970   1.271  0.2648 -0.2877  0.0022
29415W        W44546   9.328   3.308   0.905 -0.2448 -0.0247 -0.1286
29416W        W44547  16.120  10.179   1.972 -0.2144 -0.1020 -0.1300
29417W        W44548   0.127   5.088   3.805  0.1901  0.1941 -0.2318
29418W        W44549  15.245  16.635   5.730  0.1219 -0.2030  0.1572
29419W        W44550  15.374   5.794  15.106 -0.1999 -0.2070  0.2590
29420W        W44551  14.766  11.910  15.781  0.2679 -0.0743 -0.1146
29421W        W44552  16.884   5.174  12.770  0.1871 -0.0760  0.1338
29422W        W44553   9.411   7.367   5.641 -0.1262  0.1243  0.3221
29423W        W44554   9.542  15.461   5.036  0.8943  0.0641  0.0219
29424W        W44555   3.061   3.344   0.189 -0.0235 -0.3158 -0.1697
29425W        W44556  14.404  16.192   0.414 -0.0453 -0.2513  0.2117
29426W        W44557  11.729  13.594   2.366  0.0272 -0.0099  0.1669
29427W        W44558   8.592  10.726  12.447 -0.0622 -0.0761 -0.4757
29428W        W44559   8.996  16.127  13.648 -0.2391 -0.0022 -0.0259
29429W        W44560   7.533   4.635   4.381 -0.2825 -0.0950 -0.0379
29430W        W44561  17.243   5.404  15.122 -0.0180 -0.1632 -0.0321
29431W        W44562  10.726  12.389  14.264 -0.4945  0.2544  0.0337
29432W        W44563  12.777   2.503   5.992  0.4268 -0.2695 -0.0028
29433W        W44564  17.810   5.251  12.052  0.0256  0.1712  0.1483
29434W        W44565  16.843  10.012   0.805 -0.3990 -0.2502  0.2165
29435W        W44566  17.585  12.129   5.908 -0.0169 -0.0702  0.3667
29436W        W44567  17.304  13.219  14.710 -0.1021  0.2205 -0.2049
29437W        W44568   9.276  15.372  11.656  0.0078 -0.1508 -0.2463
29438W        W44569  13.996   3.142  12.445 -0.0637 -0.2350  0.1848
29439W        W44570   7.164  12.411   5.175 -0.0039  0.2202  0.0617
29440W        W44571  16.057  11.192   3.198  0.2498  0.1661  0.0072
29441W        W44572   4.101   6.203   2.161 -0.1887  0.0611  0.1039
29442W        W44573   7.812  16.772   3.232  0.0852 -0.4056  0.0524
29443W        W44574  12.630   2.313  14.529  0.0808 -0.1888  0.1973
29444W        W44575  15.380   0.967  15.013 -0.2791 -0.4217  0.2657
29445W        W44576  17.755   6.497   2.520  0.0329  0.0530 -0.1662
29446W        W44577   7.384   5.988  15.302 -0.2635 -0.0994  0.0082
29447W        W44578   5.025   3.630   5.056  0.0528  0.0481 -0.0452
29448W        W44579   1.572   1.432   4.330 -0.0015 -0.2742  0.0884
29449W        W44580   0.604   0.823   4.057 -0.3052  0.0672  0.1593
29450W        W44581   0.458   7.917   1.346 -0.2039 -0.1089  0.0649
29451W        W44582   5.608  10.009  10.612  0.1844  0.1787  0.0659
29452W        W44583  12.147   1.774  15.313 -0.0703  0.0512 -0.3294
29453W        W44584   7.794  11.524  13.974  0.1499  0.1955  0.1146
29454W        W44585   5.145  15.618   1.206  0.0929 -0.1335  0.3449
29455W        W44586  13.319   2.715   4.227  0.1411 -0.3261 -0.1522
29456W        W44587   4.462  10.457  15.322 -0.1193 -0.1893 -0.0533
29457W        W44588  14.509  13.209   2.528  0.2566  0.1611 -0.0071
29458W        W44589   1.817   5.127  11.074  0.2284 -0.0836  0.1190
29459W        W44590   5.592  12.920   4.146  0.0989  0.1759 -0.0541
29460W        W44591  16.560   6.941   0.476 -0.0790  0.0668 -0.1273
29461W        W44592   7.948   2.694   5.797  0.0697 -0.1622 -0.1615
29462W        W44593   8.312   7.675   3.458  0.1633  0.1918 -0.0341
29463W        W44594   0.936  13.179  12.174  0.0207  0.0666 -0.1545
29464W        W44595   3.344   6.825   0.401  0.0993 -0.3255  0.2563
29465W        W44596   0.096  17.144  12.151  0.5486  0.0484  0.2201
29466W        W44597   7.676  16.949   4.432 -0.0333 -0.1537  0.2222
29467W        W44598   8.282   8.563   2.813  0.0517 -0.2350  0.1363
29468W        W44599   9.385  11.238  11.816  0.0595  0.0641  0.0413
29469W        W44600  16.347   9.614   1.781 -0.0337  0.1111  0.3667
29470W        W44601   1.505  17.445   4.995  0.1758 -0.1187 -0.0339
29471W        W44602   0.240  12.997   2.335  0.1580  0.1322 -0.2030
29472W        W44603   4.357   9.178  12.961  0.1787  0.1445  0.0483
29473W        W44604   9.701   5.837   5.694 -0.2416  0.0942 -0.1733
29474W        W44605  13.028   6.351   4.031  0.2042 -0.1357 -0.0097
29475W        W44606   9.414  17.089   2.894 -0.0918  0.0323  0.0566
29476W        W44607  15.765  17.336   5.171 -0.0963 -0.0132 -0.0408
29477W        W44608   7.638  15.294  11.721 -0.0690 -0.1610  0.1219
29478W        W44609   6.519   4.404  12.439  0.0753 -0.1805  0.3150
29479W        W44610   7.518   3.230   4.942 -0.2939  0.1725  0.0457
29480W        W44611   1.672  17.768  13.425 -0.1610 -0.0578  0.0778
29481W        W44612  10.633  16.011   2.653  0.0315  0.1477  0.0852
29482W        W44613  14.428  17.396  14.706 -0.0588 -0.2466  0.3106
29483W        W44614   1.645  10.787  12.468  0.4134  0.2544 -0.0224
29484W        W44615  17.838  15.194   1.035  0.1037  0.1023 -0.1251
29485W        W44616   4.110   6.352   4.746  0.0909  0.1753 -0.1640
29486W        W44617  16.096   2.420  12.699 -0.0757 -0.2061 -0.0795
29487W        W44618  16.362   8.962   3.249  0.0322 -0.1147  0.1122
29488W        W44619   1.630   9.710  12.292  0.1059  0.1568 -0.2215
29489W        W44620   9.579  13.175  16.086  0.0028  0.0640 -0.1207
29490W        W44621   2.706   3.389   1.222 -0.4368  0.1673  0.1382
29491W        W44622  12.274  18.025   3.124 -0.1767  0.1222 -0.0196
29492W        W44623   2.159  15.055   1.462  0.0956  0.0561  0.2510
29493W        W44624  14.766  12.174   3.510 -0.2408  0.4490 -0.0708
29494W        W44625   8.317   1.937  12.550 -0.0222 -0.1173 -0.0458
29495W        W44626   8.572   3.355   4.930 -0.2242 -0.1720 -0.3203
29496W        W44627   2.202  13.527  11.964  0.0299 -0.0628  0.1450
29497W        W44628  14.959   4.203   2.985 -0.1974  0.1082  0.1613
29498W        W44629  14.168  13.578  15.634 -0.1611 -0.1322 -0.0621
29499W        W44630  11.122   8.904   2.424 -0.0076 -0.1949  0.5243
29500W        W44631   7.783  16.895  12.607  0.2379  0.0548  0.4223
29501W        W44632   2.433   3.725  10.799 -0.0793  0.0568  0.3413
29502W        W44633  13.991  10.588   3.706  0.0542  0.1137  0.0898
29503W        W44634  11.058  13.708  12.694 -0.2207  0.1150 -0.1642
29504W        W44635   8.903   7.717   1.340 -0.2211  0.2255 -0.1970
29505W        W44636   0.497   6.256   1.038  0.3138 -0.1221  0.1752
29506W        W44637  14.654   0.601  11.304  0.1040 -0.3294 -0.0553
29507W        W44638  10.697  12.649   9.846  0.2534  0.2218  0.1672
29508W        W44639  16.651   1.404   2.080  0.1315 -0.0326 -0.0464
29509W        W44640  12.862   8.720  11.401 -0.0424  0.2042  0.0858
29510W        W44641  16.934  15.898  15.371 -0.0005 -0.0836  0.0437
29511W        W44642   6.914  10.687  15.673  0.1192  0.2096  0.0275
29512W        W44643  15.608   9.352  14.148 -0.1228  0.1709  0.0948
29513W        W44644   0.414   5.491  13.674  0.2126 -0.0546  0.2398
29514W        W44645  16.695  16.491  12.048  0.6761 -0.1517  0.1446
29515W        W44646  13.145  13.056   4.532 -0.1082 -0.3485 -0.0558
29516W        W44647   9.682   1.150  12.112  0.1573  0.0267 -0.1840
29517W        W44648   9.800   1.121   4.630 -0.0028 -0.1362  0.1930
29518W        W44649  10.994   3.372   2.373  0.2040 -0.1786  0.0102
29519W        W44650  11.839   1.281  12.517 -0.0376 -0.2084 -0.3109
29520W        W44651  17.173  14.847  14.201  0.0910 -0.0387 -0.1870
29521W        W44652  17.002   1.819  10.842  0.0335  0.1836 -0.0194
29522W        W44653  12.490  16.011  13.119 -0.2405  0.0885  0.0990
29523W        W44654   2.575   6.633  10.529 -0.1676 -0.2115 -0.0223
29524W        W44655   7.856   1.485   5.079 -0.0177  0.2092 -0.1681
29525W        W44656  10.667  16.648  12.844 -0.1789  0.0103 -0.0665
29526W        W44657   5.115   7.748   0.909  0.1699  0.3113  0.0243
29527W        W44658  11.806  13.897  12.071 -0.1137  0.1714  0.0611
29528W        W44659   8.213   7.782   4.266 -0.1829  0.1112 -0.1413
29529W        W44660   8.355  15.959   4.001 -0.2866 -0.0925  0.0674
29530W        W44661  14.395  16.382  13.296 -0.2520  0.2431 -0.0031
29531W        W44662  10.434   4.609  12.041  0.2281 -0.2806 -0.0141
29532W        W44663   3.408   2.586  13.350  0.2057  0.2246  0.0779
29533W        W44664  15.734   4.756  16.097 -0.0016  0.3972 -0.0012
29534W        W44665   7.158  15.516  14.984  0.0848 -0.0795 -0.0223
29535W        W44666   3.850  11.068  12.653 -0.0811 -0.3384 -0.0656
29536W        W44667   2.516   7.129  10.998  0.1853  0.1844 -0.0679
29537W        W44668  11.279   0.699   5.512 -0.0284 -0.1965  0.2275
29538W        W44669   8.943  10.771   2.183 -0.1712  0.0995  0.0991
29539W        W44670   8.980  14.337  13.779 -0.0895 -0.0612 -0.1915
29540W        W44671   2.054   3.944   3.648  0.1983  0.3411  0.1263
29541W        W44672   2.156   5.445   1.634  0.0791  0.2597 -0.0512
29542W        W44673   0.777  16.274   3.167 -0.2744  0.0693 -0.1002
29543W        W44674  11.775   4.391   2.286  0.0709 -0.0152 -0.2715
29544W        W44675  17.676  11.237   5.766 -0.2300 -0.0036  0.0366
29545W        W44676   2.067   9.066  16.010 -0.2199  0.1250 -0.3575
29546W        W44677   5.271   2.639  14.372 -0.4972  0.0627  0.0624
29547W        W44678  10.909   7.575   2.889  0.1081 -0.4586 -0.1299
29548W        W44679  13.238   7.431  12.607  0.4138  0.1538 -0.1529
29549W        W44680  10.372  10.363   3.298 -0.0670  0.1573 -0.1187
29550W        W44681   8.662  11.464   1.632  0.0519 -0.0433  0.4477
29551W        W44682  13.953   2.788   3.660 -0.0894  0.1044 -0.1107
29552W        W44683  15.807  18.183   5.007 -0.0857  0.2398  0.0969
29553W        W44684  14.180   6.761  12.084 -0.0390 -0.2023 -0.0587
29554W        W44685  16.632  13.316   3.498 -0.2132 -0.0497  0.1320
29555W        W44686  11.635   3.961  11.670  0.0705  0.0783  0.0472
29556W        W44687  14.946  18.090   3.686 -0.0274 -0.1872  0.0862
29557W        W44688   1.465   6.208  11.970 -0.0541  0.2338  0.1255
29558W        W44689  14.359  10.931   3.882 -0.0935 -0.0844  0.0956
29559W        W44690   0.429   7.430   1.373 -0.0859  0.5770  0.1150
29560W        W44691   1.742  13.872  13.052  0.1149 -0.0253 -0.3410
29561W        W44692   0.005   3.809  14.247 -0.1493 -0.0880 -0.1829
29562W        W44693   4.707   0.991  13.003 -0.1418  0.1534  0.0089
29563W        W44694   3.349  12.980   1.405 -0.0858 -0.1252 -0.3954
29564W        W44695   0.710  11.825   2.916  0.4284  0.0873  0.1172
29565W        W44696  16.301   8.048  13.330 -0.0939  0.0047 -0.1635
29566W        W44697  10.961   1.267  14.396 -0.0696 -0.0374 -0.1749
29567W        W44698  11.275  13.107   4.097 -0.1171  0.2207  0.0028
29568W        W44699   6.272   3.132  14.632  0.3269  0.2374 -0.2499
29569W        W44700   9.613   8.249  15.147 -0.5299  0.2021  0.2748
29570W        W44701  10.315  15.600   1.072  0.1461  0.1363 -0.3390
29571W        W44702   4.033  11.808   2.259 -0.0815  0.0740 -0.0046
29572W        W44703   5.992  10.033   4.335  0.3422 -0.0801 -0.0524
29573W        W44704  17.354   9.783  12.416  0.0403  0.0088  0.2662
29574W        W44705  11.493  18.007   1.723  0.3612 -0.2058 -0.2337
29575W        W44706   3.225  13.274   0.926 -0.2045  0.0177 -0.1609
29576W        W44707   6.857   6.510  11.588 -0.2953 -0.0316 -0.0964
29577W        W44708   6.865   6.310   1.864 -0.2039  0.2064  0.2695
29578W        W44709   3.808  14.751   2.467 -0.0457  0.1131 -0.0362
29579W        W44710  17.095   8.661   3.522 -0.0293  0.1882 -0.5304
29580W        W44711   9.347   8.918  13.359  0.0857  0.4012 -0.1550
29581W        W44712   1.869   1.539  14.626 -0.4106  0.1917  0.0850
29582W        W44713  12.482  15.863  11.221 -0.4176 -0.2369  0.0458
29583W        W44714   3.500   4.185  12.937 -0.1325  0.1842 -0.0383
29584W        W44715   9.773   5.287  14.255  0.1808 -0.1520 -0.1000
29585W        W44716  16.672  15.741   6.075  0.0081  0.0331 -0.1422
29586W        W44717  10.200   3.890   4.306 -0.1361 -0.0943 -0.0304
29587W        W44718   8.453  14.820  12.964  0.2671  0.0661  0.0307
29588W        W44719   5.830   3.288  13.891 -0.1662  0.1836  0.1573
29589W        W44720  17.770   2.451  14.749 -0.0621  0.0358  0.1864
29590W        W44721   2.794  13.046   0.737  0.0188  0.0178  0.3942
29591W        W44722   0.667  13.148   5.520  0.0055 -0.2855  0.0740
29592W        W44723  14.637   4.591   0.942  0.2651 -0.1436 -0.1890
29593W        W44724   8.649  17.153  12.214 -0.1315 -0.1443  0.0699
29594W        W44725   0.552  17.418  13.625  0.1892 -0.1720  0.4075
29595W        W44726   6.931   9.207   1.078  0.2713 -0.1424 -0.0393
29596W        W44727  16.487   4.915  12.596 -0.1153 -0.1311 -0.2099
29597W        W44728  17.117   8.044  13.425  0.1173  0.1730 -0.0580
29598W        W44729  10.936  15.312  13.252 -0.2299 -0.1000  0.0935
29599W        W44730   7.137   5.420   2.949  0.1202 -0.0633 -0.0581
29600W        W44731   4.988   7.329   2.485 -0.0550  0.4674  0.2538
29601W        W44732  12.665   2.490   1.432  0.0614  0.1347  0.1503
29602W        W44733  15.923  17.791   1.430  0.1240  0.0472 -0.0933
29603W        W44734  13.798  11.008   3.856 -0.0584  0.0103  0.1654
29604W        W44735   9.123   8.533  12.503 -0.3925 -0.1344 -0.2886
29605W        W44736  14.773  11.762  11.435 -0.1999 -0.2463  0.1715
29606W        W44737   2.471   7.910  11.348  0.1236 -0.1369 -0.2288
29607W        W44738   6.080  16.657   4.941 -0.2224  0.0694  0.2169
29608W        W44739  17.179  13.994   1.864  0.0661 -0.1432 -0.1243
29609W        W44740  17.520  13.441   1.131 -0.1325  0.0564  0.0188
29610W        W44741   7.403  10.494   4.819  0.3420 -0.4844  0.1799
29611W        W44742  17.128   6.118   1.737 -0.2592  0.3138 -0.1254
29612W        W44743  11.277   5.212   2.499 -0.0002  0.0357  0.0643
29613W        W44744   5.887   3.680   3.337 -0.0668 -0.0274  0.0340
29614W        W44745   7.807  16.772  13.735 -0.0301 -0.0462  0.1295
29615W        W44746  15.584   1.852   1.990  0.0231  0.2004  0.2662
29616W        W44747  12.224   8.725   3.930  0.1926 -0.1804 -0.0440
29617W        W44748   8.090  16.637   4.503 -0.0155  0.1776  0.1628
29618W        W44749  13.532  10.864  11.379  0.0209  0.1287  0.0310
29619W        W44750   0.154  10.194  11.615 -0.2251  0.0311  0.1445
29620W        W44751   6.171  13.216  15.995 -0.3961 -0.1833 -0.3934
29621W        W44752  10.050  15.071   0.464 -0.1015 -0.1631  0.1112
29622W        W44753  16.090  18.181  10.711  0.2523 -0.0013  0.0096
29623W        W44754  17.170   4.228  12.483 -0.0919 -0.1409  0.1425
29624W        W44755  16.285   2.104  12.250  0.0716 -0.3684  0.1207
29625W        W44756  16.063   9.285   4.071  0.2479  0.1959 -0.0640
29626W        W44757   1.200   9.995   2.824  0.1631  0.1463 -0.0151
29627W        W44758  10.204   1.786   3.014 -0.2019  0.1765  0.0027
29628W        W44759   8.460   1.267  14.749  0.0120  0.2301 -0.2205
29629W        W44760  13.181  11.209   5.509 -0.4186  0.0132 -0.3408
29630W        W44761  17.544  11.006   4.951 -0.4124 -0.0047 -0.0712
29631W        W44762  11.447  13.317  10.914 -0.0457  0.2320 -0.1144
29632W        W44763   1.789  12.122   3.829  0.1391  0.1873 -0.3091
29633W        W44764  15.283   7.367   4.922 -0.1657  0.1651 -0.0509
29634W        W44765   2.424   7.798  10.508 -0.0716 -0.2657 -0.0173
29635W        W44766   7.438  16.566  12.111 -0.0837 -0.2145 -0.2757
29636W        W44767   8.268  17.087   2.105 -0.2812  0.2141  0.0765
29637W        W44768  17.579   4.725  12.333 -0.0167 -0.1175 -0.0342
29638W        W44769  16.688   3.135   2.850 -0.2680  0.0063 -0.0068
29639W        W44770  15.919   7.028  14.461 -0.3012  0.0617 -0.6454
29640W        W44771   8.705   9.543   1.549 -0.0593  0.3150  0.1624
29641W        W44772  16.525  11.823  13.620  0.0126  0.2717  0.2308
29642W        W44773  16.520  10.865  12.598  0.2173  0.0007  0.0153
29643W        W44774   2.247   2.588  14.980 -0.0491  0.1039 -0.1517
29644W        W44775  15.988  12.102   4.552 -0.0626  0.0518 -0.0075
29645W        W44776   5.685   3.211   0.014  0.1503 -0.2140 -0.1001
29646W        W44777   2.978  11.628   4.302  0.0230  0.1190 -0.1977
29647W        W44778   7.136   4.742   1.311 -0.2981  0.1737 -0.3531
29648W        W44779   3.410  16.172  16.215  0.1175 -0.1602 -0.2962
29649W        W44780  13.604  14.651   4.072 -0.1117 -0.0871 -0.0641
29650W        W44781  15.655   1.259  12.541  0.5407  0.0306  0.2095
29651W        W44782   6.501   6.869   1.809 -0.1163 -0.0388 -0.0019
29652W        W44783  12.085   7.590  12.114  0.1008  0.2164 -0.2847
29653W        W44784   3.936  16.372  13.168 -0.0617  0.0220 -0.2205
29654W        W44785  12.052   6.679  14.180 -0.1768  0.1200 -0.1358
29655W        W44786   8.164  11.816  14.183  0.1925 -0.4102  0.0538
29656W        W44787  11.683   3.052   4.397 -0.1068  0.3505 -0.1396
29657W        W44788  16.683   1.329   2.647 -0.1601  0.2311 -0.0286
29658W        W44789  16.437  10.552   6.117  0.1996  0.1151 -0.0207
29659W        W44790   4.805  17.406   0.265  0.1502  0.1796 -0.1004
29660W        W44791  12.532   3.473  10.216 -0.2045 -0.4392 -0.2241
29661W        W44792  17.835   4.531  14.369  0.3560  0.2397  0.0056
29662W        W44793   9.786   2.548  15.198  0.0230 -0.1484  0.1183
29663W        W44794  17.659   9.264   0.297 -0.4419  0.2203 -0.2137
29664W        W44795   1.259  16.254  13.439  0.2381 -0.0704 -0.0616
29665W        W44796  11.843   0.825  12.892 -0.1468  0.0211 -0.1494
29666W        W44797   5.129  18.130  12.901  0.0508 -0.0605  0.0394
29667W        W44798   5.785   5.992   3.548 -0.1934  0.0150  0.0114
29668W        W44799   3.506  17.649  15.974  0.1430 -0.0882 -0.0362
29669W        W44800   5.047   0.924   0.198 -0.1565  0.2031 -0.1341
29670W        W44801   5.183   4.029  14.138  0.0494  0.1159 -0.3472
29671W        W44802  12.128   3.417  12.972 -0.1589 -0.0901 -0.3641
29672W        W44803   0.077  14.763   6.029  0.0121 -0.2679 -0.1978
29673W        W44804   2.259  17.332   0.167 -0.0046  0.0093  0.1307
29674W        W44805   2.063   8.965  14.846 -0.0596  0.1863  0.2709
29675W        W44806   4.080   2.752   9.948 -0.2235 -0.0261 -0.1726
29676W        W44807  13.520  14.301   4.490 -0.3111  0.0764  0.2009
29677W        W44808   8.105  12.997   4.976  0.3023 -0.2843  0.1125
29678W        W44809   9.908   5.371  11.961 -0.0415  0.0506  0.0330
29679W        W44810  12.648  12.839  11.962  0.2110 -0.0110 -0.0638
29680W        W44811   3.647   6.357  13.838  0.0579  0.3788  0.3091
29681W        W44812   9.969  11.492   0.678  0.1900  0.0482 -0.1502
29682W        W44813   7.336  14.690  15.949 -0.0709 -0.1168 -0.0555
29683W        W44814   0.402   9.128  14.672 -0.1768  0.1127  0.2942
29684W        W44815  16.793   4.888  15.995 -0.1954  0.0838 -0.1508
29685W        W44816   7.089   7.881   4.073 -0.1294  0.3077  0.0077
29686W        W44817  15.933  10.429  14.584 -0.1346 -0.1617 -0.1954
29687W        W44818   4.217   3.971   4.670  0.1451  0.1626 -0.0229
29688W        W44819   2.210   6.349   2.598 -0.1038 -0.0446  0.0739
29689W        W44820  11.747   0.763  12.371 -0.2495 -0.1728 -0.2351
29690W        W44821  10.491   5.738  12.946  0.1813 -0.1514  0.0653
29691W        W44822  14.070   5.462  12.812  0.3234  0.0613  0.0899
29692W        W44823  12.163  12.948   0.347  0.2687  0.4085  0.0964
29693W        W44824   0.988  11.858  14.285 -0.1954 -0.0897 -0.0394
29694W        W44825   6.525   5.505  15.646  0.2113  0.1536  0.1115
29695W        W44826  16.910   4.464   0.970 -0.1048  0.4406 -0.3485
29696W        W44827   4.266   6.250   5.308 -0.1258 -0.0357  0.1593
29697W        W44828   8.214  16.735   2.484  0.0221 -0.0002 -0.0669
29698W        W44829   9.265  17.720  11.623  0.1362 -0.0066 -0.1291
29699W        W44830  13.746  15.727  14.411 -0.2556  0.0290  0.2426
29700W        W44831  13.279   7.786  14.137  0.0431 -0.2062  0.1254
29701W        W44832  14.728  17.106  11.422  0.0778 -0.0439 -0.2436
29702W        W44833   2.453   1.618  12.906  0.0711  0.1050  0.6363
29703W        W44834  17.032  14.895   4.089  0.0255  0.0197 -0.1415
29704W        W44835  17.918  13.768   3.513  0.2253 -0.0037 -0.2538
29705W        W44836   3.727  13.182   3.350  0.0313  0.2003  0.0584
29706W        W44837   1.214  13.542   5.431 -0.0552 -0.2406  0.3635
29707W        W44838  17.826   8.316  11.318  0.0771 -0.1078  0.2347
29708W        W44839   5.096   8.728   5.211  0.4367 -0.0076 -0.0899
29709W        W44840   7.777   4.016  14.816 -0.1366 -0.1366  0.1707
29710W        W44841  17.676   4.672   5.042 -0.2901 -0.1995  0.0891
29711W        W44842  12.346  11.020   2.587 -0.1960  0.1351 -0.0846
29712W        W44843   0.679  15.771   3.290  0.1978  0.0914 -0.1569
29713W        W44844   4.338  18.146  14.889 -0.2362  0.1828 -0.0028
29714W        W44845   1.544   2.407   3.733 -0.1204  0.0059  0.2218
29715W        W44846  13.294   7.524   3.224 -0.0272  0.1658 -0.1192
29716W        W44847   0.994   4.104  16.040 -0.1217  0.1026  0.1688
29717W        W44848   3.469  15.877   3.547 -0.0264  0.0213 -0.0091
29718W        W44849  17.028   4.166  14.779 -0.0642 -0.0702 -0.3653
29719W        W44850  14.998  10.640  11.431  0.0707  0.0527  0.0459
29720W        W44851   4.373   6.176   3.459 -0.3936 -0.3018 -0.2465
29721W        W44852  12.513  11.539   2.656  0.0824  0.0048 -0.0703
29722W        W44853  11.187  13.261  11.419  0.0316 -0.0726 -0.0615
29723W        W44854   6.583   9.900  12.727 -0.0571 -0.0473 -0.0614
29724W        W44855   1.016  11.429   2.680 -0.1426 -0.0225  0.3022
29725W        W44856   6.618   9.869  11.705 -0.4308 -0.1341 -0.3187
29726W        W44857   4.621   7.901  15.062  0.2422  0.3038 -0.0117
29727W        W44858  16.389   4.316   1.509  0.4154 -0.0601 -0.2212
29728W        W44859  16.743   6.184  16.160  0.0890  0.3709  0.3212
29729W        W44860   5.703   7.009  10.649 -0.0451  0.1186  0.0497
29730W        W44861   6.849  13.125  14.563 -0.1472  0.0091  0.1425
29731W        W44862  14.051  14.264  15.807  0.1631 -0.0778  0.1568
29732W        W44863   8.321   0.054   4.491 -0.0291  0.0593  0.0748
29733W        W44864  16.064  12.635  14.098  0.1547 -0.3134  0.0554
29734W        W44865   0.823  15.228   0.078 -0.2698  0.1826 -0.1703
29735W        W44866   7.943   3.934   0.480 -0.0042  0.0991 -0.2310
29736W        W44867   1.855   4.344  13.040  0.0059  0.1232 -0.0957
29737W        W44868  13.234   1.332   0.423 -0.0452 -0.2077 -0.1829
29738W        W44869  10.390   3.599  13.236  0.0640  0.0906  0.0036
29739W        W44870   9.395   1.721  13.249 -0.2308 -0.0542 -0.1873
29740W        W44871   7.767   4.230  13.248 -0.0656  0.2512 -0.0758
29741W        W44872   5.592   8.159  12.877 -0.2757 -0.1489 -0.0147
29742W        W44873   3.466   5.156  11.633 -0.2065 -0.1622 -0.2794
29743W        W44874   0.706  14.038  14.976  0.2279 -0.0011 -0.0290
29744W        W44875   3.870   6.328  12.298  0.1569  0.3519 -0.0858
29745W        W44876   9.018   4.492   2.124 -0.0851  0.0861 -0.0399
29746W        W44877  15.557   7.799  14.240 -0.3024  0.3216  0.0753
29747W        W44878  11.396  10.063  14.580 -0.0067 -0.0035 -0.1476
29748W        W44879   2.499   3.396  13.690 -0.2120 -0.0463 -0.0113
29749W        W44880   7.103   5.943  16.178 -0.1726  0.3455 -0.0078
29750W        W44881  18.150   3.733   1.889 -0.0009  0.4434 -0.1355
29751W        W44882   4.896  13.247  12.229 -0.2085  0.2336  0.1356
29752W        W44883   6.627  10.474  15.193  0.1258  0.3163 -0.3282
29753W        W44884  15.684  12.117   3.187 -0.1941  0.0107 -0.1193
29754W        W44885  12.637  14.220   2.773 -0.0264  0.1865  0.1796
29755W        W44886   7.293  11.887  15.053  0.0261 -0.0580  0.3542
29756W        W44887   2.783  17.714   5.440  0.0638 -0.0664 -0.0765
29757W        W44888   7.681  13.403   0.271 -0.0194 -0.0410 -0.0493
29758W        W44889   5.902   1.408   2.353 -0.1016  0.1847  0.3978
29759W        W44890   4.757   7.033  10.227 -0.3605 -0.2544  0.0670
29760W        W44891   4.146  14.019   4.812  0.1282  0.0689 -0.0842
29761W        W44892   7.885  15.488   0.238  0.3327  0.0362 -0.2078
29762W        W44893   4.432   5.625   4.438 -0.2643  0.2366 -0.0952
29763W        W44894  12.299  12.913   4.156 -0.2864 -0.0783 -0.0221
29764W        W44895  16.243   3.754  11.465  0.2380  0.0157 -0.2076
29765W        W44896  10.790   5.932   4.207  0.2143  0.0456  0.1013
29766W        W44897  15.809  14.497  16.233 -0.1670  0.1964  0.2298
29767W        W44898  12.480   4.092  11.760 -0.3193  0.0402 -0.2684
29768W        W44899   4.689  15.961  14.280 -0.2271  0.2442  0.2877
29769W        W44900  11.544  13.630   1.230 -0.1754 -0.2211 -0.3788
29770W        W44901   2.913  14.645  12.356 -0.0115 -0.1585 -0.0479
29771W        W44902   5.014   2.844   1.761 -0.3670  0.0898  0.3056
29772W        W44903  14.070   3.219  11.928 -0.0514 -0.2414 -0.0372
29773W        W44904   5.914   2.959  12.470  0.0507  0.1432 -0.1087
29774W        W44905  13.970   8.258  15.866 -0.0573 -0.2304 -0.3841
29775W        W44906   8.023   5.614   0.523  0.0445 -0.1968  0.1847
29776W        W44907   2.527  11.787  11.489  0.1048 -0.2375  0.1374
29777W        W44908  11.861  15.716   3.538 -0.0162  0.0268  0.1370
29778W        W44909   0.257  11.387  13.733  0.1349  0.0190 -0.1139
29779W        W44910  11.531  17.816   2.693  0.1749  0.0303 -0.0228
29780W        W44911  11.423   2.616   4.383 -0.0729 -0.2015  0.1462
29781W        W44912   7.863   6.757   3.339 -0.1986 -0.1197  0.0716
29782W        W44913  12.896   2.838  13.569 -0.2263 -0.0247  0.0752
29783W        W44914   6.758  10.759  12.836 -0.2831  0.1735  0.2636
29784W        W44915   8.515  15.610   4.417  0.2560 -0.2659 -0.2425
29785W        W44916   7.173  16.743  16.004 -0.2299  0.0669  0.1105
29786W        W44917  15.254  14.181   3.180  0.1780 -0.1646  0.3486
29787W        W44918   0.180  14.616   0.327  0.0926 -0.0139 -0.0625
29788W        W44919   5.060  12.632   5.338  0.1315  0.0908  0.1699
29789W        W44920   2.225   6.322  11.491 -0.0054 -0.1991  0.1507
29790W        W44921  16.300  16.520   5.734 -0.1115 -0.0191 -0.1731
29791W        W44922  10.656  11.958   9.863 -0.0885  0.2368  0.0871
29792W        W44923  13.131  17.879  11.469 -0.1922  0.0242 -0.0170
29793W        W44924  16.377  11.789   2.027  0.3266  0.2646  0.1137
29794W        W44925  16.290  15.194   6.260  0.1869  0.2311  0.1778
29795W        W44926   7.568  18.145   3.604 -0.1389  0.3781  0.0307
29796W        W44927   2.778   5.039   4.263 -0.1214 -0.1913  0.1708
29797W        W44928   4.345  14.370  14.772 -0.2073  0.2479  0.0559
29798W        W44929  10.784   6.694   5.056  0.0812  0.1533 -0.0170
29799W        W44930  15.014  16.764  13.994  0.1132 -0.4291  0.3180
29800W        W44931   7.935   8.339   5.562 -0.0211 -0.0035 -0.0716
29801W        W44932   5.502  16.200  15.226  0.2314  0.1805  0.2767
29802W        W44933  10.393  13.900   3.447  0.0151 -0.3089  0.5986
29803W        W44934   5.741   2.830  14.043 -0.0177  0.0710  0.0410
29804W        W44935   3.858   7.972   0.064  0.0584  0.2393  0.1136
29805W        W44936  12.130  15.994   5.145 -0.2301 -0.2811  0.2403
29806W        W44937   3.788   7.291  11.426  0.0848  0.1066  0.1192
29807W        W44938  10.580  15.767   0.101 -0.0169  0.0260 -0.2308
29808W        W44939   0.691   6.680   2.113 -0.0484 -0.2261 -0.0234
29809W        W44940  10.667  15.461   2.738 -0.1669  0.3057  0.0876
29810W        W44941  17.359   7.872  13.861  0.0058 -0.2917  0.1850
29811W        W44942  16.516  14.881  14.965  0.2420 -0.0162 -0.1916
29812W        W44943  17.602   0.685  13.130 -0.3490  0.0552 -0.2028
29813W        W44944   5.425  12.302  12.121  0.0219 -0.1270  0.1766
29814W        W44945  11.829  17.271  12.118  0.0951 -0.1790 -0.1930
29815W        W44946  17.604   3.281   0.103 -0.1094  0.3933 -0.1688
29816W        W44947  10.146   7.248   4.019 -0.3263 -0.0555 -0.3522
29817W        W44948   8.224   9.556   1.054  0.0917 -0.0404  0.3437
29818W        W44949   6.185  14.036   1.408 -0.2879  0.0588  0.0073
29819W        W44950   6.255  11.971   4.734 -0.2274 -0.0384 -0.1788
29820W        W44951   3.649   3.174  10.821  0.4042  0.1324 -0.1012
29821W        W44952  15.467   9.472   1.625  0.0604 -0.0931  0.0968
29822W        W44953   0.028  16.678   1.825  0.0329  0.2203  0.1160
29823W        W44954  10.277  16.220  15.695 -0.0509  0.0751 -0.2406
29824W        W44955  16.445  13.573   2.917 -0.1048 -0.3517 -0.1093
29825W        W44956   1.299  11.968  12.790  0.1507 -0.1343  0.0898
29826W        W44957  10.479   6.858  12.693 -0.0367  0.3329 -0.0309
29827W        W44958   1.748   0.004  13.103  0.2369  0.2967  0.2476
29828W        W44959  15.270  12.930   3.127 -0.3944  0.3438 -0.1498
29829W        W44960  12.451  16.353   0.716 -0.0721  0.2736  0.0257
29830W        W44961  17.854   2.116  16.073  0.2131 -0.0637 -0.0407
29831W        W44962   9.356   7.877   5.796 -0.0547 -0.1848  0.0181
29832W        W44963   7.520  16.682   4.809 -0.1474  0.0870  0.0245
29833W        W44964  17.588   1.048   0.192 -0.1246 -0.1865 -0.4128
29834W        W44965  16.616   5.184  11.838  0.4178  0.0967  0.0016
29835W        W44966  15.128  15.722  13.484  0.2070  0.1615 -0.1602
29836W        W44967   8.363   7.591  12.905  0.1588  0.0917  0.1545
29837W        W44968   1.621   8.919  11.713 -0.2373  0.0681  0.3832
29838W        W44969   0.538   6.468   5.836 -0.1301 -0.0018  0.1342
29839W        W44970  11.565   5.601   1.602  0.0904  0.0098  0.3036
29840W        W44971  13.366  17.308   0.534  0.0810  0.0445 -0.1754
29841W        W44972   6.668  13.795   4.233  0.0851  0.1102  0.2063
29842W        W44973  15.771   6.813  15.204  0.2403 -0.1397  0.0794
29843W        W44974   4.642  17.419  12.559  0.1763 -0.0289  0.1149
29844W        W44975   4.289  10.458   2.875 -0.1971  0.0756 -0.4618
29845W        W44976   0.257   6.429   5.359  0.0597  0.0179 -0.0047
29846W        W44977   5.483  10.181   4.526 -0.0503  0.3441 -0.0101
29847W        W44978  12.201   5.516   2.776  0.2425 -0.0478  0.0736
29848W        W44979  10.823  17.901   0.491 -0.2625  0.0844 -0.2427
29849W        W44980   6.522   2.656  15.726 -0.2607  0.2371 -0.0942
29850W        W44981  14.726   7.522   4.152 -0.2369  0.4013 -0.0035
29851W        W44982  12.246  12.938  14.442  0.1778 -0.0398  0.0522
29852W        W44983   1.208  15.798   5.760  0.1804 -0.0138 -0.1268
29853W        W44984  10.091  14.890   1.796  0.0454  0.1612 -0.0635
29854W        W44985   9.176   6.506   2.665 -0.1328  0.5116  0.1871
29855W        W44986  15.792   4.252  13.628  0.0182 -0.0909  0.1066
29856W        W44987   4.452   9.868   0.727 -0.0033  0.2543  0.2628
29857W        W44988   8.693   3.351   1.502  0.0807  0.1115 -0.2899
29858W        W44989  17.769  13.381   2.731 -0.1980  0.2797 -0.3389
29859W        W44990  10.249   2.290   5.328 -0.2304 -0.1085 -0.0220
29860W        W44991   4.719   9.482  13.209  0.0505 -0.2019  0.0330
29861W        W44992   8.316   2.616   5.267 -0.0463  0.0084 -0.0779
29862W        W44993   9.081  10.229  15.974 -0.3730  0.0305 -0.0260
29863W        W44994   1.072  17.358  15.434  0.1713  0.0839  0.0681
29864W        W44995  16.029   6.037  15.687  0.0072 -0.0925  0.0751
29865W        W44996   8.021   3.345   4.926 -0.1532 -0.1620 -0.0328
29866W        W44997   5.470  10.071  15.810  0.1986 -0.0178 -0.2479
29867W        W44998   6.128   4.020  16.229  0.1044  0.1080 -0.2445
29868W        W44999   9.495   5.626  12.053  0.2957 -0.3415 -0.2443
29869W        W45000  13.460   8.216  11.416 -0.5018 -0.0318  0.1672
29870W        W45001  15.306   8.037  13.900 -0.0866  0.1423  0.1032
29871W        W45002   2.165  16.480  14.501 -0.4350  0.0416 -0.0221
29872W        W45003   5.818   2.406  15.304 -0.0753 -0.1008 -0.0449
29873W        W45004  12.889  17.223   0.825 -0.1098 -0.3259 -0.1665
29874W        W45005  14.079  13.773   1.193 -0.1021 -0.4247  0.1097
29875W        W45006   8.919  16.053   1.394 -0.1559  0.0395 -0.2675
29876W        W45007  12.285  13.886  11.129 -0.0774 -0.0552 -0.1307
29877W        W45008  13.776   2.033   0.540  0.0508 -0.0557 -0.1333
29878W        W45009  13.583  18.009   3.321  0.1922 -0.1445  0.5095
29879W        W45010  11.302  13.665  14.712  0.2545  0.1127 -0.1313
29880W        W45011  14.673  12.773   4.072 -0.0846  0.1292  0.2138
29881W        W45012  12.434   2.786  12.336 -0.3647 -0.1586  0.2435
29882W        W45013   5.079   6.513   2.384  0.1677 -0.0338 -0.1265
29883W        W45014  17.591  14.743  12.312  0.0948 -0.4562 -0.2513
29884W        W45015  10.254   2.467   1.198  0.1478  0.0020  0.1149
29885W        W45016  13.778   5.159  13.067  0.3825  0.1792  0.0919
29886W        W45017  12.114   9.131   2.389 -0.0814  0.1017 -0.0379
29887W        W45018  17.135  11.964   3.007  0.1286 -0.0165 -0.0767
29888W        W45019   8.518   6.157   0.964 -0.3703 -0.0810  0.2565
29889W        W45020  15.663   4.279   0.353  0.1538  0.2645 -0.0603
29890W        W45021  15.506  13.728  16.048  0.0208 -0.1768 -0.0511
29891W        W45022   6.297   3.953   4.352  0.3850  0.1579 -0.1199
29892W        W45023  13.934   7.194  13.208 -0.0949  0.1203  0.0052
29893W        W45024   1.200   1.518   1.773  0.0596 -0.0103  0.1984
29894W        W45025   1.145  16.539  13.867  0.0231 -0.0771 -0.0107
29895W        W45026   0.083  12.607  16.225  0.0526  0.1143  0.2746
29896W        W45027   0.835   9.336  11.527  0.1154  0.1551  0.0301
29897W        W45028  15.256   8.919  14.075 -0.0262  0.1193 -0.0690
29898W        W45029  16.761  15.268  13.139 -0.2794 -0.1878 -0.0530
29899W        W45030   7.487  16.623  13.153 -0.1964 -0.0760  0.0050
29900W        W45031   8.313   4.242  13.523 -0.0921  0.0771 -0.1208
29901W        W45032  18.076   4.115  11.240 -0.0349  0.1417 -0.0054
29902W        W45033  10.258  17.251   0.522  0.1533  0.2150  0.0240
29903W        W45034  13.101   0.240   2.679  0.1795  0.0872 -0.1534
29904W        W45035  13.842   9.429   5.624 -0.4070 -0.2201  0.0068
29905W        W45036   9.559   2.220   2.633  0.1813  0.2166  0.3249
29906W        W45037  13.469   4.451  16.121 -0.2225  0.0362  0.1455
29907W        W45038  13.911   1.038  14.290 -0.1079  0.0174 -0.1187
29908W        W45039  15.087   9.400   1.944 -0.0080  0.2029 -0.0173
29909W        W45040   7.733   6.441  11.567  0.1388  0.0992 -0.0792
29910W        W45041   8.461   7.418  12.435 -0.2553 -0.2098 -0.0248
29911W        W45042   6.739  16.643  11.623  0.2031 -0.1050  0.0876
29912W        W45043   4.773   6.882   2.485 -0.0105  0.2575  0.0078
29913W        W45044   8.850   7.940  15.896 -0.0743  0.1241  0.0024
29914W        W45045  16.186   1.233   4.989  0.0447  0.0513 -0.2751
29915W        W45046   9.656   3.291   2.618 -0.2214  0.1731  0.0341
29916W        W45047   6.005  17.247   5.153 -0.0589 -0.0442  0.1329
29917W        W45048  16.227   3.717  14.801 -0.1660  0.2851  0.0543
29918W        W45049  17.458   6.554   1.824  0.0728  0.0095  0.1673
29919W        W45050   6.714  17.885  14.980  0.0376 -0.2142 -0.2052
29920W        W45051  13.860  16.744  15.118  0.0739 -0.2650  0.1458
29921W        W45052   3.028   1.149  14.255 -0.1483 -0.0008 -0.0550
29922W        W45053  12.927  12.106  14.471 -0.1061  0.2646 -0.0329
29923W        W45054   2.278  12.742   3.895 -0.2780 -0.3539  0.0717
29924W        W45055   1.720  10.728   5.081 -0.0862  0.1955  0.1596
29925W        W45056  14.363   5.243  15.002  0.0211 -0.0830 -0.2074
29926W        W45057   5.292  14.107   0.938 -0.3024  0.1378  0.1605
29927W        W45058   0.932   9.606   1.144 -0.0326  0.4148  0.2176
29928W        W45059   0.450   1.298   3.678 -0.4792  0.0475  0.2346
29929W        W45060  15.783   8.027  15.901  0.2354  0.0563  0.1987
29930W        W45061  16.633   2.989  16.178  0.1146  0.2565 -0.4340
29931W        W45062   2.901  14.811  15.087 -0.5169  0.1415 -0.0100
29932W        W45063  17.833  16.021  15.436  0.0766  0.5518  0.0363
29933W        W45064   2.948  10.056   2.528  0.1574  0.2145  0.2516
29934W        W45065   1.336   9.399   3.580  0.0670 -0.2682  0.0086
29935W        W45066   3.975   0.214   4.353 -0.0598 -0.2652  0.0536
29936W        W45067  11.430   9.853   5.788 -0.2667 -0.0911  0.2646
29937W        W45068   4.631   2.312  11.922 -0.2775  0.1914 -0.0055
29938W        W45069   2.914   4.431   2.415  0.1748  0.0371  0.1561
29939W        W45070  17.705   0.275   1.925 -0.1002  0.0729  0.0805
29940W        W45071   7.748  13.098  13.172  0.0628  0.1131  0.1316
29941W        W45072  13.972   8.825   2.752 -0.0820  0.0100 -0.2187
29942W        W45073  11.262  11.579  13.591  0.1143 -0.1923 -0.1503
29943W        W45074   8.430   5.596   4.641 -0.0809  0.2090  0.0344
29944W        W45075   6.792   0.860   3.063  0.0213 -0.0091 -0.0221
29945W        W45076   9.898   2.202  14.794 -0.0115 -0.2874 -0.2094
29946W        W45077   7.688  12.375  15.639  0.0043 -0.0561 -0.0032
29947W        W45078  17.157   8.667  13.191  0.4163 -0.1006 -0.0154
29948W        W45079   0.573  15.485   4.175  0.2194  0.0875 -0.0581
29949W        W45080   1.230  12.098  11.048  0.3655  0.1393 -0.1448
29950W        W45081   2.101   4.040  10.562  0.3310  0.0539 -0.3446
29951W        W45082  17.788  14.079   3.188  0.2346 -0.1783  0.2017
29952W        W45083   5.922  14.095   1.843 -0.2508  0.2033  0.0554
29953W        W45084   5.768   7.897  10.772  0.0881 -0.1197  0.3732
29954W        W45085  18.179   1.978   4.668 -0.2278  0.0494 -0.2406
29955W        W45086   9.204  10.388   4.956 -0.0327  0.2014 -0.3505
29956W        W45087   7.606  12.994  11.059 -0.0731 -0.0496 -0.1749
29957W        W45088   4.964   8.257  11.429  0.0786 -0.0933 -0.2076
29958W        W45089   2.528   6.105   3.505 -0.2852 -0.3429 -0.0379
29959W        W45090  13.377  18.079  11.883  0.1705 -0.2108  0.3154
29960W        W45091   9.747  17.508   0.527  0.1635  0.2744 -0.0662
29961W        W45092   7.653   8.106  14.967 -0.3067  0.1305 -0.0137
29962W        W45093   7.652  14.633   2.494  0.0383  0.2225 -0.2929
29963W        W45094   7.898  12.234   1.050  0.1297  0.1562 -0.0442
29964W        W45095  13.377   6.029  16.193  0.3326 -0.2739 -0.0680
29965W        W45096  13.360   2.741   5.464  0.5439  0.3301  0.1377
29966W        W45097  13.107  14.746  12.499 -0.0199  0.0384  0.0961
29967W        W45098   0.934   0.312  11.121 -0.0816 -0.0372 -0.2009
29968W        W45099   9.650   0.039   1.130 -0.0892  0.4268  0.0456
29969W        W45100   8.249   2.310  12.010  0.0596  0.0724 -0.2003
29970W        W45101   0.272   3.050  14.502 -0.1369  0.4594 -0.3032
29971W        W45102   6.842   7.247   1.473 -0.0924 -0.1364  0.0631
29972W        W45103  17.371   2.111  16.230  0.0331  0.0984 -0.0247
29973W        W45104   9.963   0.694   5.363  0.0942  0.0020  0.2504
29974W        W45105   0.307  14.168   1.509 -0.0568 -0.0882  0.3918
29975W        W45106   7.865   2.904  13.403  0.5780  0.0900 -0.2854
29976W        W45107   4.984   2.314  12.592 -0.1211  0.1790 -0.0616
29977W        W45108  15.175   1.500   1.790  0.1311  0.0782 -0.0325
29978W        W45109   9.380   5.133   1.358 -0.0569  0.3515  0.1535
29979W        W45110  17.320  17.770  10.137 -0.0549  0.1394 -0.1824
29980W        W45111   1.866   1.042  14.644 -0.0339  0.0903  0.0376
29981W        W45112  12.513   2.218   5.606 -0.1127 -0.3361 -0.0207
29982W        W45113  11.248  17.743  12.855  0.1193  0.1067  0.2099
29983W        W45114  10.091   7.912  15.224  0.1959  0.2852  0.0307
29984W        W45115   1.032   1.393  15.702 -0.2133  0.1737 -0.1607
29985W        W45116   5.388   2.390  12.964  0.1230  0.2215  0.2418
29986W        W45117   0.940  11.772  15.658 -0.3742 -0.1084 -0.2775
29987W        W45118   4.918   5.495   5.640  0.0491 -0.0880  0.0407
29988W        W45119  11.015  11.094  12.714 -0.0219 -0.0076 -0.5151
29989W        W45120  11.547  11.633   3.663  0.3140  0.1930 -0.1159
29990W        W45121  14.343   1.519  15.801 -0.1293  0.0007  0.3089
29991W        W45122  14.504  16.448   2.850  0.0451  0.0151  0.1271
29992W        W45123  12.528  17.473  12.003 -0.2976 -0.0927  0.0102
29993W        W45124   7.218  11.336   4.025  0.0471  0.1505  0.1454
29994W        W45125  11.817  12.051   3.890  0.0452  0.2541 -0.0296
29995W        W45126  11.205   5.400  15.691 -0.4338  0.1313  0.0526
29996W        W45127  12.147   9.159  14.039 -0.0864 -0.1158  0.2266
29997W        W45128   0.275  10.492  16.145  0.0831  0.1744 -0.1069
29998W        W45129  12.453  14.128   4.793  0.0530  0.0209 -0.2154
29999W        W45130   0.375  16.453   5.768  0.3638  0.1448  0.3340
30000W        W45131  12.208  15.597  12.201 -0.0525  0.2416 -0.1351
30001W        W45132   3.164   3.305  14.451 -0.1657 -0.0500 -0.1564
30002W        W45133   5.162  10.674   0.580 -0.0961 -0.1076 -0.1462
30003W        W45134   9.473   0.252   0.729  0.0409 -0.0920  0.2388
30004W        W45135   7.508   8.588  12.476 -0.3483  0.1915  0.1743
30005W        W45136  16.553   5.325   0.634  0.0099  0.0975  0.0962
30006W        W45137   8.000  11.459   3.056  0.3301 -0.2390 -0.4090
30007W        W45138  17.358   5.887  15.276 -0.3523  0.0459  0.1021
30008W        W45139   9.859   7.472  13.614  0.1470 -0.0050  0.2756
30009W        W45140   1.227  14.796  12.900 -0.2202 -0.0782  0.2145
30010W        W45141  12.047   6.103  10.620 -0.0789  0.1400 -0.1510
30011W        W45142  11.783  13.987   4.414  0.1409 -0.2065  0.3747
30012W        W45143   2.458   9.429  11.930  0.2753 -0.0696  0.0916
30013W        W45144   6.760   2.053   4.673  0.1315 -0.1459  0.0317
30014W        W45145   5.250   1.571  13.528  0.4469  0.0425  0.1611
30015W        W45146   6.162   7.212   3.810  0.3344  0.0083  0.1336
30016W        W45147   0.708   4.141  15.324  0.0599  0.0821  0.3224
30017W        W45148  15.706  14.200  13.713  0.2266 -0.2114  0.0492
30018W        W45149  16.140   2.375   0.588 -0.1141 -0.0697  0.1774
30019W        W45150  14.428  16.236   3.545  0.3487  0.0581  0.0237
30020W        W45151   5.960  18.057   1.395  0.2943 -0.0388  0.1539
30021W        W45152  14.706  12.031  14.684  0.0672 -0.0777 -0.3794
30022W        W45153   5.715  16.905  14.493  0.0748  0.0332  0.1801
30023W        W45154   7.562  10.339  13.777  0.2780  0.3656 -0.0265
30024W        W45155  17.379  16.191   3.719 -0.1653 -0.0506 -0.2197
30025W        W45156   4.167   6.034   4.166  0.0264 -0.1749  0.0471
30026W        W45157   5.786   7.883  13.331 -0.0865  0.1118  0.1609
30027W        W45158   1.507   0.534   1.310  0.0329  0.2925 -0.3035
30028W        W45159   2.332  12.564  14.000  0.0783  0.0266  0.1779
30029W        W45160   5.368  10.236   3.055 -0.1437 -0.0447  0.0825
30030W        W45161  17.114  16.433   5.399 -0.1531  0.0766  0.3320
30031W        W45162  17.108   5.161  11.477  0.2720  0.0185 -0.0117
30032W        W45163  16.335   8.547   5.457  0.2211 -0.2308  0.1320
30033W        W45164   7.370   8.538  14.052 -0.1024 -0.0247  0.2498
30034W        W45165  12.107  12.707  11.857 -0.0592 -0.2565  0.0163
30035W        W45166   8.752   0.959  15.278 -0.0036  0.1751 -0.0362
30036W        W45167   6.425  10.969   2.985  0.0285  0.1609  0.1520
30037W        W45168   7.217   9.607   0.165  0.0171  0.2416 -0.0962
30038W        W45169  16.335   4.671  13.501 -0.0933  0.0737 -0.0703
30039W        W45170   1.734  16.302  10.953  0.3463  0.1638  0.1214
30040W        W45171   1.613   3.297   4.050 -0.1109  0.6273 -0.0767
30041W        W45172  17.650  11.116  10.681  0.2094 -0.0512  0.1033
30042W        W45173   5.659   2.466   0.642  0.2959 -0.0800 -0.0274
30043W        W45174   3.438   3.120  13.177  0.1902  0.0334  0.0808
30044W        W45175  18.002   4.796  14.766  0.1412  0.0948 -0.0783
30045W        W45176  15.225   9.494   5.057  0.2859 -0.1760  0.1822
30046W        W45177   4.568   0.002   1.247 -0.1207  0.0866 -0.2280
30047W        W45178  15.000   0.621  15.065  0.0890  0.1147  0.3346
30048W        W45179   1.499  13.346   3.382  0.0321 -0.0452  0.1136
30049W        W45180  17.914   6.615  13.849  0.0743 -0.0887  0.0342
30050W        W45181  10.021  17.701   4.272  0.0615  0.0335 -0.3659
30051W        W45182  14.391   7.983   4.718  0.2751  0.2458  0.1540
30052W        W45183  15.327  16.516   0.515  0.0375 -0.0891 -0.3365
30053W        W45184  14.987   2.373  15.016  0.1904  0.0848  0.2058
30054W        W45185  11.542  17.575   6.107  0.1481 -0.0943 -0.1852
30055W        W45186  11.267  16.077   4.044  0.1293  0.1802 -0.1298
30056W        W45187  14.987  10.699   1.839 -0.1100  0.4957  0.0732
30057W        W45188   6.006  15.157   3.441  0.3633  0.1800 -0.1148
30058W        W45189  10.284  11.707  12.858  0.0174 -0.0116  0.1286
30059W        W45190  10.214   8.838   0.523 -0.0220  0.0072 -0.1307
30060W        W45191   8.175  16.539  11.008  0.1039  0.2418 -0.0049
30061W        W45192  16.852   9.478   4.067  0.1964  0.0221  0.0725
30062W        W45193   8.132  10.293  15.132 -0.1020 -0.0137  0.4086
30063W        W45194   8.992   6.041  15.272 -0.0448 -0.2234 -0.0080
30064W        W45195  15.360  14.604  13.583 -0.1209 -0.2147  0.0250
30065W        W45196   9.510   3.704  13.014 -0.1688 -0.0556  0.1084
30066W        W45197   8.402  12.459  11.761  0.0838 -0.2302 -0.0871
30067W        W45198   9.877   5.992  13.677  0.6227 -0.4006 -0.1056
30068W        W45199   1.549  15.216  15.509  0.1355  0.1974  0.2674
30069W        W45200  17.194  17.119  15.719 -0.0106 -0.1430 -0.1491
30070W        W45201  15.836   9.078   1.469 -0.0678 -0.0397 -0.0621
30071W        W45202  12.616  11.850   0.557 -0.1721 -0.3149 -0.1122
30072W        W45203   0.577   0.833   0.473  0.2674 -0.0134  0.2430
30073W        W45204   3.019   5.323   6.031  0.3154 -0.0795 -0.0095
30074W        W45205  11.446   9.687   2.083 -0.2185  0.1662  0.0907
30075W        W45206  16.155  12.238   3.104  0.3195 -0.0805  0.0250
30076W        W45207   1.137   9.113  15.989 -0.1188  0.2231  0.2484
30077W        W45208   8.521  14.684   4.990 -0.0261  0.2748  0.0058
30078W        W45209   3.276  12.149  14.671 -0.1563 -0.2389 -0.0292
30079W        W45210  17.368   8.261   1.385 -0.0314  0.0550 -0.2391
30080W        W45211   5.699  15.090  11.711  0.2560  0.1157 -0.2026
30081W        W45212   3.472   7.407  13.834 -0.3502 -0.1338  0.1119
30082W        W45213   8.116  10.246  13.813  0.0891 -0.1120 -0.0873
30083W        W45214  12.603   0.770   5.094 -0.0527  0.3267  0.3494
30084W        W45215   7.327   5.290  14.579 -0.0035  0.3899  0.0283
30085W        W45216  16.204  13.385   5.602  0.1749  0.0116  0.0628
30086W        W45217   7.736   3.836  11.370  0.2395 -0.1818 -0.1044
30087W        W45218  13.058   7.811   6.286  0.0787 -0.2975 -0.4464
30088W        W45219   8.590   2.884   1.674 -0.0090 -0.0927  0.1456
30089W        W45220  17.434  15.012   5.219 -0.1483  0.1729 -0.1142
30090W        W45221  14.961  17.771   1.992  0.3112  0.0771  0.1737
30091W        W45222   2.028  13.363   2.520 -0.1078  0.0317 -0.1747
30092W        W45223   9.772   8.966   4.628 -0.2853  0.0214 -0.0892
30093W        W45224  16.115  15.566   4.582 -0.0140 -0.2752  0.1774
30094W        W45225  16.822   7.516   1.494  0.1740  0.0884 -0.4637
30095W        W45226   1.697  10.699  14.220  0.0275  0.0484 -0.0595
30096W        W45227   3.311   1.954  15.406 -0.1309 -0.4026  0.0079
30097W        W45228  12.312  16.123   4.342 -0.1195  0.1874  0.1510
30098W        W45229  10.603  13.365   4.656 -0.0418 -0.1442 -0.0960
30099W        W45230  12.102  17.135  14.765 -0.3123 -0.0957  0.0853
30100W        W45231   2.143  13.277   4.095  0.0064  0.0241  0.1812
30101W        W45232  16.416  16.007   4.295 -0.2316  0.3018 -0.0269
30102W        W45233   1.061  12.566   4.415  0.1396  0.0864 -0.0725
30103W        W45234  17.175   7.329  16.183  0.3528  0.0446  0.0447
30104W        W45235   7.820   8.551   1.993  0.1508 -0.1139  0.1547
30105W        W45236   2.541   9.081  14.679 -0.2426 -0.1144 -0.0703
30106W        W45237   8.995  17.568  12.912 -0.0989 -0.1951 -0.2547
30107W        W45238  11.006  17.695  10.306 -0.2704  0.0054 -0.0392
30108W        W45239  12.146   2.144   4.163 -0.0514  0.2488 -0.3705
30109W        W45240   3.128  10.919  13.806 -0.0237 -0.0230 -0.0290
30110W        W45241   3.858  16.667   3.913 -0.1691 -0.0684  0.0752
30111W        W45242   5.204  17.150  16.025 -0.1126 -0.0955  0.0608
30112W        W45243  13.028  12.671  11.224 -0.1520 -0.0766  0.1895
30113W        W45244   6.643   5.414   1.641  0.1115  0.1818  0.1226
30114W        W45245   8.320   6.538  11.511  0.1411 -0.0933 -0.0806
30115W        W45246   0.106  12.270   6.327 -0.4206  0.0055  0.0060
30116W        W45247   6.366  13.958  11.296  0.0923  0.0566  0.4296
30117W        W45248  13.825   5.773   4.725  0.3940  0.1965 -0.0646
30118W        W45249   2.572  12.044   1.678  0.0691 -0.1275  0.0082
30119W        W45250   9.714   1.307  15.207 -0.2899 -0.1777  0.2926
30120W        W45251  17.611   8.283  11.758 -0.2885  0.0276 -0.0426
30121W        W45252  17.717  10.833   3.655 -0.3019  0.0563  0.0035
30122W        W45253   3.496  11.610   2.296 -0.1408 -0.0171  0.0122
30123W        W45254  13.505   1.356  14.221 -0.1880  0.0500  0.0757
30124W        W45255  14.064   8.231   5.483  0.2661  0.2627  0.0606
30125W        W45256   0.030   6.487  15.289  0.2377  0.1047 -0.2434
30126W        W45257  12.675   9.566  10.947 -0.2181 -0.1386  0.4818
30127W        W45258  11.727   4.696   2.805  0.0213  0.1997  0.2639
30128W        W45259   2.705  15.100  10.690 -0.1108  0.1783 -0.2141
30129W        W45260  14.216   7.000  12.771  0.2362 -0.1833  0.0742
30130W        W45261  11.129   8.335  11.794  0.3072 -0.1267 -0.0366
30131W        W45262  17.079   8.367   3.108  0.0587 -0.1858 -0.1741
30132W        W45263   7.918   3.496  12.064  0.0629  0.3486  0.0257
30133W        W45264  14.578  17.979   5.518  0.1266  0.1158 -0.1365
30134W        W45265   2.331  17.867  10.730 -0.0037  0.0312  0.0531
30135W        W45266  15.615   9.922  13.875 -0.0835  0.1289 -0.0667
30136W        W45267   0.631  13.565  12.967  0.0448  0.1732 -0.1233
30137W        W45268   3.335  17.433   3.640 -0.1127  0.2732 -0.1271
30138W        W45269  12.937   4.898   6.367  0.1349 -0.1883  0.0214
30139W        W45270  13.051   2.883   2.172  0.0387  0.0721 -0.0532
30140W        W45271   3.262   6.166  13.509 -0.2141  0.0594  0.0732
30141W        W45272  13.655   0.324  11.185  0.0565 -0.0561 -0.2612
30142W        W45273   1.928   5.498  13.176 -0.1291  0.3456  0.1158
30143W        W45274   1.113  17.463  11.872  0.1631 -0.0668 -0.2735
30144W        W45275   0.828  16.577   5.457  0.1091 -0.1576 -0.0019
30145W        W45276  16.491  14.195  14.230 -0.0663 -0.0183 -0.1356
30146W        W45277   6.831  12.604   1.072  0.0919  0.2256  0.0096
30147W        W45278   5.625  13.912   4.925 -0.0999 -0.0332 -0.2156
30148W        W45279  16.148   3.767   4.456  0.2382  0.1359 -0.0168
30149W        W45280   8.845   0.682  11.555 -0.0302 -0.0400  0.1445
30150W        W45281  16.876   0.813  10.550 -0.0771  0.0441  0.3353
30151W        W45282  14.089  10.322  12.816 -0.1596 -0.1576  0.0727
30152W        W45283   2.609  12.387  12.474  0.2728 -0.2757 -0.3278
30153W        W45284  12.142  17.458   0.175  0.1576 -0.2245 -0.2404
30154W        W45285  11.474   3.110  15.950 -0.0580  0.0737  0.2194
30155W        W45286   2.470   8.311   1.170  0.0405  0.2093 -0.2744
30156W        W45287  17.451  16.056  11.805  0.0396  0.2702  0.2895
30157W        W45288   4.670  17.142  11.574  0.0452 -0.0520 -0.1083
30158W        W45289  13.794   1.011   1.654 -0.2780  0.1981 -0.1027
30159W        W45290  17.518   6.356   5.392 -0.1822 -0.1740  0.2114
30160W        W45291  16.192   6.445   2.881 -0.1391 -0.1587  0.4122
30161W        W45292   0.854   2.115   4.151 -0.2172  0.0062 -0.0238
30162W        W45293  11.837   5.791   3.681 -0.1113 -0.1142 -0.5219
30163W        W45294  11.784   1.461   4.650  0.0650  0.1837  0.1715
30164W        W45295   6.546  15.363  15.557  0.1856 -0.1994  0.0213
30165W        W45296  13.267   5.453  14.383  0.2912  0.1021 -0.1380
30166W        W45297  15.638  14.361  15.386  0.1333 -0.0601  0.0866
30167W        W45298   4.771   1.053   1.784  0.0641 -0.0379 -0.2478
30168W        W45299  13.043   4.188   2.693 -0.1370 -0.2925 -0.0434
30169W        W45300   2.312  13.075   0.872  0.0010 -0.1121  0.1178
30170W        W45301  17.875   4.775   0.503  0.0638 -0.0775 -0.2172
30171W        W45302  13.792   5.647   4.243 -0.2045 -0.0023  0.2070
30172W        W45303  12.286   2.358  15.361 -0.1185 -0.1157  0.0879
30173W        W45304  16.701  14.024   2.774  0.3076  0.0956  0.0477
30174W        W45305  14.515   4.472   3.311 -0.1373 -0.1994  0.2668
30175W        W45306   8.782   0.023  14.791  0.0455  0.0989 -0.1602
30176W        W45307   5.558   2.520  14.906 -0.0785 -0.4108  0.3231
30177W        W45308  14.243  12.683   4.308  0.1683  0.1618 -0.1630
30178W        W45309   3.638  10.442  13.591 -0.0715  0.2531 -0.0223
30179W        W45310   0.197  17.613  12.928 -0.3519 -0.2851 -0.0352
30180W        W45311  14.643  10.756   1.484 -0.0981 -0.2963 -0.1913
30181W        W45312   3.039   1.396  11.075  0.0648 -0.2255  0.2582
30182W        W45313  16.551  14.639  13.666  0.0486 -0.0388  0.0765
30183W        W45314   3.024  12.113  14.164 -0.0801  0.2280  0.3108
30184W        W45315   5.082   7.734  11.283  0.1361  0.2165  0.3524
30185W        W45316   2.156  14.253  15.361 -0.3987 -0.0223  0.2391
30186W        W45317  14.743  12.456   4.430 -0.0063 -0.1994 -0.0673
30187W        W45318  12.445   0.890  15.660  0.1069  0.3878 -0.0001
30188W        W45319   3.054  11.726   3.702 -0.0608 -0.2653  0.1037
30189W        W45320   8.600  12.589  14.114  0.0315  0.0734 -0.6268
30190W        W45321  16.239  15.200  14.555  0.2508 -0.0325  0.0604
30191W        W45322   9.797  10.448   4.062 -0.2641 -0.0207  0.2739
30192W        W45323  17.516   4.902  12.957 -0.1093 -0.1441 -0.0781
30193W        W45324  11.092   7.178  15.285 -0.3627  0.2361  0.0206
30194W        W45325  15.725   5.158  11.769  0.1568 -0.0746  0.0892
30195W        W45326  15.126   2.384  12.496  0.0812 -0.0754 -0.2453
30196W        W45327   4.877   2.346   3.763  0.1836  0.0969 -0.1701
30197W        W45328   5.397  14.689  15.342 -0.1814 -0.1836 -0.3068
30198W        W45329  12.579   4.351  16.052 -0.1356  0.0796  0.2026
30199W        W45330   0.669   4.499   4.854  0.3337  0.0902 -0.2234
30200W        W45331  16.622  13.870   0.559 -0.1649  0.2713  0.0424
30201W        W45332  17.483   6.785  12.368 -0.3110  0.1705 -0.1471
30202W        W45333  11.914   6.957   2.421 -0.0244 -0.1074 -0.0030
30203W        W45334  13.466   5.860   3.225  0.2529 -0.1969  0.2768
30204W        W45335   2.589   2.906  13.674  0.0165 -0.0108 -0.1200
30205W        W45336  11.232   3.218  13.384  0.0806 -0.0910 -0.2042
30206W        W45337  14.109  11.246  15.978 -0.0034 -0.0732  0.0063
30207W        W45338   1.431   2.245   2.110 -0.1776  0.2789 -0.2404
30208W        W45339   7.671  11.033   1.192 -0.3491  0.0101 -0.0184
30209W        W45340  16.046  13.000  15.349 -0.0036  0.0777 -0.2547
30210W        W45341   4.202  14.500  15.216  0.1339 -0.1804 -0.0815
30211W        W45342   6.489   1.279   1.499 -0.2262  0.1390  0.0167
30212W        W45343   0.734  15.341  11.253 -0.0687  0.0915 -0.3005
30213W        W45344   7.439  15.648   0.336 -0.2101  0.2403  0.0195
30214W        W45345   4.974  17.110  15.217 -0.0065  0.1047  0.0557
30215W        W45346   8.796   3.822   1.572 -0.0318 -0.0102 -0.0583
30216W        W45347   7.079   5.157   4.789 -0.3669  0.0841 -0.0284
30217W        W45348   0.019  12.338   5.076 -0.3338 -0.2818 -0.1052
30218W        W45349  15.127   3.626  16.219  0.3357 -0.0063  0.0712
30219W        W45350  13.559  15.553  12.722  0.1605 -0.1523 -0.0808
30220W        W45351  12.867   8.690   6.125  0.0890  0.2380 -0.1084
30221W        W45352  15.395  10.644  11.090 -0.1937 -0.0042 -0.0870
30222W        W45353   3.985   6.609   5.201 -0.0395 -0.1847 -0.1484
30223W        W45354   8.178  15.461  14.040  0.1289 -0.1096 -0.1738
30224W        W45355   4.102  14.409   4.440 -0.3148  0.0018 -0.0938
30225W        W45356  13.240  11.052   0.300  0.2693 -0.1096 -0.0902
30226W        W45357  14.750  11.798   1.280 -0.4001 -0.0202  0.2204
30227W        W45358  11.080   8.569  10.210 -0.0126 -0.0876  0.3353
30228W        W45359   6.480   5.849   9.996 -0.1806  0.1738 -0.0656
30229W        W45360   8.459  16.423  14.308 -0.1130  0.3085  0.0925
30230W        W45361  10.600  12.517   1.642  0.0350  0.0881 -0.0990
30231W        W45362   6.960  12.661  12.190  0.1896 -0.0494  0.2649
30232W        W45363   2.644   5.031  14.630 -0.1853 -0.1787  0.0639
30233W        W45364   8.275   5.885  13.193 -0.2046 -0.1284  0.0104
30234W        W45365   9.420   4.485  10.378 -0.0655 -0.1741  0.1197
30235W        W45366  12.814   3.680  13.581  0.1063  0.2711 -0.2640
30236W        W45367   5.100  14.574  12.563  0.1047 -0.2235  0.0701
30237W        W45368   3.137  14.353  15.440  0.2277  0.2309  0.0688
30238W        W45369  13.493  17.896  15.293  0.0590 -0.0140  0.1278
30239W        W45370   0.562  14.873   1.314 -0.0186 -0.0791  0.2484
30240W        W45371   6.634  18.004  11.730 -0.3077 -0.0627  0.0301
30241W        W45372   7.825   2.903  11.373 -0.1793 -0.1074  0.2065
30242W        W45373  12.978  10.417  13.074 -0.5384 -0.4139  0.1143
30243W        W45374   6.321  10.933   3.933  0.0156  0.0831 -0.0411
30244W        W45375  16.598   6.177   4.674  0.2524 -0.0569  0.1968
30245W        W45376  16.219   5.911   5.434 -0.2761 -0.0140  0.2729
30246W        W45377  14.804   6.915  11.960  0.0013  0.0857  0.1018
30247W        W45378  15.814   0.018   0.455 -0.1435  0.4175  0.2433
30248W        W45379   8.461  17.880   9.508  0.2293  0.0625  0.0321
30249W        W45380  17.701   8.138  10.857 -0.1773  0.1143 -0.4316
30250W        W45381  11.281   6.888  12.446 -0.2658 -0.1615  0.1172
30251W        W45382   7.137   6.420  15.116 -0.0570 -0.0113  0.2587
30252W        W45383  14.884  10.385  11.871  0.0127  0.1281  0.2591
30253W        W45384  14.657   9.346   5.045  0.3042 -0.1726 -0.2625
30254W        W45385   1.734   6.983   3.308 -0.0016  0.5470 -0.0973
30255W        W45386   9.308  16.848  11.753 -0.1543 -0.2480 -0.0006
30256W        W45387  17.943  10.064   1.381  0.0300  0.0191 -0.1830
30257W        W45388   0.651   6.896  15.759  0.1301 -0.1800  0.0942
30258W        W45389  10.688   7.486   1.967  0.2539  0.0818  0.1490
30259W        W45390  14.990   3.323  14.881 -0.1523  0.0965 -0.0129
30260W        W45391   2.301   2.630  11.488 -0.1500  0.1001 -0.2471
30261W        W45392   4.675   0.617   0.486  0.0444  0.1426  0.3006
30262W        W45393   0.873  17.697   2.610 -0.1908 -0.3138  0.0203
30263W        W45394  11.178  17.231   2.027  0.0269  0.0657 -0.2118
30264W        W45395  14.118  17.908   3.863  0.0905  0.2132 -0.0768
30265W        W45396   2.337  12.962   2.307 -0.0330 -0.0403  0.1711
30266W        W45397   1.661  16.318   1.709 -0.0926  0.3747  0.1060
30267W        W45398  13.019  11.391  13.706 -0.2287 -0.0933  0.1462
30268W        W45399   0.121  15.730   3.331 -0.2304 -0.0677 -0.1429
30269W        W45400   5.400  17.981  13.878 -0.1857  0.1613 -0.0577
30270W        W45401  15.165   9.633  13.945  0.0941  0.1387  0.0135
30271W        W45402   6.101   0.131   4.854 -0.0399  0.0288 -0.3458
30272W        W45403   9.054   1.375   4.237  0.0102  0.3184  0.0215
30273W        W45404   4.356   2.959   2.960 -0.5184  0.1963  0.0402
30274W        W45405   5.230  13.087  12.578  0.2286 -0.0535 -0.0672
30275W        W45406  10.484   7.083  12.199 -0.2898  0.0308 -0.1137
30276W        W45407  18.147  10.804   5.816  0.3044  0.0719  0.1566
30277W        W45408   7.660  11.051  15.395 -0.3227 -0.1092  0.3950
30278W        W45409   0.570   8.174   4.751  0.0471  0.1746 -0.2008
30279W        W45410   7.602  15.462   4.276 -0.2395  0.0845  0.0455
30280W        W45411  11.839  14.744   2.216  0.2644 -0.1514  0.0840
30281W        W45412   7.347  11.440   5.430 -0.2393 -0.0548 -0.0240
30282W        W45413  10.779  12.056  13.542 -0.1736 -0.0924 -0.1521
30283W        W45414   4.751  10.778  13.022 -0.3168 -0.2209  0.1733
30284W        W45415  18.183  12.526   2.534  0.3615 -0.1509 -0.1407
30285W        W45416   9.811  15.979   3.806 -0.1208 -0.1662  0.2841
30286W        W45417  10.356   1.546  15.103 -0.1052  0.1172  0.0426
30287W        W45418   2.581   3.246  10.914  0.1314 -0.1748 -0.1807
30288W        W45419   0.912  12.235   5.134  0.0299  0.1166  0.1012
30289W        W45420   2.132   2.983  14.564 -0.0817 -0.1504  0.2093
30290W        W45421  10.933   6.578  13.507  0.2211 -0.1800 -0.1052
30291W        W45422   0.519  17.858  11.251  0.2933  0.1326 -0.1201
30292W        W45423  11.062  11.377  12.334  0.0534 -0.3094 -0.3023
30293W        W45424  11.925  13.094  10.907  0.2798  0.0351 -0.1718
30294W        W45425  13.803   2.796   3.171 -0.0558 -0.0724  0.1834
30295W        W45426   7.731   4.108   2.132  0.2022  0.1211 -0.0115
30296W        W45427  15.320   9.353   3.718  0.0152 -0.0323  0.3165
30297W        W45428   3.292   7.567  14.717 -0.2261  0.0611 -0.0088
30298W        W45429  15.108   8.179   5.032 -0.1210  0.2505  0.1358
30299W        W45430   8.799  17.860  10.793 -0.3139 -0.2877 -0.3152
30300W        W45431  11.488  15.515  14.860 -0.1619  0.1195 -0.0783
30301W        W45432  10.340   0.404   2.925  0.1021  0.0026 -0.0717
30302W        W45433   3.442   4.771  14.094  0.0220  0.0599 -0.1342
30303W        W45434  11.936   4.231   1.838  0.3228  0.0725  0.1933
30304W        W45435  18.073   1.962   6.058 -0.1935  0.0943  0.0948
30305W        W45436   3.016   3.950   1.365 -0.1365 -0.1999  0.1168
30306W        W45437  14.500   2.482  15.062  0.0914 -0.1135 -0.2090
30307W        W45438   4.146  18.178   0.310  0.0997 -0.0065 -0.2831
30308W        W45439   6.106   4.516  13.094  0.1059  0.2269  0.0376
30309W        W45440  10.176   5.525   3.127  0.2894  0.0355 -0.3087
30310W        W45441  16.710  14.946   2.645 -0.2360  0.1387 -0.2474
30311W        W45442  11.514   7.645  13.364  0.1319  0.2054 -0.2022
30312W        W45443   3.511  10.345   0.980  0.3873 -0.1190  0.1992
30313W        W45444  13.165  15.823  12.492  0.1243  0.4402  0.0246
30314W        W45445  13.924  12.280  11.445  0.5104 -0.3033  0.1245
30315W        W45446   6.065  18.101   3.590 -0.3854  0.1655 -0.0419
30316W        W45447  10.852   0.728   0.597  0.0509 -0.2851 -0.1498
30317W        W45448  15.461  17.044  13.772 -0.0996 -0.2364  0.1013
30318W        W45449  15.199   2.148   0.063  0.1662  0.3060 -0.0350
30319W        W45450  16.935   5.208   3.794 -0.1519  0.0395 -0.1135
30320W        W45451  16.917  13.706  11.849 -0.0353 -0.2650 -0.0994
30321W        W45452   1.975  10.454   0.501  0.0897 -0.0448  0.1073
30322W        W45453   8.497  16.979  14.526  0.0791  0.1188 -0.0002
30323W        W45454  14.843  16.913  14.503 -0.0718 -0.3285 -0.2465
30324W        W45455  15.691   9.915   1.797 -0.3206  0.0488 -0.1069
30325W        W45456  12.801   3.118  13.073  0.0327 -0.1885 -0.0626
30326W        W45457  12.473   2.477   0.499  0.0465 -0.4548 -0.1339
30327W        W45458   7.003   6.668   3.590  0.1921 -0.1389 -0.1466
30328W        W45459   9.286  14.828  15.271  0.1043 -0.2942  0.0834
30329W        W45460   5.884  12.179  13.631 -0.3280  0.0039  0.2300
30330W        W45461   7.130   1.046  15.410 -0.1048  0.3763  0.2582
30331W        W45462   9.357   8.291   1.225  0.1332 -0.2682 -0.0960
30332W        W45463   4.859   3.445  12.079 -0.1116  0.3150 -0.0007
30333W        W45464  17.795   5.699   6.337  0.0605  0.0645  0.1209
30334W        W45465   2.971  13.272   4.445  0.3544  0.1887  0.0391
30335W        W45466   1.939   6.753  15.807  0.2582 -0.1617 -0.3414
30336W        W45467  14.635  12.704  12.373 -0.0168 -0.0069  0.2414
30337W        W45468  14.959  11.094   0.138 -0.1685  0.1445  0.2495
30338W        W45469   6.947  14.772   1.369  0.2697  0.0604 -0.0908
30339W        W45470   7.451   1.128  15.740  0.0487  0.1184 -0.0384
30340W        W45471   6.494   3.450  10.832 -0.1992  0.2758 -0.1914
30341W        W45472   0.257   6.416   2.458  0.1032  0.1116  0.0005
30342W        W45473  16.770   1.537   4.226 -0.0654 -0.0822  0.3152
30343W        W45474  10.857   8.927   3.203 -0.0364 -0.0632 -0.2572
30344W        W45475  13.477   7.617   1.699  0.0436  0.2599 -0.1025
30345W        W45476   7.384   8.726   0.372 -0.1402 -0.2829 -0.2039
30346W        W45477   9.807  17.088   1.875 -0.0370 -0.0074 -0.1970
30347W        W45478  16.048  13.796   1.541 -0.0126 -0.2902  0.0725
30348W        W45479   0.853   7.554  12.241  0.1128  0.0988 -0.3398
30349W        W45480  14.288   7.905  15.815 -0.2128  0.0469 -0.1454
30350W        W45481   9.869  18.026  13.417  0.1699 -0.0762  0.1448
30351W        W45482  15.455  14.797   3.452  0.0942 -0.2153 -0.1242
30352W        W45483  13.477   9.241  14.757 -0.2310  0.4240  0.2513
30353W        W45484  15.886   7.589  14.703 -0.1995 -0.0922 -0.0158
30354W        W45485  13.718  13.036   0.570  0.0994  0.2083 -0.0829
30355W        W45486   9.580  15.642   1.857 -0.1933 -0.2008  0.2056
30356W        W45487   5.999   0.245   4.315  0.1397  0.2098 -0.0261
30357W        W45488   5.010   9.659  13.605  0.3030  0.1314 -0.3599
30358W        W45489  17.892   4.098  11.837  0.1441  0.0436  0.2269
30359W        W45490   4.994   9.547  14.737 -0.0315  0.0549  0.2715
30360W        W45491  14.322   8.780  15.300 -0.3472  0.1355 -0.4890
30361W        W45492  17.815   1.510  13.472 -0.1944 -0.1864 -0.2066
30362W        W45493  17.118  12.615   2.296  0.0300  0.1099  0.3925
30363W        W45494  13.560  11.489  13.587 -0.1362 -0.3169  0.0963
30364W        W45495  12.562  14.200  14.205 -0.1362  0.1692  0.2170
30365W        W45496   0.097   5.510  15.198 -0.1307 -0.2772 -0.0424
30366W        W45497   1.926  13.198  15.912 -0.0791 -0.0992 -0.2325
30367W        W45498   7.195  16.053  13.375  0.0650  0.1056  0.0967
30368W        W45499   2.635   0.663   3.544 -0.0730  0.0354  0.0562
30369W        W45500   5.483  13.777  13.547  0.1954  0.1685  0.2706
30370W        W45501   1.891   6.631  14.147  0.0619 -0.0129 -0.0112
30371W        W45502   0.722  10.664   2.949 -0.5341  0.1846 -0.0175
30372W        W45503   1.445  13.499  13.161 -0.4250  0.0755  0.1272
30373W        W45504  13.440   7.029   5.842  0.2790  0.1406  0.0746
30374W        W45505  15.802   5.044   1.327 -0.1119  0.3255 -0.1668
30375W        W45506  15.397   2.469   3.832  0.1583  0.1199  0.1036
30376W        W45507  16.157  14.244   5.068 -0.0507 -0.0664  0.2205
30377W        W45508  12.067  12.602   2.090 -0.1733 -0.2367  0.0615
30378W        W45509  17.606   9.201   1.864 -0.1286  0.1339  0.0245
30379W        W45510  14.330   8.241  15.231  0.0167  0.0533  0.0066
30380W        W45511  16.698   7.318  14.095  0.1794  0.0376 -0.2740
30381W        W45512  11.910   1.299   1.061 -0.1006 -0.1128  0.4723
30382W        W45513   7.573  12.867  12.779 -0.0193 -0.4668 -0.1688
30383W        W45514  14.677   1.309  13.645  0.0666  0.1118 -0.0422
30384W        W45515  11.396  10.313  15.045  0.0225 -0.0921  0.0508
30385W        W45516  16.683   3.928  13.698 -0.2130  0.1397  0.1021
30386W        W45517  14.183   2.184   2.018 -0.2803 -0.0025  0.0572
30387W        W45518   8.030   1.618   4.332 -0.3050 -0.1435 -0.0559
30388W        W45519  11.560  10.425   4.426 -0.0690 -0.1030  0.0540
30389W        W45520   1.100   3.901  13.709  0.0451  0.3655  0.1540
30390W        W45521   8.764   5.025   5.451 -0.1403 -0.0597 -0.0269
30391W        W45522   1.819   4.357  12.420  0.1080 -0.0120  0.0994
30392W        W45523   0.142   7.026  12.043  0.3495 -0.2646 -0.0128
30393W        W45524  15.779   4.273  11.058  0.0898  0.0824 -0.2433
30394W        W45525  14.885   3.738   0.373  0.0884  0.3227 -0.2422
30395W        W45526  15.389   1.962  14.109  0.1898 -0.1568  0.1822
30396W        W45527  16.323   8.926  14.478 -0.2030 -0.2711 -0.3456
30397W        W45528  10.137  10.006   3.017  0.1953 -0.1690  0.0531
30398W        W45529  15.224   5.580   4.533 -0.3383  0.2469  0.1435
30399W        W45530  12.291   6.397  13.676 -0.1840 -0.2787 -0.1276
30400W        W45531  11.007   6.310   4.714  0.0836  0.0286  0.0951
30401W        W45532  17.122   0.383  14.961  0.2090 -0.0008  0.0567
30402W        W45533  10.378   7.375  10.821 -0.0571  0.1849 -0.0596
30403W        W45534  14.778   7.339   2.036 -0.1543 -0.0559  0.1898
30404W        W45535  12.691   2.864   4.439 -0.1629 -0.1216  0.0353
30405W        W45536  12.494   4.997  14.651  0.3090  0.0780 -0.0447
30406W        W45537  13.120  11.487   2.187  0.1173  0.1866 -0.0555
30407W        W45538  11.504   0.006  11.923 -0.0528 -0.1250  0.1134
30408W        W45539   1.165  15.260  11.979 -0.0547 -0.0837 -0.0772
30409W        W45540   9.649   0.744   4.911 -0.0787  0.0104  0.1034
30410W        W45541   1.119   9.178  12.552  0.2200  0.3166  0.0514
30411W        W45542   5.713  16.652  11.296  0.2515 -0.0451  0.0608
30412W        W45543  14.625   4.854  11.278 -0.0924 -0.0454 -0.1651
30413W        W45544   8.026   5.253   4.538  0.0149 -0.1732 -0.1037
30414W        W45545   6.768   7.750  11.817  0.0477  0.0603 -0.1216
30415W        W45546   5.660  12.488  13.350  0.2433  0.0319 -0.1990
30416W        W45547  15.091   3.321   1.760  0.2975  0.1237 -0.0670
30417W        W45548  15.860   3.759  13.473  0.1702 -0.0614  0.1107
30418W        W45549  17.469   9.534   4.866 -0.0399 -0.0554  0.2374
30419W        W45550   3.565  13.411   0.618  0.3404 -0.1659  0.2247
30420W        W45551   1.014   3.954   1.157  0.1997 -0.2061 -0.0173
30421W        W45552   5.280  13.737  11.094 -0.0476  0.1897  0.0416
30422W        W45553  17.626  11.979   3.153  0.0846  0.0820 -0.1023
30423W        W45554  13.458  14.434  12.174  0.0014 -0.6957 -0.2700
30424W        W45555  11.252   4.672   2.674  0.2429 -0.2659  0.3223
30425W        W45556  11.538  14.314  11.024 -0.0065  0.0286  0.0007
30426W        W45557  11.772  14.053  13.106 -0.0452 -0.0310  0.3136
30427W        W45558  14.393   6.661   3.319  0.0470 -0.0024 -0.5048
30428W        W45559   1.544   8.456   2.217 -0.2037  0.3304 -0.1234
30429W        W45560  10.578  13.844   0.107  0.2648  0.0367  0.2031
30430W        W45561   2.484   2.349   4.522  0.0749 -0.2617 -0.1557
30431W        W45562  14.586   7.313  11.102  0.1683 -0.1871  0.2884
30432W        W45563  11.957   8.971   0.316 -0.0899 -0.2014 -0.0007
30433W        W45564   3.330   1.190  11.980 -0.0391  0.0680  0.0400
30434W        W45565   5.524  12.172  15.268 -0.0887  0.1769  0.3219
30435W        W45566  14.651   6.003   6.595  0.0115  0.3107 -0.1665
30436W        W45567   9.945   5.393   0.079 -0.0538  0.0135 -0.1053
30437W        W45568   4.792  14.607  14.529  0.4854 -0.0419 -0.4686
30438W        W45569  10.265   9.010  13.711 -0.0146 -0.1727 -0.1718
30439W        W45570  11.949  16.376   5.528 -0.1447  0.0269 -0.0125
30440W        W45571  15.311   1.633  12.789  0.2508 -0.0147 -0.0029
30441W        W45572   6.676  11.563  13.413 -0.0201 -0.0609 -0.0099
30442W        W45573  12.022   6.173   4.137  0.1780 -0.0721 -0.0356
30443W        W45574   6.642  14.121   5.349  0.2525  0.0193 -0.2636
30444W        W45575  12.670   1.258   4.026  0.0310 -0.2105 -0.0924
30445W        W45576  17.207  15.889  15.827  0.2542 -0.1152  0.0831
30446W        W45577  13.632   5.358  13.590  0.3828  0.1096  0.0232
30447W        W45578   0.879  17.018  12.851  0.3783 -0.1453 -0.1937
30448W        W45579   8.384   0.611   5.153 -0.0288  0.1616 -0.3640
30449W        W45580  14.453   5.614   2.003  0.1540 -0.0594 -0.0041
30450W        W45581   7.324  13.338  13.281  0.2440 -0.2683 -0.2688
30451W        W45582  17.682  16.379   2.870 -0.0997  0.0295 -0.2515
30452W        W45583   2.913   7.279   0.920 -0.2857  0.1496 -0.1007
30453W        W45584   0.290   0.429  15.289 -0.1565 -0.2779  0.0354
30454W        W45585   7.395  15.995   5.528  0.2417  0.1668  0.0899
30455W        W45586   0.160  11.746  12.722  0.0722  0.2624  0.1485
30456W        W45587  13.451   3.031   5.013  0.1022  0.0751  0.3316
30457W        W45588   7.686  10.693   2.829  0.4750  0.0251  0.1405
30458W        W45589  10.432   6.284   3.445 -0.1518  0.0087 -0.0812
30459W        W45590   9.460  12.022  13.226 -0.2659  0.2893 -0.0496
30460W        W45591   9.791  11.796  14.617  0.1388 -0.0382 -0.1270
30461W        W45592   1.603   7.947  15.363  0.2084  0.1109  0.2801
30462W        W45593  14.337   0.116   4.687  0.1172 -0.1360 -0.1008
30463W        W45594   2.237   3.889   1.789  0.0484 -0.2160 -0.0144
30464W        W45595  11.497  16.240   1.891 -0.0288  0.0820 -0.0702
30465W        W45596   6.984  11.602   0.627  0.1108  0.0271 -0.0298
30466W        W45597  13.245   8.039   0.399  0.1864  0.1032  0.0185
30467W        W45598  12.704   3.380   5.931  0.0277 -0.0371  0.2353
30468W        W45599  15.027   0.632   4.289 -0.2033  0.0786 -0.1472
30469W        W45600   0.202  17.029  13.623  0.1506  0.1869  0.0769
30470W        W45601  12.876   5.202  14.189 -0.1808  0.2957 -0.0662
30471W        W45602  16.791   3.226   1.008  0.2409 -0.2044 -0.1447
30472W        W45603  13.213  14.433   6.129 -0.2179  0.1137 -0.1058
30473W        W45604   4.477   9.464  13.621 -0.0396  0.3394  0.1282
30474W        W45605   4.173   1.728  15.738 -0.2950  0.0188 -0.0434
30475W        W45606  17.753  10.334  14.773  0.3061  0.0499  0.0707
30476W        W45607   2.578   8.956  12.968 -0.1787  0.4852 -0.1581
30477W        W45608  11.098  15.682  11.073 -0.2724 -0.1188 -0.1746
30478W        W45609  14.499  13.490  15.995  0.0308 -0.0630 -0.2175
30479W        W45610  14.320   5.691  11.599 -0.2192 -0.4304  0.3725
30480W        W45611   0.468  17.823   1.255 -0.1987  0.0357 -0.0836
30481W        W45612  14.254  15.791  14.576 -0.0085 -0.3091  0.2167
30482W        W45613  16.478   5.318  16.008  0.0412 -0.2374 -0.0478
30483W        W45614   7.466  15.592  10.353  0.2674 -0.1811  0.0596
30484W        W45615   1.214   4.129   1.936  0.0480 -0.3131 -0.2069
30485W        W45616   3.795  14.033  13.095  0.0458  0.0597  0.1729
30486W        W45617   6.837  10.723   9.885 -0.0137  0.3425 -0.0846
30487W        W45618   5.828  16.722   3.598  0.1763  0.1267  0.1527
30488W        W45619   8.799   4.461   5.588 -0.0522 -0.0193 -0.1790
30489W        W45620   6.288  12.045  14.010  0.2746  0.3062  0.1778
30490W        W45621  11.260  18.124   0.757  0.3385  0.2016 -0.0518
30491W        W45622  15.841  16.514  12.270 -0.0843 -0.0161  0.1318
30492W        W45623  13.663   6.395  12.697 -0.0548  0.1741 -0.2536
30493W        W45624   2.641  17.274   4.041  0.1571 -0.0918 -0.0298
30494W        W45625   0.722  12.773   4.138  0.4240  0.0635 -0.1191
30495W        W45626   9.323  10.212  15.029 -0.2136 -0.3305 -0.0715
30496W        W45627   0.605   4.904   1.796 -0.3504 -0.0356 -0.2153
30497W        W45628   6.256   8.619  13.223  0.0389 -0.2803  0.1000
30498W        W45629   0.497   4.467  12.452 -0.2628  0.0266 -0.4874
30499W        W45630   1.119   1.401  12.041  0.1574 -0.2431  0.0560
30500W        W45631  16.672   6.535   3.730 -0.0372  0.3847  0.0382
30501W        W45632  15.772   6.949   3.210  0.1379  0.0277  0.1452
30502W        W45633  12.462   7.710   5.410  0.0711 -0.1504 -0.3465
30503W        W45634   4.573  12.786   2.272  0.0119  0.1207 -0.1675
30504W        W45635   0.483  15.416  13.401  0.2322  0.2030 -0.1670
30505W        W45636   4.969  11.203   5.246  0.0685  0.2588  0.0461
30506W        W45637   6.124   3.394  16.180  0.1957  0.1394 -0.0436
30507W        W45638  10.819  13.750   3.158 -0.1169  0.0142 -0.3825
30508W        W45639   3.080  10.902   3.161 -0.2718 -0.2943  0.0959
30509W        W45640   9.995  16.272   2.971  0.0448  0.2245 -0.4834
30510W        W45641  15.854   2.738  13.414 -0.0099 -0.0631  0.0771
30511W        W45642   1.126  12.436   5.490  0.0585 -0.1095  0.0272
30512W        W45643   5.610   6.868  13.546  0.0503  0.0828  0.0600
30513W        W45644   7.723   0.552  11.561  0.0603  0.0101 -0.1318
30514W        W45645  10.427  11.063   4.219  0.1019 -0.1851  0.0918
30515W        W45646   5.256   7.373   4.280  0.0799 -0.3832  0.0982
30516W        W45647   6.360   6.246   2.082  0.2440 -0.0315 -0.1660
30517W        W45648   7.986  16.506   0.147 -0.1438  0.2936  0.2189
30518W        W45649  10.849  14.632  11.598  0.0770 -0.4190  0.1476
30519W        W45650  16.712  13.551  15.521 -0.0574  0.0241  0.1545
30520W        W45651   9.140  15.098  13.520 -0.2165 -0.0265 -0.0010
30521W        W45652   0.701   5.735   1.829  0.2053  0.3393 -0.1013
30522W        W45653  15.841  13.877   1.120 -0.2866  0.0234 -0.4682
30523W        W45654   2.565  15.330  11.178 -0.0172 -0.1547  0.3436
30524W        W45655   9.887  14.946  10.902  0.1684 -0.3881  0.0781
30525W        W45656  18.075   2.244   4.209 -0.0267 -0.1427 -0.3477
30526W        W45657   3.473   5.949  11.255 -0.3740  0.2254 -0.0172
30527W        W45658   8.102   9.366  12.736  0.0321  0.3968  0.0326
30528W        W45659   3.479  15.293  11.707  0.1884  0.6444 -0.0932
30529W        W45660  13.643  17.962  11.448  0.2267 -0.2655 -0.0343
30530W        W45661   3.011  15.594  11.838  0.1612  0.1154  0.1002
30531W        W45662   9.336  12.563   3.545 -0.1670  0.1494 -0.2359
30532W        W45663  13.056  17.806   5.437  0.1980  0.3110 -0.1391
30533W        W45664   0.350  14.166   0.543 -0.1284 -0.1594  0.2790
30534W        W45665  15.875   5.833  11.711 -0.0992 -0.2128  0.1121
30535W        W45666  14.820   0.143   3.234 -0.1383 -0.0301 -0.1834
30536W        W45667   9.750   4.305   3.392  0.0982  0.2677 -0.0262
30537W        W45668  10.899   1.640   5.170  0.0561 -0.0970  0.2537
30538W        W45669  10.514  10.547   5.082  0.2456 -0.0492  0.3267
30539W        W45670  11.824   4.457  11.499 -0.1052  0.1550  0.0561
30540W        W45671   9.228  17.765   4.896 -0.0135 -0.1419 -0.0237
30541W        W45672   0.798   4.273   1.497 -0.1736 -0.3649 -0.0299
30542W        W45673  13.644   8.593  16.106 -0.1888 -0.0355  0.0343
30543W        W45674  13.201   7.103   3.514  0.1087 -0.1891  0.0939
30544W        W45675   0.596   1.142   4.521  0.1932 -0.1432 -0.0692
30545W        W45676  16.960  13.953  14.170  0.0334 -0.0910 -0.0253
30546W        W45677  14.154  12.630   0.485 -0.1733  0.3505  0.2167
30547W        W45678  17.782  14.568  15.121  0.1397  0.3838 -0.0507
30548W        W45679  14.519  11.009   1.092  0.2508 -0.1361 -0.0302
30549W        W45680   4.052  10.556  15.036 -0.4489  0.0852  0.0348
30550W        W45681   6.213   1.053  14.404 -0.3473  0.0850 -0.0084
30551W        W45682   9.661   8.549   2.737  0.0160  0.1192 -0.0738
30552W        W45683   2.737   3.527  14.116 -0.2578 -0.0689 -0.1826
30553W        W45684  16.921   9.133   1.414  0.0103  0.3481 -0.0158
30554W        W45685   5.668   3.973  11.234  0.3931  0.0588 -0.1125
30555W        W45686  15.113   0.481   2.649 -0.3160  0.0393  0.1747
30556W        W45687   1.844   9.194   2.474  0.2691 -0.1360  0.0135
30557W        W45688  12.089   6.112  12.442 -0.1557 -0.0579 -0.0640
30558W        W45689   5.103  17.697  16.144  0.0580  0.1119 -0.0155
30559W        W45690   3.707  12.632   2.709 -0.1020 -0.0120  0.4699
30560W        W45691  11.058   9.543  15.205  0.1292 -0.3859  0.1806
30561W        W45692  11.119  16.251  11.959 -0.2631  0.1065  0.0212
30562W        W45693   7.591   0.162   3.080  0.2046  0.1184  0.0936
30563W        W45694   9.221   0.822   0.758  0.0936  0.3323 -0.1211
30564W        W45695  17.063  11.624  16.020 -0.1919  0.4965  0.5269
30565W        W45696   7.338  13.168  15.331  0.0180  0.0782  0.0117
30566W        W45697  12.567  13.099   3.605  0.0319 -0.1023 -0.1151
30567W        W45698   5.969  16.512   1.469  0.0454  0.0342 -0.1589
30568W        W45699   6.363   6.555  15.637 -0.1209 -0.2621 -0.4607
30569W        W45700   4.471   3.544  16.033 -0.1922 -0.2368 -0.0052
30570W        W45701  14.480   5.795   4.251  0.2362  0.2588  0.1065
30571W        W45702   2.609   2.345  13.646 -0.0475  0.0299 -0.1873
30572W        W45703  13.096  17.576  15.299  0.1184 -0.0051 -0.0148
30573W        W45704   9.716  16.617   2.311  0.0501 -0.2981  0.1784
30574W        W45705  16.883   8.624  10.692 -0.0247  0.0697  0.1761
30575W        W45706   3.858   5.355  10.343 -0.0462  0.0454 -0.0009
30576W        W45707   0.138  17.416   3.769  0.4684  0.1271 -0.0341
30577W        W45708  14.673   5.650   1.520 -0.2407  0.1660  0.0957
30578W        W45709  17.200   6.362  12.644  0.0174 -0.5255  0.1495
30579W        W45710  10.956   4.573  12.003  0.0805 -0.0303  0.2584
30580W        W45711   8.641  14.027  13.475 -0.0901  0.2000  0.2040
30581W        W45712   6.492   4.255  13.356 -0.0095  0.1968 -0.0911
30582W        W45713   4.832   4.769   3.581  0.1437  0.1449 -0.1724
30583W        W45714  17.485  11.251  13.774  0.1156 -0.0803  0.0795
30584W        W45715  16.790   0.098   1.312 -0.0899  0.1119 -0.1823
30585W        W45716  14.666   0.443   1.645  0.1736  0.2393 -0.0561
30586W        W45717   9.289  17.691   3.787  0.0182 -0.3798 -0.0592
30587W        W45718   5.658   6.472   3.232 -0.0493  0.0041 -0.1602
30588W        W45719  12.869   9.933  13.281 -0.1150 -0.1603 -0.2681
30589W        W45720  13.520  11.202   6.347 -0.1131 -0.1110 -0.1209
30590W        W45721   5.543  13.507   4.037 -0.1451 -0.1759 -0.3296
30591W        W45722   7.905  14.743   5.392 -0.2802 -0.0220  0.0412
30592W        W45723   7.701  12.324   4.097  0.2139 -0.4095  0.1953
30593W        W45724   1.024  10.221   5.418  0.2049  0.1762  0.1038
30594W        W45725   0.212  16.436   4.345 -0.0407 -0.1249 -0.2029
30595W        W45726   5.481  11.635   5.722  0.0769  0.1631 -0.2941
30596W        W45727  16.142   7.295   5.328 -0.3974 -0.1547 -0.0459
30597W        W45728   0.554  11.457  14.159  0.1512 -0.2146  0.1799
30598W        W45729   0.845   3.488   3.540  0.0584 -0.0032 -0.0234
30599W        W45730  11.524   0.771   1.661 -0.2405  0.0147 -0.0390
30600W        W45731  17.419   4.965  15.563 -0.2139  0.4091  0.0942
30601W        W45732   8.164   2.994  16.055  0.0342  0.0929 -0.0541
30602W        W45733   9.649   6.604   1.886  0.0190 -0.0320 -0.3014
30603W        W45734   2.475   5.027  12.442  0.3542 -0.0025 -0.1970
30604W        W45735   7.293   9.839   4.229  0.0162 -0.1350  0.0360
30605W        W45736  12.906  14.583   0.727  0.1672  0.0598 -0.0473
30606W        W45737  16.401   4.695   3.475 -0.2409  0.0797 -0.1658
30607W        W45738  10.604  13.497   5.152 -0.0639  0.2053  0.1226
30608W        W45739  11.768   9.499  11.800  0.0255 -0.2062  0.0897
30609W        W45740  15.599  17.400  10.612 -0.1164  0.0405  0.1645
30610W        W45741   4.443   5.727  13.288 -0.0131  0.0219 -0.1411
30611W        W45742  16.529  13.709  12.197 -0.0270 -0.1649 -0.2199
30612W        W45743  15.741  14.104  12.748  0.1503  0.0158 -0.3277
30613W        W45744   9.593  10.944   4.493  0.1721 -0.0967  0.0457
30614W        W45745   9.240   5.885   0.091  0.2609  0.0671  0.3250
30615W        W45746   2.636  12.984   4.140  0.1520  0.3117  0.0353
30616W        W45747   6.460   7.312   1.042  0.0216 -0.1812 -0.1261
30617W        W45748  10.029  18.025  14.539  0.3798 -0.0287  0.2658
30618W        W45749   7.015  14.944   4.361  0.2183  0.1027  0.1311
30619W        W45750   6.052  17.709   0.927  0.0131 -0.0339 -0.2997
30620W        W45751  10.097   2.435   1.679  0.2717 -0.0786  0.1233
30621W        W45752   3.316   7.954   1.568 -0.3241 -0.1448  0.0281
30622W        W45753   6.390   1.759  13.377 -0.1910  0.0418 -0.1883
30623W        W45754   9.197  12.532   2.141  0.0242  0.3627  0.0373
30624W        W45755   7.876   5.751   4.721 -0.0188 -0.1563  0.4584
30625W        W45756   3.098   8.810  14.910  0.1893  0.1494 -0.0577
30626W        W45757   4.527  14.534  10.725  0.0779 -0.1435 -0.1494
30627W        W45758   2.367  17.639  15.751  0.0151  0.1822 -0.1335
30628W        W45759  16.264   9.800   5.393 -0.0460  0.0679 -0.2952
30629W        W45760   3.012   9.221  13.929  0.0600  0.2228 -0.0641
30630W        W45761   5.498   1.173  14.469  0.2631 -0.5075  0.2980
30631W        W45762   2.897  15.275   6.194 -0.4396  0.3784 -0.2478
30632W        W45763   3.253  13.384  12.495  0.0663 -0.0129  0.1790
30633W        W45764   6.949  17.378  14.778  0.2129 -0.1401  0.2524
30634W        W45765   5.838  16.019  10.807  0.2300 -0.0183 -0.3011
30635W        W45766  13.264   5.587  15.877 -0.2788 -0.0858 -0.0070
30636W        W45767  16.614  13.215   2.190 -0.1211  0.1445 -0.1391
30637W        W45768   2.140  12.016   2.273 -0.1161 -0.0324  0.3638
30638W        W45769   5.302  17.965   3.761 -0.1929 -0.0744  0.0942
30639W        W45770   1.245   4.263  11.027 -0.1024  0.0914 -0.1152
30640W        W45771   7.093  12.128   4.751 -0.0737 -0.0726  0.2677
30641W        W45772  16.856   4.755  11.710 -0.0847  0.0896 -0.0961
30642W        W45773   9.265  13.104  15.180  0.0072 -0.0351  0.1012
30643W        W45774  15.672  12.546   5.391 -0.1527 -0.1630 -0.3273
30644W        W45775   6.259  17.455   3.388 -0.1820 -0.0712 -0.2362
30645W        W45776   3.064  10.753  12.198 -0.1434 -0.0498  0.0095
30646W        W45777  12.034   3.854  10.820  0.0167 -0.2461  0.0498
30647W        W45778   1.163  12.206   1.071  0.1430 -0.1635 -0.2047
30648W        W45779  16.239   6.344   3.927 -0.2603  0.0277 -0.1866
30649W        W45780  11.779  14.159   3.099 -0.2443  0.0428 -0.2541
30650W        W45781   0.316  16.974  11.567 -0.0055 -0.0601 -0.0873
30651W        W45782   0.980  15.606  11.599 -0.1834  0.3849 -0.0493
30652W        W45783   7.224   0.962   6.065  0.3796  0.1930 -0.1303
30653W        W45784   3.558   3.697   2.152 -0.2454  0.1627 -0.0765
30654W        W45785   1.472   8.082  16.209  0.2274 -0.1505 -0.0598
30655W        W45786  12.692  12.500   4.157 -0.0519 -0.0461  0.0653
30656W        W45787   8.887   8.621   4.172 -0.1307 -0.1566 -0.1004
30657W        W45788   2.293  16.365   3.205  0.2292 -0.1141  0.1528
30658W        W45789   1.381   1.271  13.279 -0.0630  0.1662  0.1726
30659W        W45790  12.870  16.658  12.796 -0.4491 -0.1970 -0.1173
30660W        W45791   3.910   2.909  13.939  0.0427 -0.0987  0.2149
30661W        W45792   6.646   8.939  12.547  0.0536 -0.0409 -0.1351
30662W        W45793   6.745   5.144  10.146  0.1756 -0.1289  0.2495
30663W        W45794  16.157  17.871  11.943 -0.2610  0.1090  0.5279
30664W        W45795  14.753   5.559  15.306  0.3617  0.5480 -0.1055
30665W        W45796  16.873   6.737   4.667  0.0086 -0.2314 -0.0239
30666W        W45797   2.557   8.381   4.132 -0.4475 -0.0266  0.0329
30667W        W45798   5.696  17.311   4.643 -0.4871 -0.1198  0.1829
30668W        W45799   1.250   6.455  11.518  0.0294  0.0083 -0.3223
30669W        W45800  10.991  12.133   3.444 -0.1093  0.0545  0.2275
30670W        W45801   7.400   9.236  14.495  0.0095  0.0619 -0.2693
30671W        W45802  14.039  13.488  12.578 -0.5350  0.0579 -0.0919
30672W        W45803  12.889   2.481  12.400 -0.0070  0.1215 -0.2383
30673W        W45804   1.498   7.264  15.907 -0.3914  0.0060  0.1735
30674W        W45805  15.580   9.059   1.046  0.5796  0.0549  0.2362
30675W        W45806   5.835  15.002   0.313  0.0961  0.2433  0.1368
30676W        W45807  13.012  10.210  14.797  0.0943  0.2830  0.1941
30677W        W45808  14.859   9.506   3.634 -0.0768 -0.0058  0.1386
30678W        W45809   8.551   3.632  14.173 -0.1793  0.0341 -0.2102
30679W        W45810   6.063   3.564  10.509 -0.0633 -0.1301  0.3376
30680W        W45811  14.000   3.419   5.209 -0.0948  0.1313  0.1235
30681W        W45812   6.789   8.065  12.729  0.2349 -0.0083  0.1873
30682W        W45813   8.568  17.301  13.227  0.1641  0.0157 -0.0577
30683W        W45814  16.837   0.716   3.464 -0.2016 -0.1774  0.0754
30684W        W45815   4.554  10.911  13.802 -0.0337  0.1703  0.2929
30685W        W45816   2.309  13.187  15.592 -0.1462  0.0028  0.1893
30686W        W45817  18.098   8.963   1.030 -0.2402 -0.1425 -0.3237
30687W        W45818   4.801   7.891   4.903 -0.0009 -0.2825 -0.0496
30688W        W45819  14.617  16.039   3.139  0.0937  0.2046 -0.0617
30689W        W45820  17.020  17.999  15.634  0.0132  0.0265 -0.1996
30690W        W45821  11.889  15.008  13.343 -0.1056  0.3039 -0.0797
30691W        W45822   0.511   5.081  16.120 -0.0763  0.1000 -0.1094
30692W        W45823  17.526   9.980  15.948 -0.2064 -0.2072 -0.0672
30693W        W45824  17.761   5.665  10.321 -0.0138  0.1461 -0.0153
30694W        W45825  12.642  12.213   4.525 -0.0359 -0.3181 -0.0401
30695W        W45826   6.188   9.271  10.923 -0.0230  0.3209  0.5533
30696W        W45827   2.708  14.456   0.680 -0.0651 -0.4870  0.0032
30697W        W45828  16.259  17.065  15.960 -0.1141  0.0785 -0.0724
30698W        W45829   1.072   9.610  12.309 -0.0114 -0.1436 -0.1394
30699W        W45830  11.224  11.722   2.681 -0.1372 -0.0493  0.1350
30700W        W45831   6.227  16.635  15.502 -0.0893 -0.2703  0.2920
30701W        W45832   8.775   6.712  13.646  0.0884 -0.0653 -0.0422
30702W        W45833   6.729  15.253  14.306 -0.0135 -0.4196  0.3025
30703W        W45834  17.661   4.513  14.906 -0.3435  0.0699 -0.0726
30704W        W45835  11.928   2.879   3.091 -0.2798 -0.0129  0.2259
30705W        W45836  11.091  12.254   2.021 -0.0996  0.0127 -0.1132
30706W        W45837   5.367  13.190   3.728 -0.1329  0.1888 -0.0779
30707W        W45838   4.083   5.133   0.658  0.0243  0.2268 -0.5017
30708W        W45839  12.760   2.104  15.422  0.1922  0.0278  0.0342
30709W        W45840   5.127  13.724   4.743  0.3240 -0.0638  0.0331
30710W        W45841  12.965   2.177   6.355  0.2000 -0.2530 -0.1551
30711W        W45842   3.553   2.409   3.162  0.2490 -0.0653  0.0756
30712W        W45843   1.900   5.845  10.614  0.1925 -0.1946 -0.0626
30713W        W45844   7.536  12.176   1.412 -0.0773  0.0015  0.0890
30714W        W45845   5.408   7.417   2.700  0.1712 -0.1114  0.1255
30715W        W45846   2.628   1.363  15.841 -0.0645  0.1987  0.0447
30716W        W45847  13.710  16.535   5.745  0.0189  0.0118  0.0656
30717W        W45848   6.023   0.487  10.126 -0.0458 -0.2746 -0.0475
30718W        W45849   0.211   8.206   1.672  0.0595  0.1401 -0.2875
30719W        W45850  15.512  13.965  12.081 -0.1226  0.2228  0.0749
30720W        W45851  13.650  17.291  10.780 -0.0467 -0.1269 -0.1727
30721W        W45852   8.484  11.464   3.045 -0.2759  0.0337  0.0144
30722W        W45853  16.165  13.102  12.877  0.0247  0.0787 -0.0757
30723W        W45854   8.350  17.595  11.638 -0.3716  0.1223 -0.0057
30724W        W45855   3.495   4.885  14.580 -0.0533  0.0952 -0.1529
30725W        W45856   6.494  17.126   3.097 -0.1796 -0.0114  0.1417
30726W        W45857  13.709  15.287   5.217 -0.1005  0.0641  0.1656
30727W        W45858   7.559   6.322   4.139  0.0164  0.1152 -0.0859
30728W        W45859   1.507   6.679  14.410  0.3962 -0.3208 -0.0564
30729W        W45860   0.947   6.730  11.874 -0.1863  0.2672  0.0447
30730W        W45861  16.400  16.876   1.183 -0.0920 -0.0362 -0.1283
30731W        W45862  15.807  17.000   4.058  0.2491 -0.3005 -0.0740
30732W        W45863   8.434  16.436   4.810 -0.1408  0.1142  0.0840
30733W        W45864   5.034  17.973   3.075 -0.0814  0.4102 -0.3160
30734W        W45865  13.835  12.617   2.469  0.2497 -0.1592 -0.0408
30735W        W45866  12.571   6.272   0.809 -0.1877 -0.0137  0.0379
30736W        W45867  11.492  16.022  12.796 -0.0390 -0.0819 -0.2364
30737W        W45868   5.715   5.299  15.687 -0.0807  0.1376 -0.0189
30738W        W45869   3.526   1.674   0.147 -0.0443  0.1804  0.1064
30739W        W45870  17.376  12.726   5.277  0.0416 -0.0680 -0.0408
30740W        W45871   4.171   4.118   0.677  0.2134  0.1829 -0.2193
30741W        W45872  15.823   3.284   1.254 -0.1381  0.3191 -0.2819
30742W        W45873   8.903   3.776   5.216  0.0610  0.1746  0.0319
30743W        W45874  17.342   1.785   2.055  0.0076  0.0422  0.3686
30744W        W45875   6.549   9.600   1.585  0.0065  0.0178 -0.5565
30745W        W45876   0.897  11.608   0.067 -0.1923  0.0316 -0.0428
30746W        W45877   0.823  14.412   0.213 -0.1914  0.0919  0.0564
30747W        W45878   1.328   2.305   4.188  0.0345 -0.1226 -0.0596
30748W        W45879   5.708  15.814  12.651  0.3600  0.3107 -0.0021
30749W        W45880  17.279   4.614   5.867 -0.0230 -0.2076  0.3182
30750W        W45881   8.693  16.248   0.974 -0.1357  0.0068 -0.0227
30751W        W45882   7.332   2.874  13.371 -0.0405 -0.3280 -0.0127
30752W        W45883   8.719   5.461  12.609 -0.1008  0.2366  0.0388
30753W        W45884  12.925   9.218   1.238  0.3142  0.0979 -0.3918
30754W        W45885   0.494  10.515  13.807 -0.2009 -0.1250 -0.1638
30755W        W45886   0.789  15.355  12.597 -0.1566 -0.1447 -0.0339
30756W        W45887   2.837  13.185  12.791 -0.1766  0.1268  0.0142
30757W        W45888   4.642   6.633  15.454 -0.1611  0.0724  0.2253
30758W        W45889  16.143   4.379  14.979 -0.0747 -0.3363  0.4757
30759W        W45890  11.345   9.794   3.435  0.2185  0.1822 -0.0658
30760W        W45891  16.447   1.569   5.291  0.2022  0.1495  0.1332
30761W        W45892   8.374   9.998   1.816  0.0323 -0.0950 -0.2604
30762W        W45893   3.046  14.814  12.776  0.1525 -0.0703 -0.1133
30763W        W45894  14.903  12.705   5.910 -0.0328 -0.0384  0.1506
30764W        W45895   4.808  15.969  15.830  0.0164  0.1943  0.2022
30765W        W45896  18.176  11.355   5.619  0.1042  0.2431  0.2746
30766W        W45897   2.078   6.420  13.292  0.0800  0.0694 -0.1721
30767W        W45898   3.062   9.287  11.528  0.2304  0.3924  0.1513
30768W        W45899  11.005   6.449   6.239  0.1512 -0.3793  0.0177
30769W        W45900   4.684  10.843   1.647  0.2680 -0.0689  0.1776
30770W        W45901  14.674   7.831  12.760  0.0637  0.0864 -0.2212
30771W        W45902  10.785   8.930  15.957  0.1481 -0.2199  0.2499
30772W        W45903  13.965   1.967   5.659  0.0969 -0.1592  0.2531
30773W        W45904  17.946  13.792   1.219  0.0795  0.1735 -0.1121
30774W        W45905  10.222   1.045   5.597  0.0498 -0.1464 -0.3093
30775W        W45906  15.655   5.315   5.825  0.2785  0.1109 -0.0538
30776W        W45907   2.227  17.397   1.842 -0.1607  0.2097  0.0139
30777W        W45908   0.788  12.913  13.129 -0.2333  0.2632 -0.3374
30778W        W45909   4.802   4.672  14.638 -0.2223 -0.0588  0.1876
30779W        W45910   0.239  17.502  16.142 -0.1770 -0.0991  0.2099
30780W        W45911   2.709  17.743  13.622 -0.2158 -0.0852 -0.2008
30781W        W45912  10.211   1.242  12.123  0.2360  0.1191  0.2492
30782W        W45913   6.129  12.738  11.171  0.0159 -0.0448 -0.2138
30783W        W45914   8.346   8.677   1.741  0.2823  0.2211  0.0277
30784W        W45915   6.253   0.742   1.425  0.1183  0.0198  0.2905
30785W        W45916   9.948   1.047   3.954  0.4908  0.0413  0.0221
30786W        W45917   1.547  13.177   1.014 -0.1667  0.0654 -0.1703
30787W        W45918   5.813  15.998   1.489  0.0090 -0.1041 -0.2839
30788W        W45919   5.522  16.595  12.366  0.2413  0.0629  0.0288
30789W        W45920  17.894  11.822   1.380  0.3047  0.2222  0.0093
30790W        W45921   4.156  11.302  11.281  0.3246 -0.0542  0.0172
30791W        W45922  13.580   3.570  11.679  0.0737  0.2076  0.1955
30792W        W45923   8.201  11.142  15.741  0.2447 -0.1351 -0.1805
30793W        W45924   4.116  14.094   0.721 -0.1061 -0.0067  0.1940
30794W        W45925  11.253   8.730   4.621  0.0823 -0.3483  0.1433
30795W        W45926  13.917   4.754   2.894  0.1594  0.3356 -0.2387
30796W        W45927   2.707  13.473   5.913  0.0604 -0.2825  0.2150
30797W        W45928  15.493  13.023  11.940 -0.0740 -0.1668 -0.0290
30798W        W45929   0.435   6.695  13.841  0.3130 -0.0445  0.0497
30799W        W45930   4.643  11.308  12.893 -0.0628 -0.4896  0.3283
30800W        W45931   9.255   4.432   3.450 -0.1129 -0.2216 -0.0355
30801W        W45932   1.801   1.410   3.677 -0.2916 -0.0402 -0.0286
30802W        W45933  11.983   1.846   3.775 -0.3399 -0.3560  0.0452
30803W        W45934  13.330  15.835   2.827  0.1488 -0.0141 -0.0398
30804W        W45935  12.357   3.321  11.621  0.2084 -0.0624 -0.2560
30805W        W45936   9.064   8.253  15.102  0.1905  0.1820  0.3679
30806W        W45937   9.476   7.289  14.845  0.3114 -0.1139  0.0596
30807W        W45938  10.543  11.736  10.902  0.1626  0.0840  0.1018
30808W        W45939   9.988   2.113  15.355  0.1557 -0.0681  0.0570
30809W        W45940  14.984  17.562   0.166  0.2365 -0.1915  0.0031
30810W        W45941   6.446   4.531   4.539 -0.1141 -0.4682  0.3168
30811W        W45942   4.394   9.377   1.923 -0.0662  0.0649 -0.0658
30812W        W45943   3.272   0.843   1.762 -0.2181 -0.2300  0.1475
30813W        W45944  14.005  14.710  12.497 -0.0170 -0.0761  0.2760
30814W        W45945   3.545   1.235  16.053 -0.0630  0.0785 -0.1473
30815W        W45946   1.327   9.898   3.280 -0.0667 -0.0905  0.1155
30816W        W45947  12.029   7.825  13.268  0.5300  0.1575  0.1843
30817W        W45948  13.884  16.659   4.765 -0.1821  0.1061 -0.2498
30818W        W45949  15.325   7.306   0.521  0.2302  0.0104  0.0422
30819W        W45950  15.319   1.053  12.882 -0.1625  0.1503 -0.0001
30820W        W45951   3.997   4.549  15.133  0.0841 -0.1221 -0.0607
30821W        W45952   9.421   0.687  12.264 -0.0116 -0.0172  0.1226
30822W        W45953  15.881  17.927  16.231 -0.0926  0.4076  0.1097
30823W        W45954   0.939  12.793   2.821  0.3550  0.1700  0.2178
30824W        W45955   2.812   5.597   5.001  0.0587  0.1596 -0.0538
30825W        W45956  14.636  17.958  11.296 -0.1084  0.0146  0.3113
30826W        W45957   3.707   7.097   0.080  0.0214  0.3145 -0.0337
30827W        W45958   3.544   5.987   1.668  0.2437  0.0976  0.1622
30828W        W45959   7.076   9.911   1.464 -0.0369  0.1287 -0.0283
30829W        W45960  16.967   0.207   5.481  0.2034  0.0170  0.1175
30830W        W45961   6.493  14.835   3.126 -0.0040  0.2108 -0.0564
30831W        W45962  17.266  10.396   4.311 -0.2434 -0.1104 -0.0083
30832W        W45963   0.511  11.015  13.555 -0.0415  0.1575  0.2507
30833W        W45964  14.705  11.786   3.135  0.3218  0.0697 -0.1898
30834W        W45965   3.945   6.194   3.761 -0.0518 -0.2618 -0.1763
30835W        W45966   6.936  17.748   2.913 -0.1069 -0.1376 -0.1698
30836W        W45967  15.133   1.264  12.471  0.0675 -0.0033 -0.0349
30837W        W45968  14.894   9.121   3.987 -0.1772  0.1899  0.3084
30838W        W45969  17.538  11.739   4.005  0.2181 -0.2237  0.2527
30839W        W45970  11.395   1.627   3.239 -0.1186 -0.1354 -0.0932
30840W        W45971   5.554   6.137  15.305  0.2510  0.0641  0.0430
30841W        W45972   3.262   6.086   3.442  0.2669  0.1288  0.1083
30842W        W45973  12.805   3.305  15.597  0.0508 -0.0762  0.0547
30843W        W45974  15.062  16.866  13.502 -0.1458 -0.1110  0.3395
30844W        W45975  11.220  13.342  13.118 -0.1707 -0.1978  0.2136
30845W        W45976   2.444  15.108   1.981 -0.0652 -0.2634  0.2983
30846W        W45977  13.250   7.443   0.226 -0.0186 -0.0732 -0.0684
30847W        W45978   2.671   8.565  12.586 -0.0374  0.1548  0.0376
30848W        W45979   5.237   0.349  14.890 -0.1401 -0.1777 -0.1027
30849W        W45980  16.469  11.784   4.449 -0.3179  0.3043 -0.3190
30850W        W45981  10.397   3.970   0.105  0.0307 -0.0223 -0.0736
30851W        W45982   0.448  12.327  14.316  0.4083 -0.0360  0.1516
30852W        W45983  15.132   2.903   4.691 -0.4391 -0.1331  0.0083
30853W        W45984   5.886   3.526   2.073 -0.0412  0.4698 -0.3532
30854W        W45985   9.737   7.715  11.249 -0.0442  0.1283 -0.1455
30855W        W45986   3.322  17.483  12.816  0.1936 -0.1678  0.2796
30856W        W45987   6.090   2.319  13.109  0.0365 -0.4406 -0.4921
30857W        W45988  10.282  17.719   0.425  0.2081  0.3749 -0.3332
30858W        W45989   5.599  16.514  15.806 -0.0333 -0.2433 -0.3642
30859W        W45990   6.850   0.360   4.966 -0.0192  0.1842 -0.1442
30860W        W45991   7.116  12.917   4.978 -0.2138  0.1424 -0.1929
30861W        W45992   1.933  12.443   5.986 -0.0421  0.2967 -0.1419
30862W        W45993   7.519  10.046  11.212 -0.1993 -0.0918  0.1179
30863W        W45994   2.335  16.332  16.154  0.2395 -0.2312 -0.1010
30864W        W45995  15.071   0.945  11.952  0.1480 -0.0552  0.0177
30865W        W45996   5.741   1.370   1.867  0.1173  0.0931 -0.0637
30866W        W45997   6.378   9.118   2.414 -0.0154 -0.0255 -0.0619
30867W        W45998   9.988  12.698  13.698 -0.0462 -0.1781 -0.0138
30868W        W45999  14.878  15.719  12.141  0.0778 -0.0099  0.2179
30869W        W46000  16.736  15.355   6.471 -0.0308 -0.1676 -0.2434
30870W        W46001  14.571   6.811  14.274  0.0974  0.1769  0.3277
30871W        W46002   0.771   0.579  14.471  0.0647 -0.3875 -0.0456
30872W        W46003   1.829   7.955   3.157  0.0175 -0.1495  0.0551
30873W        W46004   1.391  16.530  11.704  0.1582  0.1614  0.2954
30874W        W46005   9.591   1.354  14.407  0.0712 -0.0788 -0.1590
30875W        W46006   4.167   4.886   2.707 -0.1820  0.0967  0.0736
30876W        W46007   9.578   8.310  12.408  0.0104  0.1400 -0.0144
30877W        W46008   9.370   9.563  14.322 -0.1528  0.0296 -0.1899
30878W        W46009   8.494  12.214   9.996  0.1854 -0.0532  0.0728
30879W        W46010   8.903  11.133  15.713 -0.1949 -0.0709 -0.0158
30880W        W46011  17.637   3.824   2.629  0.1983 -0.4555 -0.2355
30881W        W46012   6.754   3.034  13.498 -0.0174 -0.0897  0.2061
30882W        W46013  15.813  17.564  13.903 -0.2241  0.1774 -0.2073
30883W        W46014   4.985   7.525  12.826  0.5024  0.2660  0.1159
30884W        W46015  12.411   2.583   2.699 -0.0352 -0.0418  0.0406
30885W        W46016   0.009   9.959  11.238  0.2162 -0.1133  0.1230
30886W        W46017   7.859   0.006  12.423 -0.0500 -0.0720  0.2502
30887W        W46018   5.701   0.912   2.166  0.0212 -0.1592 -0.1481
30888W        W46019  11.259   7.053   0.665 -0.0298  0.3458  0.0701
30889W        W46020   8.880   1.535   2.143 -0.0886  0.0528 -0.0879
30890W        W46021  11.871   2.721  12.148  0.4361  0.0920  0.0490
30891W        W46022  18.063   7.706  15.066  0.1033 -0.1292  0.0571
30892W        W46023  10.357  11.323   2.370 -0.1355 -0.1054 -0.0078
30893W        W46024  10.200  15.510   4.115 -0.0746 -0.5005 -0.1076
30894W        W46025   1.793  14.310  14.388 -0.1423  0.0669 -0.0354
30895W        W46026  16.482   7.304  12.580 -0.3710  0.0662  0.1146
30896W        W46027   6.119   5.134  15.424 -0.0164  0.0848 -0.1846
30897W        W46028   1.475   8.459  15.446  0.0018  0.1824  0.1715
30898W        W46029   4.145   5.736   3.600  0.2408  0.2007  0.3036
30899W        W46030  17.071   3.767   0.400 -0.3781 -0.1266 -0.2182
30900W        W46031  10.366   5.146  11.195  0.0995  0.1898  0.1508
30901W        W46032   8.958  14.020   4.752 -0.1972  0.2782 -0.1299
30902W        W46033  14.082   7.241  12.349  0.4763 -0.0837 -0.0957
30903W        W46034   2.783  16.773  15.605  0.3135 -0.2573 -0.1109
30904W        W46035   8.859   4.258   4.162  0.3199  0.2883 -0.1922
30905W        W46036   9.675  17.718  16.000 -0.0471  0.1730 -0.0577
30906W        W46037   2.804   1.068   4.334 -0.2685  0.2870  0.2165
30907W        W46038   2.104  17.745  14.359  0.0885  0.4302 -0.1472
30908W        W46039   1.804  14.424  11.555  0.1128  0.0749 -0.0614
30909W        W46040  15.810   3.810  15.740  0.3019  0.0191  0.0527
30910W        W46041  15.226   8.444  14.200  0.1932  0.4651  0.3882
30911W        W46042  17.960   4.480  12.582 -0.0584  0.0733  0.2908
30912W        W46043  10.771   4.629   3.070 -0.2301 -0.0119  0.0757
30913W        W46044  16.356   5.984  15.264  0.0453  0.2007  0.1443
30914W        W46045   6.967   1.635   5.591  0.0383 -0.2509 -0.3190
30915W        W46046  11.891  12.671   4.400  0.0461 -0.2703  0.1337
30916W        W46047   4.381   6.510  11.358  0.0216  0.2698 -0.1983
30917W        W46048  10.620   4.697   1.353 -0.0259  0.2286  0.1199
30918W        W46049   0.324  15.875   5.409 -0.0939  0.2059  0.4422
30919W        W46050   8.636  14.059   0.998 -0.0124  0.0938  0.1820
30920W        W46051   0.331  15.434  12.456  0.2116  0.5723  0.0300
30921W        W46052  17.333   2.379  14.428  0.2741  0.2909  0.0212
30922W        W46053  13.732   6.236   3.340  0.3867 -0.0787 -0.2322
30923W        W46054  17.237  10.877  15.708  0.0149  0.0116  0.1763
30924W        W46055   9.744   8.708   3.800  0.3774  0.3181  0.1629
30925W        W46056  14.193   8.615   1.761 -0.0294  0.2072 -0.2596
30926W        W46057  15.930   1.746  13.921 -0.0962 -0.0570  0.0023
30927W        W46058  12.446   1.339  11.391  0.3075 -0.1603  0.0291
30928W        W46059   8.855  13.711   5.202  0.0312  0.1022  0.2195
30929W        W46060   2.448  17.576  12.733 -0.0278  0.2453  0.2855
30930W        W46061  16.999   3.749  16.071 -0.0305  0.0425  0.1934
30931W        W46062   6.792   5.232  13.705  0.1203 -0.0596  0.2215
30932W        W46063   5.376   5.622   2.172 -0.0501  0.2392  0.2158
30933W        W46064  14.815  14.905   1.005  0.2458 -0.2896  0.0747
30934W        W46065   7.430  15.761  12.580 -0.2393 -0.0273  0.1227
30935W        W46066   8.677   4.319  15.677  0.3472  0.0975  0.2185
30936W        W46067   0.297   3.111  11.148 -0.0780 -0.0922  0.1099
30937W        W46068   6.578  14.458  12.219  0.1788 -0.2308  0.2932
30938W        W46069   3.660  10.174  15.039  0.0590  0.0289 -0.4705
30939W        W46070  15.149  14.268  15.067  0.2493  0.2630  0.0297
30940W        W46071   6.835   4.114  11.412 -0.0518  0.1368 -0.2327
30941W        W46072   4.141   3.974  14.546  0.0441  0.1178 -0.1676
30942W        W46073   5.079   3.522   3.242 -0.2115 -0.4250  0.1400
30943W        W46074  14.603   3.057  13.428 -0.0299 -0.1200  0.2969
30944W        W46075  18.148   1.121   4.553 -0.0780  0.0918  0.1071
30945W        W46076   7.775  17.054  13.230  0.2272  0.1248 -0.0093
30946W        W46077  12.972   6.972  12.853  0.1297  0.0162 -0.2336
30947W        W46078   9.048  14.733   2.766  0.1563  0.0992 -0.1288
30948W        W46079  11.454  10.954   1.564  0.1075 -0.2198 -0.0410
30949W        W46080   5.209   7.733   5.183  0.1285  0.0434  0.0502
30950W        W46081   3.136   3.128  11.614 -0.1202 -0.0323  0.2195
30951W        W46082  15.859   3.717   0.424  0.1577  0.1667 -0.1831
30952W        W46083   4.676   8.650  13.816 -0.3637 -0.0322 -0.1053
30953W        W46084   6.715   6.275   2.423  0.1069  0.2938 -0.3581
30954W        W46085  14.684   6.194   4.984  0.1565 -0.1658  0.1383
30955W        W46086   3.597   1.871   4.175 -0.0706  0.0506 -0.0176
30956W        W46087  15.097   7.911   1.601 -0.2151  0.0083 -0.2730
30957W        W46088   6.722   8.921   3.236  0.1226 -0.0921  0.0807
30958W        W46089  17.541  15.865  12.237 -0.2680  0.0339 -0.1900
30959W        W46090  12.444   3.215  14.141 -0.0876  0.3555 -0.1220
30960W        W46091   9.014  11.354  13.152 -0.0110  0.3489  0.2615
30961W        W46092   0.106   1.897   5.576 -0.1234 -0.0163 -0.1795
30962W        W46093   4.132   1.515  15.254 -0.2392  0.0898  0.0954
30963W        W46094  10.119   2.584   3.822  0.2220  0.0980 -0.0234
30964W        W46095  12.152   8.977   6.169 -0.2985  0.1822  0.0642
30965W        W46096   6.073  14.632   0.606 -0.0723  0.1267  0.0322
30966W        W46097  17.620   6.675  10.213 -0.1141 -0.0781  0.1501
30967W        W46098  14.817   2.359   6.416 -0.0957  0.2173  0.1918
30968W        W46099   3.064   9.819   3.291  0.1994 -0.1655 -0.1241
30969W        W46100   6.427   4.316   0.892 -0.1053  0.2124 -0.1062
30970W        W46101   8.160   4.345  15.560 -0.1645 -0.2349 -0.1519
30971W        W46102  17.172  14.972   4.556 -0.3368 -0.1148 -0.0280
30972W        W46103  16.452   5.554  13.784  0.0966  0.2517 -0.3098
30973W        W46104  15.511  13.756   0.639  0.4005 -0.1809 -0.0737
30974W        W46105  18.109   0.167  13.946 -0.1899  0.1127 -0.0450
30975W        W46106   7.056  12.083   0.615  0.1543  0.0005 -0.0084
30976W        W46107  18.096  14.586  15.965 -0.2865 -0.0553  0.0593
30977W        W46108  10.156   7.138   2.813  0.2576 -0.0734 -0.3813
30978W        W46109  11.496  17.549   0.387  0.5003  0.0106 -0.1313
30979W        W46110  15.693   8.486  11.229 -0.0191 -0.0986 -0.1034
30980W        W46111   4.115  15.128  13.348  0.1666  0.1325 -0.2303
30981W        W46112  17.882   6.383   3.011  0.2365 -0.2732 -0.1122
30982W        W46113   7.589  17.213  13.667 -0.2124  0.1373  0.1074
30983W        W46114   5.808   7.743  15.957 -0.3429 -0.2505  0.0226
30984W        W46115  17.420  17.463  14.948  0.0532 -0.0800  0.0870
30985W        W46116   1.059   4.145   5.428 -0.0351  0.1476 -0.0031
30986W        W46117  11.504   8.065   2.793 -0.0003  0.0096  0.0439
30987W        W46118   3.016   2.942  13.361  0.0394  0.1247  0.0517
30988W        W46119   3.776   1.519  14.375 -0.2397  0.0004  0.1748
30989W        W46120  13.778   0.475  15.697 -0.1426 -0.0797 -0.0260
30990W        W46121  17.685   5.700  13.155 -0.2388 -0.1632  0.1144
30991W        W46122   0.273   1.404  11.484  0.1171  0.0417 -0.1224
30992W        W46123   2.237  10.731  15.398  0.3660  0.2010 -0.0612
30993W        W46124  18.005  10.537  12.581 -0.1078 -0.1387 -0.0235
30994W        W46125   3.551  11.626  15.158 -0.3586 -0.2155 -0.1106
30995W        W46126   2.836   6.694   4.807 -0.0318  0.1272  0.0986
30996W        W46127  13.666   5.603   0.643 -0.0207  0.0761 -0.0589
30997W        W46128   0.961   2.326   5.540 -0.0929  0.2754  0.2460
30998W        W46129   9.006  14.444  10.675 -0.0364  0.1010  0.3698
30999W        W46130  15.905  15.661   5.119 -0.1204 -0.1543  0.0556
31000W        W46131  16.873   4.981   3.311 -0.0300  0.0302 -0.0211
31001W        W46132   0.483  14.872   5.768 -0.0925  0.0004  0.1688
31002W        W46133  18.178  16.676  12.441  0.3644  0.0762 -0.3664
31003W        W46134   5.438  18.153   1.323  0.0006  0.2117 -0.0973
31004W        W46135   0.783  11.335   3.108  0.1269  0.3135 -0.3084
31005W        W46136  12.835   7.967  13.049 -0.0444 -0.1254 -0.0992
31006W        W46137   2.415   1.009   4.022  0.0966  0.3099 -0.3523
31007W        W46138   9.832  13.926  13.702  0.0629  0.1813 -0.0153
31008W        W46139  16.098  13.858   0.585  0.2986 -0.0099 -0.0020
31009W        W46140  16.390   1.123   4.171 -0.0516  0.2217  0.4478
31010W        W46141   1.089   1.743   5.831 -0.0336 -0.1629 -0.2178
31011W        W46142  15.892  14.451   6.615  0.2419 -0.1262 -0.0027
31012W        W46143   4.270  15.501  11.790  0.1207  0.0830  0.1553
31013W        W46144   9.050   7.985   4.840  0.1073  0.0720 -0.2740
31014W        W46145  16.016   0.473  12.383 -0.1039 -0.1159 -0.1029
31015W        W46146  13.607   9.522  15.637 -0.1097 -0.2732  0.3174
31016W        W46147   0.792  13.429   0.533  0.2711  0.0247  0.1620
31017W        W46148  16.322  11.291  11.317 -0.0868 -0.1085 -0.4297
31018W        W46149   2.806  17.103  15.204 -0.1463  0.0309  0.0740
31019W        W46150   6.385  14.530  13.030  0.0412 -0.3238  0.2141
31020W        W46151  14.502   8.638   0.889  0.0839  0.1559 -0.1346
31021W        W46152   4.733   1.750  10.698 -0.0489 -0.2978 -0.2649
31022W        W46153  12.919   8.748   4.714  0.0463  0.0948  0.0140
31023W        W46154  12.107  14.907   1.755  0.1505  0.0912 -0.1130
31024W        W46155  15.198   4.521  11.673 -0.2596  0.2617  0.0781
31025W        W46156   3.039   2.219  13.525  0.0672 -0.1245  0.1798
31026W        W46157   0.173   7.963  12.790 -0.1612 -0.2619 -0.1492
31027W        W46158  10.387  15.396  14.575 -0.2924 -0.1010 -0.0235
31028W        W46159  16.458   4.610   5.924  0.0210 -0.0553 -0.2140
31029W        W46160  10.539   4.799  12.911  0.0587 -0.1076 -0.0412
31030W        W46161   8.360   6.747   3.290  0.2469  0.2047  0.1050
31031W        W46162  15.988  10.756  16.008 -0.0392 -0.1252  0.2074
31032W        W46163   1.263  11.880   4.968  0.0392  0.2240  0.0060
31033W        W46164  17.237   4.756  15.115 -0.3498 -0.2361  0.2598
31034W        W46165   0.611   9.458  13.274  0.4152  0.1128 -0.1387
31035W        W46166   7.278   9.222   3.576 -0.2505  0.0400 -0.2900
31036W        W46167  13.196   8.588   4.311  0.0111  0.1497 -0.2011
31037W        W46168  10.408   0.348  12.377 -0.0287  0.1354  0.1194
31038W        W46169  16.526   7.108  14.750  0.2848 -0.1310  0.2015
31039W        W46170   6.536  14.530  14.711 -0.0079  0.3823  0.0619
31040W        W46171  14.774   5.294   4.810 -0.0193  0.0528  0.0423
31041W        W46172   2.403  13.699  11.511 -0.3050  0.1154  0.0733
31042W        W46173  15.676   5.096  13.336 -0.1947  0.3895  0.0870
31043W        W46174   7.172   6.195  13.174  0.1283 -0.0656 -0.1769
31044W        W46175  17.941  17.088   1.133  0.0466 -0.2326  0.0224
31045W        W46176   1.441  16.310  10.462 -0.1139  0.0393 -0.0419
31046W        W46177  11.324   3.590  15.411  0.0176 -0.0653 -0.0708
31047W        W46178   8.778  14.702   4.577 -0.0073 -0.0161  0.1452
31048W        W46179  17.979  13.212  14.107 -0.1167 -0.1729  0.0301
31049W        W46180  16.428  11.135   5.076 -0.1250 -0.1876  0.0102
31050W        W46181  12.117   2.395   5.336 -0.0049 -0.0254  0.0041
31051W        W46182   6.570   2.256  13.332  0.2255 -0.0182  0.1167
31052W        W46183   7.275   9.210  10.009  0.0731  0.0998  0.0946
31053W        W46184  17.079   9.223  14.806 -0.1583  0.1401 -0.0170
31054W        W46185  12.446   5.745  13.055  0.0996  0.0632 -0.0619
31055W        W46186  10.753   0.971  13.650  0.0325  0.0522  0.0630
31056W        W46187   7.426  16.034  10.574  0.2451 -0.0970 -0.1528
31057W        W46188   1.688   3.306  12.822 -0.2952  0.0790  0.0698
31058W        W46189  11.983  12.600  10.913 -0.0980 -0.2163 -0.0262
31059W        W46190   0.413  11.584  11.336  0.1563  0.0962 -0.0664
31060W        W46191  17.303   9.112   3.964 -0.4552  0.0301 -0.0290
31061W        W46192  11.149   0.962  15.505 -0.0213  0.1004  0.0277
31062W        W46193   4.886  11.654  14.057  0.0007 -0.0400  0.2642
31063W        W46194  11.816  17.781   1.441  0.1106 -0.1305 -0.5497
31064W        W46195   1.066  13.853   4.558  0.0113 -0.1594 -0.0763
31065W        W46196  14.468  11.717  13.523  0.0397 -0.1971  0.0551
31066W        W46197   4.143  10.584  13.899  0.0081 -0.0227 -0.2642
31067W        W46198  12.161   1.257  13.891 -0.0848 -0.2652  0.0478
31068W        W46199  11.973   1.679  13.488  0.1239  0.1187 -0.0433
31069W        W46200   6.569   7.529   4.042 -0.1288  0.2411 -0.2708
31070W        W46201   6.220   9.424  15.223  0.0566  0.1087 -0.1204
31071W        W46202  16.958  12.534   0.680  0.1432  0.0591 -0.2157
31072W        W46203   7.872   8.251  11.024  0.2028 -0.0808 -0.2078
31073W        W46204  17.466   6.498  13.668  0.0497 -0.1621  0.2753
31074W        W46205  12.085   6.511   0.587  0.1187 -0.2792 -0.0124
31075W        W46206  15.158  12.017   2.903 -0.2422  0.0487  0.2400
31076W        W46207   6.008   6.047   0.784  0.1049 -0.1337  0.0746
31077W        W46208   4.770  13.591   4.352  0.1213  0.0515  0.0768
31078W        W46209   9.400  14.550  10.426 -0.0031  0.3688 -0.0967
31079W        W46210   3.748   9.130   3.084 -0.2209 -0.0269 -0.3765
31080W        W46211  14.239   6.147   3.624 -0.1687 -0.2128  0.0012
31081W        W46212  12.282   8.895  16.090  0.3225  0.1783  0.1774
31082W        W46213   8.653   6.709  15.138  0.1713 -0.0316  0.2263
31083W        W46214  16.794   0.279  15.718 -0.3555 -0.2336  0.0820
31084W        W46215   9.099  14.546  12.372  0.2084  0.0082 -0.0893
31085W        W46216  15.950   6.508  13.481  0.0993  0.2547 -0.3367
31086W        W46217  16.722   5.480  11.432 -0.1193  0.1156 -0.0662
31087W        W46218  15.948   3.348  15.018  0.1856 -0.0818  0.3632
31088W        W46219  15.395   0.855  13.315  0.0012  0.2125 -0.1964
31089W        W46220   8.110   1.054   2.734  0.1873  0.1175 -0.0864
31090W        W46221  17.583   9.392  13.948  0.1930  0.2155  0.0564
31091W        W46222  12.995  11.659   2.627 -0.0560  0.1750 -0.2506
31092W        W46223   8.600  17.975   4.219 -0.0441  0.2174  0.1355
31093W        W46224   9.315   8.686  13.825 -0.0191  0.4631  0.2192
31094W        W46225   1.665   6.458   1.227 -0.0171  0.0541 -0.1414
31095W        W46226   0.700   9.662  11.071  0.0174 -0.0746 -0.1329
31096W        W46227   7.659  11.159  15.940 -0.3043 -0.0290  0.1544
31097W        W46228   3.350  10.812  13.376 -0.1705 -0.0605  0.0663
31098W        W46229   7.131  15.890  15.432 -0.2657  0.1882 -0.0207
31099W        W46230  10.851  10.908   1.518  0.2306 -0.1025  0.1552
31100W        W46231  10.045   9.615  11.706  0.0911  0.0950 -0.0455
31101W        W46232   2.861  11.116   4.518 -0.0993 -0.2238 -0.0039
31102W        W46233   4.933  11.744   1.249 -0.1832 -0.1319 -0.0808
31103W        W46234  14.839   9.878   2.960 -0.3608  0.0451  0.2550
31104W        W46235  10.386  10.582   4.081 -0.2532  0.0149  0.1521
31105W        W46236  10.964  16.526  13.803  0.2367  0.2534  0.1192
31106W        W46237  16.287  14.545   0.852  0.1481  0.1178 -0.0684
31107W        W46238  14.444  10.056   0.622  0.0727  0.0321 -0.1766
31108W        W46239   6.631   1.959  15.081 -0.3920  0.1930 -0.0106
31109W        W46240   3.284  11.329   0.656  0.1428  0.2574  0.2178
31110W        W46241  16.890  15.016  15.560 -0.0430  0.1757 -0.0136
31111W        W46242   0.822   8.408  15.685  0.3440 -0.1643  0.1566
31112W        W46243  15.298  15.925  12.329  0.1606  0.2505 -0.1915
31113W        W46244   9.552   4.840   5.800  0.1880 -0.1523 -0.3433
31114W        W46245   3.655   0.172   9.920  0.0428 -0.2169 -0.1871
31115W        W46246   4.442  12.239   0.621  0.0763  0.2368  0.1122
31116W        W46247  12.115  10.306  13.441 -0.0750 -0.2304  0.1031
31117W        W46248  12.377   8.046   1.621 -0.0194  0.0373 -0.0571
31118W        W46249  17.216  10.125   5.680  0.0291  0.4637 -0.0037
31119W        W46250  15.371  16.044   2.791 -0.1173 -0.1953 -0.0045
31120W        W46251   8.030  18.088   1.675 -0.1702 -0.1533  0.2257
31121W        W46252  14.287  17.103  11.822 -0.1910 -0.0235 -0.0168
31122W        W46253   3.128  11.755   5.642  0.0452 -0.3021  0.1649
31123W        W46254  11.353  10.941  10.363 -0.1827 -0.0635 -0.0577
31124W        W46255   3.480   8.970  11.535 -0.0644  0.1118 -0.0215
31125W        W46256   5.901   7.780  13.842 -0.0031 -0.1198  0.1793
31126W        W46257   7.833   8.409  12.860 -0.0056 -0.0748  0.0269
31127W        W46258  10.203  14.749   3.520 -0.0979 -0.1615  0.2872
31128W        W46259  13.418  11.777   3.661  0.1447 -0.1782  0.2933
31129W        W46260   2.549   5.349   4.618  0.0504  0.1766  0.1690
31130W        W46261  14.094   3.089   2.865 -0.1722  0.5037 -0.0117
31131W        W46262   2.600  12.562  16.024 -0.0451 -0.0140  0.2789
31132W        W46263   3.245   3.466   1.217  0.0682 -0.1087 -0.1325
31133W        W46264   8.489  11.583  10.793 -0.1205 -0.0391 -0.1000
31134W        W46265   9.756  12.740  12.098 -0.0909  0.0614  0.2314
31135W        W46266   8.828  10.474   1.212  0.0985  0.0266  0.0306
31136W        W46267   8.097  15.962  11.051  0.1657  0.1066 -0.1812
31137W        W46268  10.540   8.670   4.231 -0.1544  0.2106 -0.0961
31138W        W46269  17.405   5.781   6.044  0.0444  0.1272  0.0318
31139W        W46270   7.219   2.187   3.489 -0.1218 -0.1350 -0.0067
31140W        W46271  17.728   9.190   1.357 -0.1556  0.0048  0.2837
31141W        W46272   3.006   4.669   4.457 -0.3280 -0.2220 -0.1769
31142W        W46273  15.713   0.480  13.325 -0.1950 -0.0613  0.0498
31143W        W46274   3.093  10.303  12.771 -0.1729  0.0056 -0.2480
31144W        W46275  11.377  10.630   5.248  0.1929  0.0287 -0.1981
31145W        W46276   6.065   0.646  13.107 -0.1963  0.0124  0.2901
31146W        W46277   4.334  11.529   3.254  0.2199  0.2082 -0.0761
31147W        W46278   5.432  12.675  14.936  0.2834  0.0336 -0.1022
31148W        W46279  10.257   3.333   5.435  0.0034 -0.0267  0.0659
31149W        W46280   3.818  18.021  15.140  0.0035 -0.1105 -0.0412
31150W        W46281   0.196   6.924   2.652  0.3422  0.0755  0.0717
31151W        W46282   9.800   0.786  13.608 -0.4272 -0.2530  0.1312
31152W        W46283  15.913  11.616   4.484  0.0819  0.1634 -0.0075
31153W        W46284  14.669   9.676   0.344  0.0246 -0.2596  0.1470
31154W        W46285   4.629   6.491   2.087 -0.1344 -0.3375 -0.0403
31155W        W46286   0.730  15.815   5.016  0.0747  0.1264 -0.0664
31156W        W46287  17.183  16.653   0.599  0.1472  0.2971  0.0825
31157W        W46288   7.527   1.095  13.168  0.1334  0.0749 -0.2611
31158W        W46289   1.305  15.921   4.886 -0.2768  0.0238  0.2890
31159W        W46290   4.430  17.110   1.555  0.0149 -0.0572 -0.0556
31160W        W46291   2.821  10.848  11.653  0.1519 -0.1668  0.0774
31161W        W46292  10.407   9.959  13.581  0.0577  0.3869 -0.0077
31162W        W46293  16.028   7.166  14.903  0.1854  0.0661  0.0960
31163W        W46294   4.069   2.137  13.923  0.0561 -0.3050  0.0503
31164W        W46295   3.138   4.202  14.951  0.4230 -0.2740  0.1638
31165W        W46296   5.167   5.122   3.825  0.0182 -0.3224 -0.1935
31166W        W46297  16.733   4.517   3.147 -0.2118 -0.1487  0.1742
31167W        W46298  14.014   4.688  14.300  0.1021 -0.1729  0.1082
31168W        W46299  13.159   9.328  12.133  0.1472 -0.7018  0.2930
31169W        W46300  18.075   9.281  15.752  0.0334  0.0495 -0.1703
31170W        W46301  17.231  10.871   4.576 -0.4156  0.0708  0.0708
31171W        W46302   6.328   7.594   3.513  0.1160 -0.2360 -0.2666
31172W        W46303  17.148  15.080   1.269 -0.1868  0.1982 -0.1497
31173W        W46304   0.283   3.871  16.082 -0.2615  0.2775  0.2079
31174W        W46305   1.364  17.912   1.459  0.1293 -0.3711 -0.0533
31175W        W46306   0.869   4.730  12.166 -0.2369 -0.1692  0.0817
31176W        W46307  17.200   4.416  13.928  0.2357  0.0924  0.2493
31177W        W46308   0.381   4.444   4.490  0.0718  0.0746 -0.3989
31178W        W46309   1.518   5.399   3.661 -0.0685  0.1438 -0.1746
31179W        W46310  13.299  17.021  11.467 -0.0661 -0.0764  0.2478
31180W        W46311   0.075   0.700   2.634 -0.0826 -0.0002  0.1566
31181W        W46312   8.930   7.443  15.709  0.1715  0.0900 -0.1243
31182W        W46313  16.070   8.180   4.272 -0.2293 -0.1640 -0.1812
31183W        W46314  11.350  12.826  13.338 -0.2348 -0.1095 -0.0162
31184W        W46315   0.722   1.543  11.607  0.2185  0.0532 -0.0245
31185W        W46316  13.828  11.361   2.936  0.1959  0.1027  0.0829
31186W        W46317   5.108  11.939   3.812  0.2572 -0.2290  0.2158
31187W        W46318  13.795   7.223  15.712  0.3248  0.0434 -0.2249
31188W        W46319  12.872   6.222   6.491  0.3447 -0.0521  0.1441
31189W        W46320  16.889  17.682   3.972 -0.0422  0.0474  0.1922
31190W        W46321  12.412  15.737   2.782  0.0569 -0.1453 -0.1472
31191W        W46322  17.180   7.906  15.963  0.2671  0.3597 -0.2483
31192W        W46323   5.593   5.210  11.369  0.2044 -0.1321  0.0921
31193W        W46324  15.536  10.149   5.121 -0.2141  0.1120  0.0710
31194W        W46325  16.598   3.445  14.896  0.0817  0.0345 -0.3774
31195W        W46326   4.710  14.528  12.871 -0.0368 -0.1643  0.0692
31196W        W46327   0.236   6.683  15.936 -0.0342  0.2330  0.2205
31197W        W46328  13.760  14.450  13.800 -0.0696 -0.0158  0.0612
31198W        W46329   2.799   3.377  13.252  0.1767 -0.0781  0.0302
31199W        W46330  14.795  10.293   1.587  0.0197 -0.0532  0.0797
31200W        W46331  14.971  14.560   1.365  0.2612 -0.0622  0.2380
31201W        W46332   4.284   5.821  15.008  0.0934  0.0634  0.1854
31202W        W46333   3.071   0.111  15.673 -0.0697 -0.1840  0.1513
31203W        W46334  11.511  11.630   1.784 -0.1110  0.1036 -0.0346
31204W        W46335   1.843   2.868   2.151 -0.0174  0.0057  0.0198
31205W        W46336  16.224  10.636   0.706 -0.0892 -0.0233 -0.2033
31206W        W46337   1.508  11.501   4.755  0.0468  0.0761 -0.1408
31207W        W46338  14.167   9.016  10.921 -0.1453 -0.2685 -0.0218
31208W        W46339   8.646   9.459   3.980 -0.0966 -0.1220  0.2381
31209W        W46340  11.792   9.988   5.135 -0.0656 -0.2184  0.0590
31210W        W46341  13.112   1.990   0.080  0.0303  0.2744 -0.0239
31211W        W46342   9.239   7.868  15.434  0.1075  0.0167 -0.0954
31212W        W46343   1.360   7.648   2.813  0.0771 -0.0620 -0.0428
31213W        W46344  14.553   6.496  12.140  0.1053  0.3169 -0.6578
31214W        W46345  13.666   2.817   1.196 -0.2534 -0.0444  0.0336
31215W        W46346  13.533  17.437  15.525 -0.0508  0.0739 -0.0443
31216W        W46347   4.124   6.447  15.669 -0.0138  0.0170 -0.3146
31217W        W46348  15.961  13.350   5.127 -0.1172 -0.2078 -0.1236
31218W        W46349   3.478   3.025   4.742 -0.2664  0.0955  0.0328
31219W        W46350   6.718  13.473   0.552 -0.0208  0.5271 -0.2670
31220W        W46351   7.925   1.403   1.373 -0.3740 -0.0408  0.1429
31221W        W46352   7.273   2.715   1.281 -0.0476 -0.0925 -0.2906
31222W        W46353  10.842   4.029  14.797 -0.1011  0.1895 -0.0496
31223W        W46354   9.139  15.894   1.868 -0.0809 -0.1413 -0.0182
31224W        W46355   2.495   7.801  12.400 -0.0788 -0.0671  0.0832
31225W        W46356   9.717   5.042   0.447 -0.0551 -0.1448 -0.1318
31226W        W46357  15.231  17.196   4.414  0.1630 -0.0590  0.1873
31227W        W46358   1.814   1.437   0.577 -0.0566  0.4532 -0.0746
31228W        W46359  12.327  13.905   5.263  0.1674  0.0706 -0.0547
31229W        W46360   7.292  15.636   2.705  0.1884  0.1672  0.0797
31230W        W46361   2.791   5.796   1.170  0.0654  0.0353  0.0067
31231W        W46362   0.350   0.166   4.364 -0.1463  0.2886  0.0912
31232W        W46363  16.620  17.247   0.917 -0.0186 -0.3085 -0.2130
31233W        W46364   9.338  11.540   2.025 -0.0613 -0.0879  0.0760
31234W        W46365   6.476   9.706  16.034 -0.2194 -0.1927  0.0674
31235W        W46366   2.968   5.063   1.307 -0.1629  0.3699 -0.1051
31236W        W46367   9.906   7.154   5.726 -0.2222 -0.1728  0.0773
31237W        W46368   3.447  17.981  15.528 -0.0202 -0.1530  0.0544
31238W        W46369   8.051   5.649  10.371  0.2917  0.1888  0.0265
31239W        W46370  10.182   7.979  15.763  0.2323  0.2304 -0.1062
31240W        W46371  13.919   4.328   2.455 -0.1739 -0.1182 -0.0643
31241W        W46372  12.604   4.055   3.452 -0.7880  0.0620 -0.0076
31242W        W46373  12.883  15.227   5.360 -0.3391  0.0015 -0.2219
31243W        W46374  10.003   4.324  12.484  0.1657 -0.0339  0.0976
31244W        W46375  15.024  10.915  14.965 -0.0061  0.0057 -0.0413
31245W        W46376   4.416   8.888  15.300  0.2078  0.2444 -0.1323
31246W        W46377   0.664  17.031  15.498 -0.0513  0.0251 -0.1103
31247W        W46378  14.855  11.410   0.926 -0.0161  0.4177  0.1209
31248W        W46379   3.764   0.078   3.273  0.0899 -0.4707  0.3410
31249W        W46380   8.040  10.881  12.287 -0.0361  0.1435  0.3792
31250W        W46381   4.725   8.830  12.141  0.1600  0.2382 -0.1456
31251W        W46382   1.571   4.079   1.096 -0.1159 -0.2407 -0.0051
31252W        W46383   8.853   6.412  12.418  0.0857 -0.2754 -0.3827
31253W        W46384  14.161   1.075   4.695  0.0913 -0.2678 -0.1802
31254W        W46385   2.739  10.862   0.768 -0.1521  0.2357 -0.0027
31255W        W46386   8.012   0.993   0.202 -0.0931 -0.0014  0.1455
31256W        W46387   9.732  14.164   1.512 -0.2044  0.0851  0.1618
31257W        W46388  11.988   1.570  11.464  0.2097 -0.0652  0.0298
31258W        W46389  11.970   1.997  11.764 -0.0803 -0.0587 -0.0824
31259W        W46390   4.182  12.950  16.233  0.1008  0.0035 -0.1173
31260W        W46391   8.601   4.118  14.350 -0.1645 -0.1891  0.1180
31261W        W46392  16.204   0.130   2.019 -0.3527 -0.0729  0.2876
31262W        W46393   5.724   0.271   3.236 -0.0662  0.1051  0.3611
31263W        W46394  16.702  15.003  12.314  0.1041  0.2449 -0.2090
31264W        W46395   9.480  14.651   4.254  0.0881 -0.1085  0.0416
31265W        W46396  12.517  13.021  16.208  0.0947  0.1648  0.0267
31266W        W46397   5.630  10.152  11.561  0.0054  0.2138 -0.2215
31267W        W46398   0.884   4.818  11.503 -0.1540 -0.2780  0.2800
31268W        W46399   7.633  14.290  10.678  0.1323  0.2638 -0.0716
31269W        W46400   2.199   7.963   9.973 -0.2142  0.0733  0.1168
31270W        W46401   7.521   4.755  10.378  0.3309  0.1284 -0.1891
31271W        W46402  14.546  13.314  12.776  0.0365  0.0533  0.1514
31272W        W46403  13.590   1.359  15.965  0.0403  0.2595 -0.2126
31273W        W46404   4.247  15.292   3.000 -0.0191  0.0736  0.0010
31274W        W46405  10.760   6.926   5.705  0.1887 -0.2779 -0.0039
31275W        W46406   1.531   6.835  10.195 -0.1215  0.2115  0.4846
31276W        W46407   1.971   5.751   2.893 -0.3185  0.3632  0.4333
31277W        W46408  13.870   9.477   0.242  0.0505  0.0236 -0.0670
31278W        W46409   0.119   1.651   2.981  0.2352  0.3111  0.1037
31279W        W46410  15.235  11.139   2.816  0.0734 -0.1985  0.0708
31280W        W46411  10.979  13.483  15.529  0.1569 -0.2284  0.0864
31281W        W46412  11.478  13.905   5.166  0.0678 -0.1280  0.0937
31282W        W46413   6.731   1.327   4.552 -0.0452 -0.0072  0.1394
31283W        W46414   3.304   1.459   1.748 -0.0554 -0.0896  0.0916
31284W        W46415   2.536   2.654   0.144 -0.0295 -0.0684 -0.0816
31285W        W46416   7.815   7.092   3.842 -0.1525  0.0749  0.1058
31286W        W46417   2.989   6.153   2.979  0.0753  0.0053 -0.1191
31287W        W46418   1.469   4.092  15.427 -0.1530 -0.1556  0.0255
31288W        W46419  14.321  15.297   1.409 -0.2285 -0.2407  0.0273
31289W        W46420   7.304   0.379   3.754  0.0703  0.0196 -0.2539
31290W        W46421   6.588  10.327   0.250  0.0388 -0.0211  0.2998
31291W        W46422   6.586   3.597  13.504  0.0442  0.0253  0.1244
31292W        W46423  10.596   7.457  11.348  0.0345  0.0139  0.1156
31293W        W46424   8.712  13.239   5.405 -0.3447 -0.2211  0.1549
31294W        W46425   7.543  12.915  13.663  0.1166  0.0813  0.3215
31295W        W46426   0.478   5.442   3.753 -0.2920 -0.1043 -0.1508
31296W        W46427  17.489   6.916   2.172 -0.1275 -0.1779 -0.0768
31297W        W46428   0.176   4.271   0.786 -0.0531 -0.1052 -0.0999
31298W        W46429   9.630  13.991   1.945  0.2976  0.0171  0.3662
31299W        W46430  17.522   7.700   6.356  0.1864  0.1235  0.1250
31300W        W46431   3.017  17.679  11.811  0.1946  0.2639  0.3057
31301W        W46432  11.557   8.736  13.201  0.1932  0.0721  0.0546
31302W        W46433   1.522   1.583  15.631  0.1469  0.2317  0.1455
31303W        W46434   4.905   7.941  11.849 -0.0467 -0.0221 -0.0780
31304W        W46435  16.953   4.620  15.593  0.3925  0.0175  0.0306
31305W        W46436   8.715  15.543  15.855 -0.2894 -0.0002  0.1072
31306W        W46437   1.202   6.583   2.200 -0.0734 -0.1580 -0.1662
31307W        W46438  13.089   2.865  15.685  0.0871 -0.0941  0.0397
31308W        W46439  10.721   5.615   0.325 -0.0220 -0.1715  0.0315
31309W        W46440   7.027   8.988  15.754  0.0878 -0.1980  0.2337
31310W        W46441  12.745   4.229   5.340 -0.1670  0.1068  0.0098
31311W        W46442   2.201  16.612   2.362 -0.1633 -0.2306  0.0067
31312W        W46443   3.002  17.795  14.651 -0.0623 -0.1708 -0.2459
31313W        W46444   7.365  12.751  10.601  0.1090  0.0775  0.0915
31314W        W46445  13.837  15.310  15.328  0.2268 -0.2185 -0.0532
31315W        W46446   1.025   3.670   2.713 -0.0800 -0.1676  0.3746
31316W        W46447   3.422   2.456   2.626  0.3174  0.0215  0.0292
31317W        W46448   0.158   1.201  14.756  0.1115 -0.0053 -0.0766
31318W        W46449   4.204  15.775   2.887 -0.0505  0.0194 -0.1639
31319W        W46450   2.401  13.726   1.781  0.3049  0.0393 -0.1489
31320W        W46451   7.017   0.196   0.928 -0.3511  0.1761 -0.2393
31321W        W46452  10.988  17.598   5.516 -0.0736 -0.0138  0.2110
31322W        W46453  10.590   2.285   4.709 -0.1411 -0.1843  0.0224
31323W        W46454  15.746   8.283  14.180 -0.3822  0.1592 -0.1931
31324W        W46455   2.984   2.470   2.167 -0.1578  0.1078  0.1039
31325W        W46456   0.415   6.049   1.501  0.2263  0.0035  0.0035
31326W        W46457  17.319   6.357  14.251  0.0031  0.1919 -0.0728
31327W        W46458   9.851  15.808   5.196 -0.0772 -0.0687 -0.1204
31328W        W46459   3.671   1.142   4.846  0.0078 -0.3549  0.0445
31329W        W46460   1.497   1.712  10.165  0.0303 -0.1628 -0.1960
31330W        W46461  12.597  15.003  10.864  0.1729  0.0201 -0.3736
31331W        W46462   4.248  13.473  13.968 -0.4088  0.0068  0.0399
31332W        W46463  13.027   0.576  14.339 -0.0339  0.0577 -0.2326
31333W        W46464  13.705   3.847  13.875 -0.2441 -0.3408 -0.0544
31334W        W46465  16.223   7.748  11.611  0.0838 -0.1768  0.0076
31335W        W46466   1.201   0.906   1.695  0.3911  0.1317  0.1511
31336W        W46467   1.662   6.559   2.199 -0.1232  0.1203 -0.0251
31337W        W46468  13.455   7.997   1.408  0.2417  0.0706 -0.1732
31338W        W46469   2.211   5.680  15.892 -0.0312  0.2638  0.0762
31339W        W46470   1.787  15.299   3.496 -0.2189 -0.1792 -0.0505
31340W        W46471   6.851   7.568   1.017 -0.0419  0.2723  0.0903
31341W        W46472  14.369  11.103  13.007 -0.0573  0.0095 -0.0602
31342W        W46473   3.054  15.621   3.373 -0.0391  0.1962  0.1137
31343W        W46474  18.042   8.905   1.597  0.1385 -0.3407  0.2424
31344W        W46475  16.849   7.978  12.083  0.1134  0.0457 -0.0063
31345W        W46476  15.630  11.963   1.692 -0.1602 -0.0428 -0.1574
31346W        W46477  12.354   3.360   0.123 -0.2474  0.1618  0.1297
31347W        W46478  16.214  12.933  14.475 -0.1260  0.1203 -0.2650
31348W        W46479  12.797   1.728   0.408 -0.1044  0.1075  0.0343
31349W        W46480   3.452   0.329   0.456 -0.1443 -0.0146 -0.0451
31350W        W46481   0.971   0.770  15.059  0.0088  0.2181  0.0564
31351W        W46482   5.356  14.067  15.881  0.1909  0.0176  0.0808
31352W        W46483   6.272   7.661   2.277  0.1058 -0.3903  0.2882
31353W        W46484   9.090   9.033   5.416 -0.0188 -0.0250 -0.1398
31354W        W46485  16.639   4.586   5.051 -0.2705 -0.1051  0.0171
31355W        W46486   7.427   6.744   5.300  0.1721 -0.0538 -0.0378
31356W        W46487   2.823   9.867   4.824 -0.1473  0.1560 -0.0322
31357W        W46488  11.118   8.510   4.211 -0.3040  0.0169  0.1979
31358W        W46489   2.191   7.690   5.901 -0.1316  0.0671  0.0757
31359W        W46490   9.686   8.445  11.910 -0.1305 -0.0832  0.1373
31360W        W46491   1.497  13.181  10.840  0.3267  0.1618 -0.0488
31361W        W46492  15.969   8.680   3.382  0.0900  0.0085 -0.0655
31362W        W46493   8.313  10.708  13.885  0.1842 -0.0141  0.1978
31363W        W46494   8.187  17.882   2.382 -0.0201 -0.2551 -0.0042
31364W        W46495   9.145  11.574  11.504 -0.1255  0.0778 -0.3196
31365W        W46496  11.987  12.121  16.071  0.2036  0.5140  0.1053
31366W        W46497   6.081  11.376  13.274  0.0684 -0.1721 -0.1398
31367W        W46498  16.497  16.612  11.534 -0.2536  0.0481 -0.0946
31368W        W46499   4.311  12.200   1.095 -0.0042 -0.2444 -0.0150
31369W        W46500  11.021   3.624  11.618 -0.0855 -0.1146 -0.1969
31370W        W46501   5.225   8.201  13.307  0.3554 -0.2789 -0.1020
31371W        W46502  15.235   9.821   3.192 -0.2122 -0.2802  0.2076
31372W        W46503   4.237  16.159   1.237 -0.0790  0.0212  0.2231
31373W        W46504   5.213   7.119  10.471  0.1945  0.3766  0.2389
31374W        W46505   6.044   6.125  13.754 -0.2295 -0.1221 -0.1982
31375W        W46506  13.076   1.419   5.292  0.0281  0.0736  0.0509
31376W        W46507  13.443   3.887  16.194  0.1385  0.2285  0.3531
31377W        W46508  16.858   7.238   4.505 -0.2862 -0.0624 -0.0087
31378W        W46509   8.059   1.684  12.915  0.0319  0.0556 -0.0911
31379W        W46510  18.179  17.036   0.244 -0.1102 -0.4258 -0.2151
31380W        W46511  15.010   5.070   3.985  0.2511 -0.1370 -0.0567
31381W        W46512  12.643   3.540   3.479  0.1069 -0.0966 -0.3483
31382W        W46513   7.984   3.245  13.788  0.0329  0.0157 -0.1735
31383W        W46514   1.503   9.953   3.795 -0.1672 -0.2662 -0.2566
31384W        W46515   6.348  15.389  14.660 -0.0072  0.0753  0.0288
31385W        W46516   2.174   3.631   3.211 -0.2522 -0.0547 -0.3521
31386W        W46517   7.083   3.797   4.643  0.2965 -0.0391 -0.0008
31387W        W46518  10.284   7.047   4.798  0.0156  0.1855 -0.2930
31388W        W46519  16.291   7.869   0.816  0.1177  0.4073  0.1486
31389W        W46520   9.926   7.395   1.481  0.0958  0.0611 -0.1752
31390W        W46521  16.233  11.053  14.185  0.3022  0.0197 -0.0424
31391W        W46522   5.495  10.769   3.199 -0.2540  0.0507 -0.2049
31392W        W46523   9.801  13.331   5.196  0.0527 -0.2412  0.0297
31393W        W46524   1.116   5.183   4.878  0.0994  0.0759  0.3957
31394W        W46525  14.198   4.370   2.005 -0.0598 -0.1913  0.0292
31395W        W46526   7.129  15.024  14.689 -0.0712 -0.2841 -0.4576
31396W        W46527   4.906  10.385   5.126 -0.0922 -0.1434 -0.1476
31397W        W46528   4.300  11.475   3.753 -0.1196  0.2409 -0.2846
31398W        W46529  11.434   3.607   0.895  0.0707 -0.0691 -0.3528
31399W        W46530   0.489  12.197  11.216 -0.1173  0.2000  0.1703
31400W        W46531  12.238  15.389  13.111 -0.0150 -0.3044 -0.2177
31401W        W46532  11.599  12.936   5.294 -0.0883  0.0820  0.2337
31402W        W46533   1.805   2.815  15.959 -0.0508  0.0102 -0.0064
31403W        W46534  11.119   3.805   3.091 -0.1043  0.1488  0.0478
31404W        W46535   6.706  12.704   1.562 -0.1745  0.2164 -0.1053
31405W        W46536  11.416  15.716  15.419  0.0795  0.0349  0.2998
31406W        W46537   5.179   4.970   4.306  0.1151  0.0300 -0.0831
31407W        W46538  11.045   9.398  13.633  0.0238 -0.2870 -0.0131
31408W        W46539   1.595  10.018   0.308 -0.2269 -0.0291 -0.1096
31409W        W46540   8.999  15.380   2.031  0.0724  0.1185 -0.2150
31410W        W46541   2.021  14.288   4.251  0.1032 -0.0140  0.2112
31411W        W46542  15.475  17.301  10.128 -0.2574  0.0164  0.2613
31412W        W46543   9.257   8.493  14.290 -0.3817  0.3553  0.0811
31413W        W46544  10.622  10.031  11.448  0.1605  0.1806 -0.0542
31414W        W46545  17.206   2.108  15.336  0.0147 -0.0317 -0.1508
31415W        W46546   7.318  10.016  14.718  0.3123  0.0237  0.1935
31416W        W46547  11.922  10.147   5.618  0.1688 -0.0093  0.1541
31417W        W46548  13.847   4.940  11.663 -0.1423  0.1274 -0.1233
31418W        W46549  12.827   3.353  15.072  0.0430 -0.1890 -0.0602
31419W        W46550   4.814   1.437  12.234  0.1188 -0.0708  0.3649
31420W        W46551   1.232  11.978  11.730  0.0770 -0.0749  0.1510
31421W        W46552  15.844  10.735  14.182  0.0109 -0.3048 -0.0662
31422W        W46553   4.592  15.840  13.770 -0.0939  0.0988  0.2533
31423W        W46554  15.446   4.971   5.441 -0.0152  0.1729  0.2985
31424W        W46555  11.472  12.558  10.805 -0.2804  0.1154  0.0661
31425W        W46556   2.139   0.599   4.735  0.2139  0.0922 -0.2138
31426W        W46557  13.695   5.794   5.198 -0.1428 -0.0519  0.0606
31427W        W46558  15.002  14.725  15.095  0.0597 -0.2281  0.0139
31428W        W46559   8.074   4.379  14.556  0.1179  0.0884 -0.0703
31429W        W46560   9.780   2.808  10.907  0.0361  0.0267 -0.0274
31430W        W46561  13.898  10.051  14.737  0.1613 -0.2913  0.0845
31431W        W46562  11.573   7.962   3.306  0.0199  0.0331  0.0161
31432W        W46563  13.668  15.775   0.840  0.0773 -0.1853 -0.0006
31433W        W46564   7.532   7.332  10.167 -0.0510 -0.3800 -0.1146
31434W        W46565  17.421   3.183  15.900  0.3668  0.0664 -0.2082
31435W        W46566  16.925   9.852   0.261  0.1558  0.4980 -0.0681
31436W        W46567  16.364   2.900   3.229  0.2641  0.2790 -0.0790
31437W        W46568  10.546  16.556   4.683 -0.2752  0.1479  0.0610
31438W        W46569   2.102   3.768   0.918  0.4096  0.0382  0.1598
31439W        W46570  17.279   3.139   2.066  0.1153  0.1403 -0.3013
31440W        W46571   0.502  15.320   2.213  0.2380 -0.1217  0.0998
31441W        W46572  13.894   0.552  14.344 -0.1565 -0.0475  0.0108
31442W        W46573   2.116   5.206  12.783  0.3004 -0.0427 -0.1424
31443W        W46574   4.521   2.180  12.856  0.0826  0.0240 -0.3557
31444W        W46575   2.770  13.580   2.861 -0.1578 -0.0318 -0.0641
31445W        W46576   8.082   1.491  13.750  0.1091  0.1343 -0.4447
31446W        W46577   9.567   5.137  15.451 -0.1468 -0.0716 -0.1012
31447W        W46578  13.729  15.780   5.364  0.0631  0.0164 -0.1898
31448W        W46579   6.527  11.512   2.325  0.0393  0.1457  0.2705
31449W        W46580  13.464   2.917   0.125  0.2609  0.3701  0.3386
31450W        W46581  13.900   6.754  11.630 -0.0717 -0.0273 -0.2260
31451W        W46582  12.049   7.343   0.030 -0.0735 -0.2037  0.2773
31452W        W46583   1.479   3.234   0.759  0.2213  0.2846  0.0581
31453W        W46584   0.147   5.504  11.178  0.1696 -0.1797  0.2734
31454W        W46585   3.518  14.605   0.131 -0.2868 -0.1110  0.2553
31455W        W46586   5.620  10.342   0.624 -0.2143  0.0353  0.1527
31456W        W46587   8.708   4.778  15.474 -0.0822  0.0932  0.1753
31457W        W46588   6.127   9.259   1.453  0.1566  0.4011 -0.2080
31458W        W46589  10.712  12.207  10.887 -0.0106 -0.3430  0.0257
31459W        W46590  17.775  16.962  12.058 -0.0531 -0.1447 -0.1315
31460W        W46591   6.487   1.597  15.845  0.4009 -0.2312  0.0236
31461W        W46592   3.435   0.303  14.386 -0.0930 -0.3720 -0.1901
31462W        W46593   7.038  10.027   3.317  0.2394 -0.1526  0.4157
31463W        W46594  10.113  11.842  15.809  0.1190  0.0918  0.0237
31464W        W46595   5.243   6.813  13.152 -0.2262 -0.0795  0.1631
31465W        W46596   4.769   0.732  14.832  0.1256  0.2279  0.1384
31466W        W46597  14.470  10.033  10.220  0.2017  0.0694 -0.0313
31467W        W46598  18.072  11.794   0.936  0.4145  0.1230 -0.3306
31468W        W46599   0.945  14.227   4.257 -0.0984 -0.0639 -0.1515
31469W        W46600   1.090   8.690   4.576 -0.1876  0.2227 -0.1711
31470W        W46601  14.342   5.286   4.152  0.0836 -0.1334  0.1209
31471W        W46602   2.227   3.511   4.951  0.0552 -0.3676 -0.1573
31472W        W46603   2.199  13.526  13.827 -0.3085  0.0199  0.0346
31473W        W46604   2.753   8.764  11.004  0.0488 -0.0785 -0.2059
31474W        W46605  10.802   2.288   5.744 -0.2562  0.0899  0.0464
31475W        W46606  15.372   4.084  14.437  0.0537 -0.1805  0.0929
31476W        W46607   4.252   7.093  12.900  0.2343 -0.0056  0.2972
31477W        W46608  15.814  12.896   5.762 -0.3078 -0.0835 -0.0356
31478W        W46609   1.213   4.077   4.388 -0.0925  0.1785 -0.0132
31479W        W46610  14.841   6.906   0.805 -0.1685 -0.1797  0.3338
31480W        W46611   6.688   9.788  14.507 -0.2238 -0.3533  0.3351
31481W        W46612  16.215  11.136  13.038  0.0628  0.1656 -0.1436
31482W        W46613   6.124   0.609   2.287  0.2652  0.2146  0.2027
31483W        W46614  11.636   5.230  14.355 -0.3355 -0.1343  0.1034
31484W        W46615   7.657  10.996   1.690 -0.0665  0.1853  0.2261
31485W        W46616   9.900   2.128   0.994 -0.0061 -0.2601  0.3261
31486W        W46617   2.683  11.977   4.129 -0.0618  0.1027 -0.3328
31487W        W46618   6.166  11.394   1.884 -0.1070 -0.2716 -0.1151
31488W        W46619   2.743   7.425  14.583  0.0547 -0.0992 -0.0284
31489W        W46620   7.314   5.657  14.181  0.4127  0.1408 -0.4145
31490W        W46621  17.317   4.152   4.323  0.0047 -0.4301  0.3359
31491W        W46622  14.985   1.995  11.079 -0.2604 -0.2337  0.1765
31492W        W46623   4.619   1.606   5.138  0.1297 -0.0702 -0.1610
31493W        W46624   3.420   8.788   3.775  0.0929 -0.0891 -0.0726
31494W        W46625   0.633  10.588  12.275 -0.2346  0.1457  0.0581
31495W        W46626   7.304   8.203   9.914  0.1810  0.0392 -0.1320
31496W        W46627  14.786  13.520   2.758  0.1098  0.0252 -0.1444
31497W        W46628  15.600  18.054  11.450  0.0357  0.0897  0.1635
31498W        W46629   6.736  12.025  11.546  0.0450  0.2563 -0.0221
31499W        W46630   5.546   9.111   5.234 -0.2766 -0.3361  0.3151
31500W        W46631   7.918  14.975   0.520 -0.0042 -0.0300 -0.0714
31501W        W46632  17.337   1.846   4.875  0.0579  0.0657  0.1377
31502W        W46633   5.320   0.283   5.312 -0.0308 -0.1904  0.1456
31503W        W46634   9.021   0.020   4.629  0.0109 -0.0489 -0.1894
31504W        W46635   2.494   9.671   5.734 -0.2854  0.0352  0.2282
31505W        W46636   1.166   9.766  11.311 -0.2342 -0.3642 -0.1206
31506W        W46637  17.325   3.218   1.102 -0.0239  0.2237  0.0451
31507W        W46638   6.895   5.516  14.452 -0.2142  0.0998 -0.1976
31508W        W46639   6.680   3.063   3.651 -0.3359 -0.0194 -0.1198
31509W        W46640   1.911  13.869   0.329  0.1013 -0.2076  0.2192
31510W        W46641   8.749   9.001  14.847 -0.2989  0.0640  0.0545
31511W        W46642  14.182  12.089  10.444  0.0099 -0.1124  0.1075
31512W        W46643  13.960  16.499   0.384 -0.0948 -0.3172  0.1183
31513W        W46644  14.047  15.842  14.040  0.0331  0.3182 -0.1474
31514W        W46645  14.277  13.025   1.357  0.1253  0.0079  0.2755
31515W        W46646  15.829  17.436  11.893 -0.2906  0.0849 -0.1937
31516W        W46647  15.877  15.478  12.512 -0.1987  0.0344 -0.0438
31517W        W46648   1.210   8.348   0.360  0.0350 -0.0741 -0.0260
31518W        W46649   1.805  11.570   0.114  0.0226  0.0757  0.1186
31519W        W46650  15.192  13.099   4.878  0.1997  0.1262  0.0204
31520W        W46651  13.423  13.221   4.083 -0.1982 -0.0400 -0.1942
31521W        W46652   7.366  15.964  14.968 -0.2749  0.1892 -0.1868
31522W        W46653   5.737   1.083  13.037  0.1211  0.0396 -0.0963
31523W        W46654  16.481   8.465  11.043 -0.1452  0.0911  0.4364
31524W        W46655  12.876   3.884   1.409  0.0824 -0.0004  0.2740
31525W        W46656   0.549  17.355   4.123  0.1794  0.1968 -0.2100
31526W        W46657   0.360  14.384   5.117 -0.1073 -0.0484  0.0254
31527W        W46658  14.946   3.189   2.221  0.1401  0.2563  0.0807
31528W        W46659  17.573   6.348  11.800 -0.2050 -0.3036 -0.3395
31529W        W46660   0.171  18.161  12.804 -0.3308  0.0084 -0.0023
31530W        W46661   8.617   6.168  12.972 -0.1783 -0.0339 -0.0927
31531W        W46662   7.333  17.439   3.260 -0.1985  0.2788  0.1038
31532W        W46663   8.303   3.294   0.395  0.0428  0.0890  0.3548
31533W        W46664   9.890   6.647   1.411  0.1335  0.0340 -0.3235
31534W        W46665   2.235   9.534   3.675  0.0709  0.0391  0.0108
31535W        W46666  12.795  14.539  10.583 -0.0451 -0.0406 -0.0260
31536W        W46667   7.386   4.085   1.253 -0.1700 -0.1198  0.0698
31537W        W46668   0.320  12.388  13.851  0.5130  0.1517 -0.2003
31538W        W46669  14.134  11.359  13.390  0.0255  0.0212 -0.3153
31539W        W46670   2.932   4.723   5.195 -0.2788 -0.0126 -0.0890
31540W        W46671   3.789   2.250  11.613  0.0182  0.2296 -0.2712
31541W        W46672   2.993   4.885  15.999 -0.0461 -0.0496  0.0638
31542W        W46673   7.098   3.381   0.934 -0.2637 -0.0109 -0.2123
31543W        W46674   6.206   6.508  14.785 -0.1462  0.0337 -0.0265
31544W        W46675   9.820  16.845   5.065 -0.0455  0.0610  0.0993
31545W        W46676  16.432   1.267   6.121 -0.0163  0.0992 -0.2436
31546W        W46677  16.494  11.464  16.009 -0.0545 -0.3601 -0.2474
31547W        W46678   7.966  14.499  13.815  0.1780  0.1151  0.2086
31548W        W46679  16.459   4.316  11.657  0.1408  0.1331  0.0377
31549W        W46680   4.416  10.659  14.297 -0.0708  0.1066 -0.3712
31550W        W46681   9.185   4.216   0.565 -0.1044  0.0154 -0.2767
31551W        W46682   3.466   9.057  15.825 -0.0103 -0.1490  0.1978
31552W        W46683   1.572   6.467  12.484 -0.0931  0.0039 -0.2093
31553W        W46684  12.866  16.205   3.862  0.0007  0.2473 -0.0279
31554W        W46685  15.118  16.167  15.062 -0.4112  0.3208 -0.0090
31555W        W46686   3.027  17.949  15.162  0.1377  0.0625 -0.1769
31556W        W46687  12.502   9.058   5.252  0.0756  0.2099  0.0138
31557W        W46688   9.906  13.405   0.594 -0.5238 -0.0448 -0.0369
31558W        W46689   1.157   6.310   2.673 -0.1594  0.0947  0.0381
31559W        W46690  10.366  13.421  12.096  0.0422 -0.1996  0.2773
31560W        W46691   4.069   0.859   3.613  0.0136 -0.1285 -0.0644
31561W        W46692   5.675   0.689   3.582 -0.3261 -0.1116 -0.2802
31562W        W46693  16.395   6.028   4.247  0.2781 -0.2317 -0.2251
31563W        W46694   7.102  14.194   5.124  0.2355  0.3403  0.0256
31564W        W46695   9.221   7.676   0.486  0.1898 -0.0284 -0.1405
31565W        W46696  10.203   9.543  12.634 -0.4101 -0.2412 -0.0628
31566W        W46697   6.121  17.107  11.860  0.0093  0.1410 -0.0729
31567W        W46698   1.327   5.567   5.196  0.2463  0.2114 -0.2183
31568W        W46699   4.352  14.561  11.158 -0.1353 -0.2977 -0.4383
31569W        W46700  11.473   3.720  16.017 -0.3036  0.1806  0.1400
31570W        W46701  11.447   7.946   2.235  0.1461  0.0733  0.0870
31571W        W46702  14.094  15.147  14.873 -0.0219 -0.1041 -0.1968
31572W        W46703   1.419   7.830   0.810  0.1303 -0.0014 -0.1359
31573W        W46704   5.424  12.399   5.101 -0.4572 -0.4228 -0.0782
31574W        W46705   4.381  11.670  13.296 -0.1196 -0.4258 -0.0919
31575W        W46706   6.515   2.619   4.166  0.0749 -0.1639 -0.0820
31576W        W46707   4.200   4.088  15.036  0.0732  0.3121 -0.0767
31577W        W46708   5.519  12.019  12.511  0.2430  0.0861  0.1632
31578W        W46709  16.200  10.706   3.456 -0.0996 -0.0771 -0.2153
31579W        W46710   9.481   9.476  13.366 -0.0759  0.0069  0.2191
31580W        W46711  12.261  12.046   0.829 -0.1655  0.2032  0.0475
31581W        W46712   7.768   6.321  12.077  0.2140 -0.1787 -0.0059
31582W        W46713   0.624  13.670  11.932 -0.0500 -0.1205 -0.0766
31583W        W46714   4.961   3.155  12.973 -0.3544 -0.0026  0.0107
31584W        W46715  11.209  15.541  14.102  0.2129 -0.0462  0.2637
31585W        W46716  10.379  17.834   3.831  0.1941  0.1819 -0.1596
31586W        W46717   7.962  10.194   3.644 -0.3495  0.0757 -0.2550
31587W        W46718   6.536  11.603   0.902  0.0163  0.2425  0.1888
31588W        W46719  16.226   7.148  14.026 -0.2099  0.0018 -0.0155
31589W        W46720  14.159  14.178  12.541 -0.1367 -0.2420  0.4443
31590W        W46721  17.836  18.014   4.828  0.1268 -0.1217  0.1631
31591W        W46722  16.005  10.140   4.253  0.0373 -0.1253 -0.0649
31592W        W46723  15.912   0.982  14.183  0.1358 -0.2381  0.1349
31593W        W46724  14.316   7.319  11.486 -0.0694  0.1309 -0.1651
31594W        W46725   8.889   1.687   4.555 -0.1942 -0.2786 -0.4152
31595W        W46726   2.725   6.422  14.589  0.0536  0.0732 -0.1640
31596W        W46727   9.755  12.803   0.334  0.3189  0.0510  0.1336
31597W        W46728  11.568  17.356   3.505 -0.1469  0.0771 -0.2485
31598W        W46729  10.213   4.386  11.542  0.0976  0.0465 -0.0565
31599W        W46730   8.246  10.574   2.576 -0.2840 -0.0594  0.1104
31600W        W46731  11.854  14.090  15.368  0.1885  0.1085  0.0354
31601W        W46732   0.876   9.619  12.826  0.0113 -0.0858  0.0799
31602W        W46733   1.224   3.659  10.971  0.2373  0.2082  0.0310
31603W        W46734   4.861   1.414   2.262  0.2730 -0.1234 -0.1256
31604W        W46735   6.131   9.789   3.433 -0.1089 -0.1725  0.4627
31605W        W46736   9.154   3.361   6.523  0.4507  0.1974 -0.1733
31606W        W46737  14.157   3.544  12.771 -0.1044  0.2854 -0.1568
31607W        W46738   6.466   5.538   1.124 -0.1463 -0.1408  0.0593
31608W        W46739   3.788  15.960   1.711  0.1310  0.0733 -0.2232
31609W        W46740   3.581   6.604  14.598  0.3662  0.1071 -0.0020
31610W        W46741  12.313  16.738  11.109 -0.0273 -0.3955 -0.0669
31611W        W46742   7.999   9.270  14.533 -0.0802  0.1694  0.0892
31612W        W46743   7.922  17.736  12.600 -0.0636 -0.1557 -0.0095
31613W        W46744   3.456   8.960  12.647 -0.2638 -0.3250  0.3189
31614W        W46745  11.800  16.406   0.551 -0.1682  0.1680 -0.2767
31615W        W46746  16.751   8.877  14.079  0.2007  0.3525  0.2547
31616W        W46747  10.272   8.377  14.431  0.2677 -0.0944 -0.0599
31617W        W46748   8.616  16.307  11.157 -0.1455  0.1211 -0.3112
31618W        W46749   0.426   7.324  14.616  0.1395  0.2287  0.2376
31619W        W46750  12.406  16.551   2.176 -0.2690 -0.1513 -0.1215
31620W        W46751   9.924   3.618   0.313  0.0923 -0.0490  0.0763
31621W        W46752  17.866   2.983  16.126  0.0820  0.1074 -0.1275
31622W        W46753  10.564   6.969  11.601  0.0703 -0.0714  0.0420
31623W        W46754   0.871   9.316   3.674  0.2450  0.0254 -0.1731
31624W        W46755   2.907   8.271  14.936  0.0746 -0.2888  0.0490
31625W        W46756  13.171  11.533  12.816  0.0929  0.0369  0.0258
31626W        W46757  17.506   7.511  15.873 -0.0018  0.4471  0.3727
31627W        W46758   8.388   6.487   2.820 -0.4534  0.0041 -0.2229
31628W        W46759  16.843   2.722  13.090 -0.0895 -0.1846  0.1462
31629W        W46760   0.356   7.813   0.547  0.0085 -0.0081 -0.0966
31630W        W46761  12.677  16.828  15.218  0.1317  0.3113  0.3858
31631W        W46762   8.271   4.505  13.013  0.1332  0.3804 -0.0719
31632W        W46763  11.215  10.039   4.386  0.2666 -0.1064  0.2288
31633W        W46764  17.073  17.932   1.534 -0.0722  0.1030 -0.0290
31634W        W46765   3.462  11.072  10.648 -0.1105 -0.0618  0.2437
31635W        W46766  12.660   0.500  12.873 -0.0015 -0.0074  0.0914
31636W        W46767   7.998  17.237  14.542 -0.0665 -0.0682  0.0408
31637W        W46768  11.894   4.096   0.802  0.0261  0.3245 -0.0954
31638W        W46769   2.849   2.036  10.733 -0.1466 -0.0539  0.2442
31639W        W46770  16.716  17.453  14.302  0.2045 -0.2600  0.1010
31640W        W46771   2.198   7.873   0.272 -0.0057  0.2024  0.0411
31641W        W46772   4.090   7.409   0.191  0.0259 -0.0178  0.0709
31642W        W46773  10.579   0.831   5.135 -0.0452  0.0161  0.3894
31643W        W46774  16.025   9.783  12.000 -0.0087 -0.1272 -0.3778
31644W        W46775   2.179   7.812   1.119 -0.3910 -0.0794 -0.3600
31645W        W46776  11.121  11.207  11.299 -0.2841  0.0139 -0.0595
31646W        W46777   1.843  14.947  11.554  0.2720  0.0941 -0.0113
31647W        W46778  11.089  11.617  14.083  0.1760 -0.1024  0.1609
31648W        W46779   4.334   9.999   0.189  0.1738 -0.1471  0.3350
31649W        W46780  11.755  17.336   3.991 -0.2809 -0.3016  0.0948
31650W        W46781   7.018   4.155  15.898 -0.1761  0.0677 -0.0703
31651W        W46782  10.975   8.070  15.263 -0.0221 -0.0052 -0.0958
31652W        W46783   2.529   6.233  13.346 -0.1816 -0.1058 -0.0050
31653W        W46784   1.617   4.383   2.596  0.0452 -0.0035  0.1183
31654W        W46785   8.201   5.640   5.732  0.0806 -0.0828 -0.2890
31655W        W46786   2.045  13.421  14.293 -0.1547 -0.0286  0.0378
31656W        W46787  16.311   0.644  13.296  0.0713  0.2747  0.0322
31657W        W46788  15.805   0.954   5.191 -0.1953 -0.0088  0.1544
31658W        W46789   3.144  16.372   4.299 -0.2156  0.0001 -0.0306
31659W        W46790  16.990   7.632  15.123  0.0917  0.1236  0.1308
31660W        W46791  17.729   7.145  11.271 -0.3469  0.1151  0.4244
31661W        W46792  15.984   7.013  12.547 -0.2047  0.1403 -0.0542
31662W        W46793  12.324   6.189  15.511 -0.0457 -0.1049 -0.1305
31663W        W46794  14.530  10.301   3.062 -0.0963 -0.2760  0.3386
31664W        W46795   2.393   6.535  13.742  0.1299 -0.1546  0.1908
31665W        W46796   3.648   6.704  11.635 -0.0662 -0.2394  0.0833
31666W        W46797   0.493   5.556  15.852 -0.1912  0.1278  0.1365
31667W        W46798  12.962   5.082  11.742  0.0664  0.0751  0.0526
31668W        W46799   9.795  10.763  13.925  0.1119  0.0051 -0.2501
31669W        W46800  14.471  11.198  10.878 -0.1074 -0.2863  0.1807
31670W        W46801  15.113   7.429   5.429  0.0909  0.2544  0.1702
31671W        W46802  14.617   5.161  13.985 -0.1129 -0.0140  0.1705
31672W        W46803   1.759  12.054  16.232 -0.0195 -0.2281  0.1868
31673W        W46804   2.777  16.283  13.803 -0.1766 -0.0381  0.0708
31674W        W46805   8.151  17.235   2.723  0.0714  0.1952  0.0791
31675W        W46806   4.189   6.831  15.339  0.2555 -0.3016  0.2654
31676W        W46807   8.445   5.366   0.326  0.1118  0.1726 -0.0147
31677W        W46808   6.346  13.666  13.366  0.0013  0.1529 -0.1523
31678W        W46809   4.437   1.412   3.176 -0.0556 -0.1845 -0.2615
31679W        W46810   5.341   3.462  13.030  0.1903 -0.0900 -0.0117
31680W        W46811  15.212   6.577  15.580 -0.2362  0.1009 -0.0409
31681W        W46812   3.732   2.982   1.865  0.0349 -0.1309 -0.1749
31682W        W46813   5.704   9.111   1.205 -0.2924  0.0932 -0.1959
31683W        W46814  11.471  16.239   5.519  0.3068  0.0004 -0.1140
31684W        W46815  12.744  14.069  12.819  0.0786 -0.2379 -0.1148
31685W        W46816  18.002   4.137  12.967 -0.0748 -0.1476  0.0269
31686W        W46817  14.414  15.968  12.191 -0.3422 -0.1687  0.1791
31687W        W46818   1.783   6.540  15.397 -0.0922  0.0178 -0.2795
31688W        W46819   3.555  16.804   3.016 -0.2196  0.0013  0.1209
31689W        W46820  11.945  13.812  10.059 -0.2828 -0.3187  0.0138
31690W        W46821   7.088  15.360   3.571  0.0161 -0.0025 -0.1326
31691W        W46822  15.712   0.425   1.289  0.2370 -0.1151  0.0462
31692W        W46823   4.209  12.142   2.615 -0.0484 -0.0103 -0.0498
31693W        W46824  13.618  14.781   1.910 -0.0286 -0.0497 -0.1750
31694W        W46825   8.596   6.081  13.492 -0.1495 -0.1852  0.0728
31695W        W46826  16.070  15.082  15.170 -0.1433  0.0842  0.0859
31696W        W46827   3.872  11.750   1.053  0.0660  0.3620  0.3281
31697W        W46828   2.682  15.155  15.296  0.0029  0.1624 -0.0642
31698W        W46829  11.320  16.701   3.569 -0.0147  0.1427  0.0426
31699W        W46830  13.031  15.325   2.230  0.0582  0.1735 -0.2651
31700W        W46831   5.715  15.307  10.902 -0.1307 -0.1359  0.1321
31701W        W46832  15.427  17.257  12.726  0.1384  0.2100 -0.2204
31702W        W46833   7.860   5.428  12.907 -0.0232  0.2701 -0.2921
31703W        W46834  15.556   8.618  13.824 -0.1562 -0.0562  0.0284
31704W        W46835   4.426   8.174  13.163  0.1650  0.0161  0.2106
31705W        W46836   4.588  10.356  13.813  0.0068 -0.0586 -0.0366
31706W        W46837  17.302   7.101   3.090 -0.1364 -0.1561  0.3493
31707W        W46838   2.896   8.129   4.463  0.2851 -0.0215  0.0397
31708W        W46839   5.347   3.342  15.802 -0.1914 -0.1075  0.0318
31709W        W46840  15.229  13.743   2.854 -0.0238 -0.4750 -0.1519
31710W        W46841   7.642   6.307  16.180  0.1773 -0.1374 -0.1208
31711W        W46842   3.961   3.224  11.721 -0.2050  0.2818 -0.0585
31712W        W46843   3.020   0.771  12.061 -0.0440  0.2772  0.1425
31713W        W46844  11.897   4.294   5.365 -0.2580 -0.1484 -0.0789
31714W        W46845   5.893  15.684   3.444 -0.1204 -0.2741 -0.0884
31715W        W46846  14.196  17.334   1.673 -0.0861  0.1356 -0.0728
31716W        W46847   4.933  11.084  12.142 -0.1038 -0.1679  0.0719
31717W        W46848   9.522   4.264  14.994  0.1293 -0.2173 -0.4377
31718W        W46849  12.939  16.537  11.951  0.0658  0.1046  0.0537
31719W        W46850  16.047  10.151  11.657 -0.0295  0.0572  0.0601
31720W        W46851   7.657   9.489   0.876  0.0528 -0.0216 -0.0591
31721W        W46852   5.933   1.853   5.319  0.0100 -0.0356  0.1073
31722W        W46853  14.229   5.615  15.409 -0.0177  0.2240 -0.0841
31723W        W46854   2.144  12.407   0.077 -0.0257 -0.0279  0.0266
31724W        W46855  12.460  15.533   2.262  0.0787 -0.0230 -0.0663
31725W        W46856   4.913   7.002   4.386  0.0953 -0.4083  0.1398
31726W        W46857  13.561  16.052  13.964  0.2197  0.1593 -0.1518
31727W        W46858  11.762  13.072  14.091 -0.0015  0.2042  0.1539
31728W        W46859  15.180  17.348   1.550 -0.3375  0.0483  0.0699
31729W        W46860  17.705   3.797  13.608  0.3589  0.1040  0.1117
31730W        W46861   1.098  11.319   0.473 -0.4172 -0.2869 -0.1546
31731W        W46862  13.566   5.236  11.137  0.0168 -0.2106  0.2229
31732W        W46863  17.249   1.531  11.160  0.0106 -0.1667 -0.1275
31733W        W46864   5.633   5.794   5.262  0.1971  0.1985 -0.3533
31734W        W46865  11.357  16.313  13.316 -0.1456 -0.2048 -0.4936
31735W        W46866  14.465  14.625   2.787 -0.0968  0.0096  0.0495
31736W        W46867   8.343  15.696   0.294  0.2095 -0.1051  0.1798
31737W        W46868   4.791  12.639   2.696  0.1348  0.1626  0.1363
31738W        W46869  12.217   9.294   4.034 -0.1963  0.0039 -0.2484
31739W        W46870  17.541  12.969  15.650  0.2863 -0.3045 -0.0780
31740W        W46871  11.918   5.546   0.634  0.4113 -0.0090  0.0637
31741W        W46872  14.432   7.624  14.883 -0.0027 -0.0393  0.0377
31742W        W46873   8.862  12.546  13.613  0.2572  0.0059  0.1509
31743W        W46874   4.645   2.656   2.032 -0.1694  0.0922 -0.0839
31744W        W46875  10.485   2.202  11.412  0.0534  0.2646 -0.1157
31745W        W46876  16.034   4.682  12.335 -0.6508  0.0641  0.1449
31746W        W46877   1.286   5.482  15.761  0.1886 -0.1207 -0.0131
31747W        W46878  10.642   7.052  15.603 -0.0681 -0.1360 -0.0245
31748W        W46879  16.762   7.254  15.908  0.2429 -0.1062  0.0417
31749W        W46880   7.187  10.184  15.813  0.0683  0.2137  0.1996
31750W        W46881   1.755   2.765  14.778 -0.0366  0.3808  0.3451
31751W        W46882   3.899   0.612  15.502 -0.0144 -0.0015 -0.0894
31752W        W46883   2.316   3.550  11.290 -0.3466  0.0921  0.0855
31753W        W46884  15.229  10.435   4.067 -0.0568 -0.0982  0.1913
31754W        W46885   4.354   7.842  12.416  0.0261 -0.3478  0.1514
31755W        W46886   2.121  10.488   2.735  0.0246  0.1991 -0.2699
31756W        W46887   7.028   7.015   1.880 -0.2745 -0.1678  0.0119
31757W        W46888   0.947   6.443  15.665 -0.0200  0.0952  0.2487
31758W        W46889  14.528  12.961  10.500  0.2260  0.0890  0.1585
31759W        W46890  10.832  12.682   3.343  0.2815  0.0370  0.0961
31760W        W46891   7.788  16.033  15.799  0.0437 -0.2372 -0.2813
31761W        W46892  10.864   1.171   4.880  0.1018  0.1464 -0.0229
31762W        W46893   9.033   5.035  12.646 -0.0706 -0.1218  0.0208
31763W        W46894  10.653   7.131  13.057  0.2598  0.0161  0.3841
31764W        W46895  15.654  14.587   3.095 -0.0658 -0.0266 -0.0571
31765W        W46896  14.262   5.818   1.199 -0.2654 -0.1794 -0.1967
31766W        W46897  12.339   3.485  14.961 -0.0152 -0.0408  0.2208
31767W        W46898  13.051   7.681   4.607 -0.2860  0.1057 -0.1497
31768W        W46899   9.751  16.523  11.271  0.1421  0.1832 -0.2016
31769W        W46900   8.291   5.652   2.293 -0.0673  0.1045 -0.2590
31770W        W46901  16.136  15.515  14.926 -0.0251 -0.3324 -0.0321
31771W        W46902   6.833   7.560  12.922  0.3119  0.4819 -0.1705
31772W        W46903  17.441  12.785  12.920 -0.1167  0.2614 -0.2346
31773W        W46904  13.835   6.081   6.043 -0.0028 -0.4234  0.1940
31774W        W46905   6.343  10.485   2.478 -0.0968  0.0483 -0.2615
31775W        W46906   8.162  10.492  10.066  0.2729 -0.1116  0.0663
31776W        W46907  17.299   5.478   0.206  0.3805  0.2070 -0.1295
31777W        W46908   5.281   2.360   1.064  0.1115  0.2317  0.3241
31778W        W46909  16.242   6.482   0.640 -0.0131 -0.2246  0.0759
31779W        W46910  13.897   7.147  10.480 -0.1253 -0.1129 -0.0006
31780W        W46911   6.929   1.380  14.742 -0.1383 -0.1417  0.0071
31781W        W46912  16.450  14.066  11.857  0.1576  0.0671  0.1222
31782W        W46913   6.251  15.579   2.356  0.3228  0.1226  0.0117
31783W        W46914  12.322  14.170   3.449  0.0011  0.0044  0.0400
31784W        W46915   7.569   4.590   2.852  0.1379  0.0883  0.1686
31785W        W46916  17.025  16.826   4.193  0.0903 -0.3087 -0.4995
31786W        W46917   1.968   4.839   3.375  0.1034  0.1430  0.0508
31787W        W46918   8.108   5.450  14.707 -0.0114 -0.0304 -0.1614
31788W        W46919  12.088   0.982   5.188  0.1327 -0.0834 -0.1721
31789W        W46920   4.514   0.990   1.356  0.1501 -0.0048 -0.0638
31790W        W46921   7.156   9.455   4.534 -0.0874 -0.1469  0.1136
31791W        W46922   1.299  13.331   0.587  0.0021 -0.0045 -0.0905
31792W        W46923   2.956  13.713   3.376 -0.2522  0.0582 -0.0696
31793W        W46924   6.143   1.627  11.791 -0.4612 -0.4774 -0.1909
31794W        W46925   5.850   7.518   3.536  0.1475  0.0547 -0.0212
31795W        W46926  11.237  11.140  14.281 -0.0656  0.3088  0.1886
31796W        W46927  10.570   0.141   3.874 -0.1066  0.1495 -0.0718
31797W        W46928   7.097  17.306  13.809  0.0180 -0.0474 -0.1197
31798W        W46929  14.888   6.872  10.681  0.0155 -0.0578 -0.0926
31799W        W46930   2.113   3.093  11.079 -0.2408  0.0435  0.0044
31800W        W46931   9.830  15.407   2.853  0.0507 -0.3773  0.0020
31801W        W46932   7.050   2.414  14.290  0.0478 -0.0292  0.1401
31802W        W46933  10.951   0.473   3.530 -0.0935  0.1886 -0.1976
31803W        W46934   9.805  14.636  14.170 -0.4667 -0.3142 -0.3657
31804W        W46935   6.007  17.032   3.257  0.0709 -0.2993 -0.0097
31805W        W46936   4.312  12.492   1.471  0.1423 -0.2410 -0.1572
31806W        W46937  17.914   8.500  13.618  0.0351  0.1443 -0.1685
31807W        W46938  15.333   4.938   1.082  0.0498 -0.3643 -0.1449
31808W        W46939   2.441  13.180   2.819  0.1984 -0.0123  0.1127
31809W        W46940  12.008  11.137   3.502 -0.2782  0.1511 -0.1204
31810W        W46941   5.787  13.535   0.440  0.1159 -0.0932  0.1965
31811W        W46942   1.911   7.155  14.081 -0.2150  0.1294 -0.0191
31812W        W46943   7.364  18.175   4.072  0.0968  0.1635 -0.4136
31813W        W46944  12.340   8.777  12.133  0.0353 -0.1228 -0.0392
31814W        W46945  13.836   4.031   0.321  0.2080 -0.1975  0.0003
31815W        W46946  17.865  17.406  12.408 -0.0746 -0.0859 -0.1222
31816W        W46947   0.492   8.150  14.937  0.0723  0.1281 -0.0519
31817W        W46948  11.003   9.811   5.475 -0.2308 -0.0338  0.0114
31818W        W46949   3.394  16.794   4.064  0.0914 -0.0760  0.0418
31819W        W46950  17.311  13.742   6.024 -0.1549 -0.0032 -0.3799
31820W        W46951  13.366  14.331   1.018 -0.0605 -0.0761  0.2434
31821W        W46952   9.094   1.626  13.637  0.2120  0.0641  0.0303
31822W        W46953   7.494  12.034  16.046  0.1473 -0.1328  0.2274
31823W        W46954   5.714  11.670   4.502  0.2000 -0.0479  0.1359
31824W        W46955   9.441  15.125   3.458  0.1123  0.0884 -0.0205
31825W        W46956   3.572   8.035   3.929  0.0475  0.0488 -0.2323
31826W        W46957   0.540  13.169   4.431  0.3027  0.1274 -0.0270
31827W        W46958  12.790   8.296   4.009  0.0466  0.1674  0.0971
31828W        W46959   5.795  16.639  13.529 -0.1663  0.0254 -0.0445
31829W        W46960  13.139   3.387  12.364  0.0482 -0.0419  0.2167
31830W        W46961   7.574  10.248   4.380 -0.3054  0.2615 -0.1448
31831W        W46962  11.774  15.912   4.746  0.0156 -0.0291  0.1815
31832W        W46963  17.416  16.089  12.661 -0.0535 -0.1640  0.0698
31833W        W46964   1.832   4.859   5.486 -0.1419 -0.0564 -0.1383
31834W        W46965  14.702  15.441  13.313 -0.1246 -0.1075 -0.1225
31835W        W46966   8.157   1.897  13.485  0.0061  0.4000  0.0459
31836W        W46967   5.404  17.836   4.308  0.5611 -0.1450  0.3528
31837W        W46968   6.625  15.122  16.010  0.0879  0.1148  0.0256
31838W        W46969   0.453  10.913  15.917  0.2266  0.0631  0.0517
31839W        W46970   8.662  16.556   2.517  0.0932 -0.2160 -0.0993
31840W        W46971   6.671  16.236   4.800 -0.4341  0.1446  0.0698
31841W        W46972   0.276  13.108  13.997  0.0132  0.1905  0.4603
31842W        W46973  17.152  11.731   2.312 -0.1792  0.2657 -0.1168
31843W        W46974   7.862  15.244  13.601 -0.2841 -0.1059  0.1652
31844W        W46975   5.014  13.707  15.784 -0.0332 -0.1693  0.0410
31845W        W46976  17.724   4.636  11.095  0.1154 -0.0471  0.4909
31846W        W46977  11.815  10.749  12.537  0.1886 -0.0847  0.0032
31847W        W46978   3.179   0.549   4.404  0.0910 -0.0342 -0.0497
31848W        W46979  15.787   0.187  15.613  0.0591  0.2985 -0.0576
31849W        W46980   9.168  12.100   1.454 -0.0246 -0.0296  0.0819
31850W        W46981   2.284   8.304  15.587 -0.0127 -0.0038 -0.1861
31851W        W46982  17.911  12.801   4.882 -0.0416 -0.1092 -0.1752
31852W        W46983   5.168  16.607  10.847 -0.1251 -0.2232 -0.0306
31853W        W46984  15.163   2.224  12.978 -0.0702  0.0842  0.0751
31854W        W46985  17.710  11.474   4.807 -0.1752  0.1249  0.0063
31855W        W46986   2.459  12.023  14.209  0.0979 -0.3110  0.0657
31856W        W46987  10.533   6.388   2.100 -0.1015  0.0503  0.1415
31857W        W46988  10.998  11.807   3.893  0.0052 -0.1598  0.1038
31858W        W46989  12.017   0.580   1.874 -0.0961  0.1087 -0.1897
31859W        W46990  16.756  16.821  12.936 -0.0772 -0.0715 -0.2700
31860W        W46991   9.006   2.799  12.151  0.1343  0.1629  0.1565
31861W        W46992   4.901  14.779  14.091 -0.2581  0.0319 -0.0645
31862W        W46993   1.578  17.109   4.544  0.1955  0.0011  0.0250
31863W        W46994   1.334   4.886  11.812  0.2366 -0.0449  0.1795
31864W        W46995   7.160  10.845   0.946 -0.1027  0.0631 -0.2177
31865W        W46996   7.816  15.849  11.541  0.1886 -0.0457 -0.0969
31866W        W46997   4.269  11.566  11.709  0.3077  0.0496 -0.0987
31867W        W46998   6.702   2.726   3.250  0.1216 -0.2148  0.0131
31868W        W46999  15.049  10.620  13.895 -0.0953  0.1077 -0.0285
31869W        W47000  13.183   5.902   5.275 -0.0711  0.0338 -0.0529
31870W        W47001  18.119  13.768   2.993  0.3983 -0.1404 -0.1214
31871W        W47002  11.058   5.393  12.648  0.0953  0.0378 -0.0645
31872W        W47003   5.081   4.398   4.379  0.0645  0.0540  0.1937
31873W        W47004   0.257  13.962   4.808  0.0827  0.1596  0.2131
31874W        W47005   9.503  13.389   2.665 -0.2452 -0.1236  0.3355
31875W        W47006   0.119   5.117  13.878 -0.3204  0.1669 -0.1199
31876W        W47007   0.900   8.278   0.891 -0.2169  0.1055  0.1853
31877W        W47008  12.185  10.864  14.678 -0.2840 -0.2022 -0.1855
31878W        W47009  12.362  12.027   1.401 -0.0463 -0.3406 -0.0666
31879W        W47010   9.457   9.577   5.373  0.1190 -0.2565  0.2346
31880W        W47011  11.622  10.801  15.016  0.0350 -0.1590  0.2087
31881W        W47012  10.625   9.218  12.733 -0.0837 -0.0278 -0.1788
31882W        W47013  14.998   8.805  12.178  0.0461  0.3389 -0.4378
31883W        W47014   2.545  16.263  14.768  0.0432 -0.1349 -0.4443
31884W        W47015   4.417   6.866  15.824 -0.0267 -0.0380  0.3909
31885W        W47016   5.811   3.170   3.375  0.1593 -0.2152  0.2002
31886W        W47017  15.547  13.545   4.934 -0.2160 -0.0533 -0.0477
31887W        W47018   5.034  14.776   2.697  0.2520 -0.0431  0.1193
31888W        W47019  16.949  12.439   5.981 -0.3621 -0.0008 -0.0768
31889W        W47020  13.652  16.041   1.272 -0.1402  0.0462 -0.1159
31890W        W47021   9.272  13.290  12.895 -0.0754  0.0698 -0.1626
31891W        W47022   7.498  14.520  15.019 -0.0559 -0.1339  0.0286
31892W        W47023   4.683  16.208   1.966 -0.0620 -0.2157 -0.2800
31893W        W47024  13.112   7.371  10.988 -0.0237 -0.1165 -0.0714
31894W        W47025   8.366   5.434  12.961  0.1703 -0.2078 -0.0110
31895W        W47026  13.545   0.831  13.111  0.2224  0.0908 -0.1545
31896W        W47027   9.549  12.472   0.701 -0.1435  0.1659  0.1803
31897W        W47028   4.841   7.610   4.453 -0.3245 -0.3282  0.2771
31898W        W47029   5.991   5.784  16.090 -0.1922  0.0750  0.2894
31899W        W47030  13.947  12.917   5.511 -0.0366  0.2490 -0.1313
31900W        W47031   8.456  17.904  14.554 -0.2757 -0.1362  0.2864
31901W        W47032   8.534  17.694  11.172  0.2425 -0.0700 -0.2203
31902W        W47033  16.316   1.617  13.080 -0.1209  0.0840 -0.0713
31903W        W47034   6.618   3.480  15.411 -0.0944 -0.0363 -0.0285
31904W        W47035  16.484   1.649   0.051 -0.1199  0.1655  0.0970
31905W        W47036   0.703  18.172   3.265 -0.0837 -0.3087  0.0958
31906W        W47037  16.253  11.901  14.579 -0.1228  0.0913 -0.0482
31907W        W47038  16.066   3.971   3.929  0.2108 -0.2692  0.2276
31908W        W47039  16.312  13.052   0.821 -0.0801  0.1399  0.0315
31909W        W47040   9.510   4.434   3.950 -0.2327 -0.1261  0.0180
31910W        W47041   7.193   1.527  13.485 -0.2413 -0.0472 -0.0702
31911W        W47042   9.460   9.474  10.902  0.1593  0.0136  0.1288
31912W        W47043  15.306   9.755  14.837  0.0318  0.1227 -0.2501
31913W        W47044   3.231   8.395  11.069  0.0780  0.3828 -0.1303
31914W        W47045  12.692  16.783   0.218  0.0429  0.2481  0.0256
31915W        W47046   1.844   7.562  12.448 -0.0780 -0.2416  0.2492
31916W        W47047  17.177  15.149  11.576  0.1311  0.1108 -0.3149
31917W        W47048  15.987  11.343   2.693  0.1725  0.2516  0.0415
31918W        W47049  11.638   9.952   4.648  0.2630 -0.0539 -0.1121
31919W        W47050  17.160   6.439  13.195 -0.5022  0.1180  0.0387
31920W        W47051  13.686  14.308  13.304  0.0512 -0.0176 -0.0151
31921W        W47052   4.074   7.350   2.106 -0.1492 -0.2362  0.0399
31922W        W47053   9.701   6.419   0.849 -0.0782 -0.3468 -0.3794
31923W        W47054  15.544  15.598   5.529  0.0944  0.1781  0.3116
31924W        W47055   2.539  13.563  10.490 -0.1763  0.0813 -0.0247
31925W        W47056   2.929   5.541   5.563  0.2411 -0.0648  0.0879
31926W        W47057  13.208  15.325   1.241  0.1304 -0.0612  0.3203
31927W        W47058   7.911   2.848   4.914 -0.4155 -0.2224  0.0985
31928W        W47059  16.710   2.828  10.254  0.2584 -0.2340  0.0809
31929W        W47060   2.838   9.993   5.374 -0.1207  0.2887 -0.1255
31930W        W47061  10.286  10.730  10.896 -0.2153 -0.1406 -0.1294
31931W        W47062  17.924   3.456  10.627 -0.0433 -0.1040 -0.1812
31932W        W47063  11.954  14.279   2.263  0.0433  0.0904  0.0684
31933W        W47064   0.926   9.792  13.581 -0.0530  0.2814 -0.1531
31934W        W47065  16.983   5.859   4.784 -0.1245 -0.2567  0.0157
31935W        W47066  16.268   3.232   0.958  0.0750  0.4280 -0.2066
31936W        W47067  11.918  10.626  11.557  0.1206  0.0171  0.1642
31937W        W47068   6.734   9.258   4.878 -0.0920  0.1082  0.2886
31938W        W47069  15.093   6.319  14.749 -0.0761  0.1857 -0.2068
31939W        W47070   3.552  16.209  12.193 -0.1504 -0.1188  0.1397
31940W        W47071   0.006  15.833  15.823 -0.3807 -0.1195  0.1305
31941W        W47072   6.579  11.369   3.323 -0.1319 -0.1738 -0.0178
31942W        W47073   9.156  16.345  12.384  0.1832  0.0632  0.0723
31943W        W47074  12.682  10.096   5.347 -0.0585 -0.1608 -0.0874
31944W        W47075  13.468   1.455   2.990 -0.2050  0.1519 -0.2853
31945W        W47076  12.308  13.159  11.755 -0.0811  0.2610 -0.1584
31946W        W47077   4.407   7.624  10.935  0.0165 -0.0051  0.0443
31947W        W47078   4.024  13.611   0.728  0.0315  0.0041 -0.0632
31948W        W47079  16.001   7.496  12.497 -0.0803 -0.0602  0.2283
31949W        W47080   2.630  12.812   0.271  0.0537 -0.0690  0.0716
31950W        W47081  11.036  13.462  13.619 -0.0593  0.4130  0.1107
31951W        W47082  15.396   8.981   0.599  0.0410 -0.2651  0.2587
31952W        W47083   0.635   1.389   4.972  0.1906 -0.2052  0.0229
31953W        W47084   6.240  11.697  13.579  0.0078  0.2301 -0.0208
31954W        W47085   8.183  13.486  15.280  0.2377  0.0731  0.2227
31955W        W47086  10.758  14.676   0.685  0.3437 -0.0177 -0.4034
31956W        W47087   6.990   2.500  15.019 -0.3668 -0.2312 -0.1551
31957W        W47088  10.646  13.912   3.911  0.4692 -0.1288  0.0647
31958W        W47089  15.597   1.755   1.533  0.0625  0.0842 -0.2359
31959W        W47090   1.203  18.011  16.068 -0.0679  0.0015 -0.3332
31960W        W47091  17.537  16.332  13.461  0.1196  0.1856  0.0669
31961W        W47092  16.487  15.641   2.859  0.1242 -0.0146 -0.3432
31962W        W47093  17.891  11.026   1.365  0.2433 -0.1045 -0.1785
31963W        W47094   2.900   5.971   5.897 -0.3258  0.1914 -0.0934
31964W        W47095  12.445   8.835   4.807 -0.1258 -0.2543  0.0185
31965W        W47096   0.520   1.390   2.523 -0.1469 -0.0620 -0.0192
31966W        W47097  14.690   7.072   3.848  0.2039 -0.0603 -0.2377
31967W        W47098  10.783  10.608   0.405 -0.0577 -0.0929 -0.1568
31968W        W47099   8.667  14.720  12.497 -0.0350 -0.1367  0.3290
31969W        W47100   2.109   1.001   5.107  0.1912  0.1186 -0.1251
31970W        W47101  13.427  13.514  11.495 -0.1768 -0.2552 -0.0371
31971W        W47102  12.520   5.348   5.034  0.0515 -0.1847  0.1821
31972W        W47103  16.925   6.851   6.410 -0.2803 -0.0078 -0.1766
31973W        W47104   8.225   2.162  11.407  0.1746  0.0074 -0.2778
31974W        W47105  16.436   2.901  12.757  0.0762  0.0301  0.5094
31975W        W47106  12.569  11.115  13.862  0.0249 -0.1010 -0.3424
31976W        W47107  17.931  12.776   2.891 -0.0539 -0.0032  0.1769
31977W        W47108   3.361  16.075  15.240 -0.1505  0.0805  0.1334
31978W        W47109  13.474   9.436  13.753  0.1048 -0.0891 -0.1364
31979W        W47110   1.213  15.762   3.055  0.0198 -0.0151  0.1456
31980W        W47111  16.649   6.527   0.233 -0.0732 -0.0063 -0.0336
31981W        W47112  12.520   7.189   5.286  0.2406  0.1096  0.0654
31982W        W47113   1.259  10.181  11.616  0.1090  0.1341 -0.2652
31983W        W47114   9.954   1.253   5.206 -0.4376  0.2566  0.0305
31984W        W47115  10.374   8.964  14.235 -0.1099  0.2230  0.0586
31985W        W47116   7.079   0.050   2.874  0.1614  0.1526  0.1724
31986W        W47117  17.264   9.005   0.525 -0.1047 -0.1557 -0.1277
31987W        W47118   0.464   5.135  11.260 -0.0344 -0.0598 -0.0358
31988W        W47119   1.235   7.236   4.671 -0.0269  0.0378  0.0043
31989W        W47120  16.707  15.235  11.386  0.1591  0.1900  0.1447
31990W        W47121   8.760   0.396   1.891  0.0778 -0.2516  0.0417
31991W        W47122   3.437   9.518  11.293 -0.0835  0.1780 -0.0033
31992W        W47123  17.944  13.030   1.854 -0.0131 -0.1858 -0.0141
31993W        W47124  11.579  15.785   5.232  0.0323  0.0371 -0.1137
31994W        W47125   7.869   1.144   0.967  0.0355 -0.0591 -0.1703
31995W        W47126  17.576   2.803   1.300 -0.2518  0.0670  0.0430
31996W        W47127  13.360  14.476   4.993 -0.0092  0.2298  0.1153
31997W        W47128  10.495   3.649  15.909  0.0905  0.0825 -0.0807
31998W        W47129  11.710  13.252  13.139  0.0380 -0.1331 -0.0505
31999W        W47130   1.517   6.546   3.012 -0.1742  0.2257 -0.0356
32000W        W47131   5.721  11.538   9.637 -0.0278 -0.2677  0.0914
32001W        W47132  10.741   4.351  11.604 -0.0476 -0.0996 -0.2236
32002W        W47133   6.266   9.695   0.745 -0.1139  0.1095  0.1225
32003W        W47134   4.263   9.636  15.943  0.3088  0.1273 -0.2930
32004W        W47135   6.150   4.795  15.798  0.2643  0.0780  0.2187
32005W        W47136   0.826   3.841  14.812 -0.2420  0.0799  0.0074
32006W        W47137  12.298  13.301  14.131  0.2153 -0.0573  0.0244
32007W        W47138  10.399   1.193  13.283 -0.0979  0.1331 -0.1634
32008W        W47139   1.500   8.994   4.583 -0.0429  0.2252 -0.1950
32009W        W47140  10.155  14.057  13.313 -0.1494  0.2254  0.1631
32010W        W47141   8.577   5.819   5.944  0.2405 -0.0992 -0.1329
32011W        W47142  12.425   6.883   4.302 -0.0177  0.0239 -0.0540
32012W        W47143  14.923   7.816   1.109 -0.2155  0.1107  0.1265
32013W        W47144   0.898   8.439  13.215  0.0052  0.0034  0.0799
32014W        W47145   8.753   1.713  12.622 -0.0456 -0.1164 -0.1166
32015W        W47146  12.202   9.988   2.205 -0.0120 -0.2958  0.0947
32016W        W47147  13.883   8.732   3.230 -0.2103  0.1887 -0.1819
32017W        W47148   2.234  12.572   1.583 -0.0280  0.0540 -0.0001
32018W        W47149  15.013   2.333   1.983 -0.1727 -0.0855 -0.1042
32019W        W47150  12.456   3.646  13.932  0.2503 -0.3828  0.0937
32020W        W47151  10.752   4.556   2.541 -0.0101  0.1017  0.1584
32021W        W47152  10.560   2.153   3.052 -0.1218 -0.1010  0.1280
32022W        W47153  16.004  14.309  11.078  0.2649  0.3636 -0.2047
32023W        W47154  14.172  14.784  16.167  0.0956 -0.1603  0.2372
32024W        W47155   6.455   5.072  15.010  0.1759  0.1615 -0.2363
32025W        W47156   1.230  18.151  13.265 -0.0740 -0.0561 -0.1847
32026W        W47157   6.961   2.838   4.016  0.1104  0.0626  0.2394
32027W        W47158   8.149   2.606  11.606  0.0683  0.0309 -0.0179
32028W        W47159   6.874   8.582   0.543  0.0612  0.0450  0.0756
32029W        W47160   5.312   1.225  16.054 -0.4050 -0.2680  0.1892
32030W        W47161  16.492  11.031   1.116 -0.2387 -0.0795 -0.0260
32031W        W47162  11.533   7.172   5.692  0.1966 -0.3253  0.2258
32032W        W47163   3.063   7.657  14.252  0.0787 -0.0079 -0.0538
32033W        W47164   8.789  11.604   0.165  0.2235 -0.0134  0.1111
32034W        W47165   2.212  12.935   5.134  0.0492 -0.0315  0.2916
32035W        W47166  12.983  10.599   6.080  0.0876  0.4217  0.1126
32036W        W47167   0.165  17.834  10.223 -0.3265 -0.3893  0.2404
32037W        W47168   5.809   9.650   1.593 -0.1175 -0.3644 -0.0524
32038W        W47169  15.285   3.809   1.722 -0.0205 -0.3781  0.1114
32039W        W47170  10.444  16.386   6.141  0.0807 -0.0148 -0.3581
32040W        W47171   2.641   0.588  10.727  0.3107 -0.0006 -0.1031
32041W        W47172  16.904   2.847  15.049  0.2522  0.0923  0.2565
32042W        W47173  13.301  10.092   2.019 -0.0234  0.2869 -0.2336
32043W        W47174  16.422  11.560   1.568 -0.1327 -0.2521 -0.0129
32044W        W47175   6.893  10.993   3.121 -0.0008 -0.3912 -0.2755
32045W        W47176  11.233  12.575  14.237  0.1113 -0.0400 -0.2163
32046W        W47177  11.244   7.883   4.307 -0.0476 -0.1016 -0.1860
32047W        W47178   3.178  15.635   4.696 -0.3305  0.2089  0.1789
32048W        W47179   3.160  17.993  16.126  0.0329 -0.1677  0.2995
32049W        W47180  14.260   1.082   2.820 -0.0598  0.3283 -0.1035
32050W        W47181  10.995   6.598   1.831  0.0280 -0.1602 -0.2305
32051W        W47182   1.067  12.007   1.840  0.1110  0.0686  0.1784
32052W        W47183  16.323   4.218  12.404 -0.0333  0.2022  0.0363
32053W        W47184   7.405  16.178  11.699  0.2870  0.0287 -0.0318
32054W        W47185   2.938  10.739   2.189  0.2250  0.0511 -0.1390
32055W        W47186  13.465   8.457   3.339 -0.1845  0.0483 -0.2052
32056W        W47187  10.248   1.572  13.670 -0.2103  0.0282 -0.0584
32057W        W47188  16.087   6.700   4.230  0.1391  0.0182  0.4045
32058W        W47189  14.359  18.153   6.358  0.2202  0.3124 -0.2096
32059W        W47190   8.198  16.704   3.488 -0.2707 -0.1738  0.0357
32060W        W47191  14.795  17.115   0.037 -0.2361  0.5052 -0.0025
32061W        W47192  14.766  15.219  15.159  0.2015 -0.0162  0.2462
32062W        W47193   2.750   2.150   1.834 -0.2718  0.1618  0.3008
32063W        W47194   7.425  14.184   0.083 -0.0102  0.1662 -0.1720
32064W        W47195   1.298  14.605   1.823 -0.1020  0.2543  0.2715
32065W        W47196  18.013  11.528  11.412 -0.1145 -0.0060 -0.1954
32066W        W47197  15.844   6.417   1.547 -0.3312 -0.0642  0.1748
32067W        W47198   9.562  15.987  10.929 -0.0619  0.0080  0.0575
32068W        W47199  16.054   2.155   2.680  0.0261  0.1045 -0.2474
32069W        W47200   0.297   4.217   2.712  0.1727  0.1373  0.0680
32070W        W47201   9.124   9.228   1.002  0.3696 -0.1783  0.2121
32071W        W47202  13.597  15.761   4.885 -0.0908 -0.0470 -0.2989
32072W        W47203   9.736  11.396   4.461  0.0744  0.2695  0.3819
32073W        W47204   8.062  13.446   4.302 -0.1799  0.1174  0.4325
32074W        W47205   4.407   9.105   9.797 -0.1094 -0.5093  0.0386
32075W        W47206  14.972   6.456   2.112  0.1326 -0.2702  0.3172
32076W        W47207   4.500   1.491   1.511 -0.0726 -0.0667 -0.0472
32077W        W47208   0.617   5.091  12.475  0.1762  0.1704  0.1118
32078W        W47209   0.091   6.149  14.316  0.1223 -0.0149 -0.1602
32079W        W47210   8.291   5.065  12.444 -0.1729  0.2509  0.2999
32080W        W47211  17.280  14.902  15.818  0.4338  0.1177  0.2552
32081W        W47212   9.283   5.548   1.016  0.1189 -0.1591  0.3784
32082W        W47213   4.551  10.377  14.719 -0.0666  0.0940 -0.3080
32083W        W47214   5.731  11.902   5.257  0.1983  0.1898 -0.0727
32084W        W47215   4.892  12.194   0.999 -0.3132  0.2230 -0.3896
32085W        W47216   6.069   2.474  14.154 -0.0061  0.4135 -0.0352
32086W        W47217  17.363   8.935  12.353  0.4635 -0.3041  0.0443
32087W        W47218   2.379  17.698   3.612  0.1433  0.3406 -0.0325
32088W        W47219   0.035   1.161   0.340 -0.3842  0.1472 -0.1385
32089W        W47220  14.591   0.718  11.797 -0.0231  0.1593 -0.0133
32090W        W47221   9.290   6.710  11.571 -0.1807  0.0358 -0.1449
32091W        W47222  11.815  17.233   5.247  0.2059 -0.1092  0.0366
32092W        W47223  12.767   7.446   3.412  0.3562  0.0331  0.1700
32093W        W47224   8.497   6.975  11.815 -0.4114  0.1338  0.2682
32094W        W47225   3.423  18.146   4.287 -0.0629 -0.1441  0.0707
32095W        W47226   3.134   2.876   5.058 -0.0396 -0.2539  0.0292
32096W        W47227   2.758   9.841   3.644  0.1488  0.1677  0.0433
32097W        W47228  13.636   3.114   4.061  0.0803  0.2548  0.0804
32098W        W47229  10.315   9.215  11.334 -0.0379  0.0977 -0.1008
32099W        W47230  17.084  11.139   0.233 -0.0769  0.2967 -0.2415
32100W        W47231  17.486   6.019  13.542 -0.1225 -0.1779 -0.1504
32101W        W47232   3.059   3.324   1.618 -0.1523  0.0283 -0.0665
32102W        W47233   4.099  13.715  14.886 -0.2099  0.2842  0.1665
32103W        W47234  14.153  15.640   5.771  0.2232 -0.0580  0.0070
32104W        W47235  11.363   5.583   2.834 -0.0480 -0.3259 -0.2690
32105W        W47236   6.854   0.319  11.804  0.3083 -0.0353 -0.1343
32106W        W47237   6.917   9.805  13.289 -0.1881 -0.2875  0.1979
32107W        W47238  13.744   0.835   5.450 -0.0027 -0.2518  0.1293
32108W        W47239   1.596   1.666  13.488 -0.0079 -0.0948  0.2501
32109W        W47240   8.090   1.842   0.440  0.2472 -0.0865  0.0302
32110W        W47241  16.866  18.001   3.556 -0.0637  0.1009  0.1273
32111W        W47242  11.846  16.360  11.602 -0.0377  0.0060  0.0263
32112W        W47243   9.783   5.424   4.946  0.2722  0.0002  0.0840
32113W        W47244   5.073   3.964  15.010  0.2778 -0.0075  0.0532
32114W        W47245  16.705   4.356  13.173 -0.4393 -0.0337  0.2225
32115W        W47246   1.427   9.128  13.422 -0.2649 -0.0978 -0.0003
32116W        W47247   9.064  17.434   6.149 -0.0480  0.1208  0.0033
32117W        W47248   7.728   4.702  13.146  0.0509  0.0076 -0.0341
32118W        W47249   3.642  17.027   3.648  0.0202  0.0866  0.0489
32119W        W47250  13.183  15.417  13.222  0.0187 -0.2847 -0.0259
32120W        W47251  13.909  17.351  11.612 -0.3713  0.0796 -0.1419
32121W        W47252   0.826   1.626   5.403 -0.2225 -0.3187  0.0557
32122W        W47253   0.796  11.496   2.245 -0.0654 -0.0049  0.1233
32123W        W47254   3.065  10.482   0.562  0.0410 -0.0393 -0.0246
32124W        W47255   6.615   1.112   5.274  0.1404  0.2418 -0.0172
32125W        W47256   4.743   4.121   5.642  0.0677  0.0443  0.1107
32126W        W47257   2.133   9.601   2.693  0.2862  0.2106  0.0340
32127W        W47258  10.255   0.621  14.459  0.0746 -0.4694  0.2234
32128W        W47259   8.658  15.878  12.228  0.1784  0.0133  0.1105
32129W        W47260   4.438   8.128   2.503  0.2530  0.0779 -0.0511
32130W        W47261  10.209  13.125   4.170  0.1757  0.0434  0.1998
32131W        W47262  12.718  15.103  12.826  0.2486 -0.3990 -0.3455
32132W        W47263   7.362   5.319   5.224 -0.0007 -0.3045 -0.1628
32133W        W47264  13.928   2.656  13.255 -0.0967  0.2520  0.0117
32134W        W47265  12.236   9.580   0.310  0.1346  0.3077 -0.1540
32135W        W47266   3.845  14.591  13.311  0.0783  0.3472  0.0163
32136W        W47267   0.412  14.164  15.673  0.1992 -0.2098  0.0670
32137W        W47268   3.280  13.179   3.537  0.0292 -0.0199  0.0825
32138W        W47269  17.043   1.133  11.516  0.0387 -0.0003 -0.2852
32139W        W47270   3.825   3.100  15.805  0.2090  0.1694  0.0735
32140W        W47271  14.110  10.047  10.552 -0.0602  0.1564 -0.0789
32141W        W47272   4.369  14.630  11.681 -0.3745 -0.1245 -0.0720
32142W        W47273  15.007   3.122  12.600 -0.2386  0.0844 -0.1947
32143W        W47274  17.425   8.202   2.772 -0.3096  0.0323  0.0372
32144W        W47275  11.638  14.135   1.521 -0.0714 -0.3481 -0.1212
32145W        W47276  11.483  14.117  11.721 -0.3471 -0.1734 -0.2210
32146W        W47277  11.506  12.751  12.874 -0.3266 -0.2451  0.1413
32147W        W47278  16.715   0.721   4.769  0.0800  0.2386 -0.1855
32148W        W47279   7.344  16.664   3.506  0.1195  0.0860 -0.0875
32149W        W47280  12.180   0.599   4.380 -0.1100 -0.1538 -0.2072
32150W        W47281   9.966   2.204   3.520 -0.3600 -0.0346 -0.1391
32151W        W47282   7.817  11.554   0.411 -0.0300  0.0802  0.1306
32152W        W47283  16.096  17.759   3.478  0.1998 -0.0542 -0.4388
32153W        W47284   0.755  16.327  13.113  0.0610 -0.0473 -0.1390
32154W        W47285   4.775   9.791  11.786 -0.2327  0.0655 -0.1702
32155W        W47286   5.037   7.850   1.384  0.2777 -0.2222 -0.1852
32156W        W47287   0.753   0.670  11.402  0.0473  0.1584 -0.1729
32157W        W47288  13.846   3.090  16.114 -0.0531  0.2081 -0.0697
32158W        W47289   0.941   5.661   2.242 -0.0253 -0.0261 -0.5459
32159W        W47290   0.710   0.578   5.195  0.2767  0.0799 -0.1031
32160W        W47291  13.219  17.754  12.667 -0.2954  0.2230  0.1815
32161W        W47292  11.230   8.515  12.854  0.1007 -0.0100 -0.0043
32162W        W47293  10.338  15.758   1.555  0.0157 -0.1638 -0.0141
32163W        W47294  10.218  17.815  13.047 -0.1848  0.3721  0.1541
32164W        W47295   9.080  13.013   4.360  0.4118 -0.2310 -0.1977
32165W        W47296   2.296   5.997  13.814 -0.3821  0.0085 -0.2575
32166W        W47297   0.306   2.741  15.432 -0.2705  0.0443 -0.0158
32167W        W47298  13.860   1.287   1.211 -0.2315  0.0210 -0.0538
32168W        W47299   4.790  12.233   3.021  0.1466  0.2484  0.0051
32169W        W47300   5.365  13.363  15.612  0.0975 -0.1365 -0.1612
32170W        W47301  17.503  10.559  16.093 -0.0174  0.0916  0.4246
32171W        W47302  11.178   9.767  11.787 -0.1686 -0.1689  0.2452
32172W        W47303  13.850   8.448   3.752 -0.0954  0.0544  0.0880
32173W        W47304  15.601   5.870   4.331  0.3775 -0.1600 -0.1274
32174W        W47305  10.867   8.919   1.914 -0.1732  0.0550  0.0818
32175W        W47306   7.221  14.504  13.494  0.3568 -0.1113  0.0698
32176W        W47307  17.610  10.722   0.774 -0.0553  0.1126  0.1846
32177W        W47308  17.980   9.701  13.072  0.0239 -0.0124  0.2506
32178W        W47309   2.398   9.617   5.132 -0.0697 -0.2147 -0.1798
32179W        W47310   4.723   7.911  14.419 -0.2271  0.1439 -0.1308
32180W        W47311   8.493   9.159  15.363  0.0720  0.1696 -0.0911
32181W        W47312   4.721  15.998   0.342 -0.0851 -0.0235  0.1555
32182W        W47313   3.580   1.556   3.732  0.0182  0.0904  0.1139
32183W        W47314   2.675   6.399  12.841  0.1335  0.0211 -0.1737
32184W        W47315  16.309  12.151  16.044 -0.1032 -0.2577 -0.1076
32185W        W47316   9.343  10.891   3.976  0.0750  0.2142 -0.0403
32186W        W47317  10.489  10.029   1.975  0.1528 -0.2316  0.1921
32187W        W47318   1.906  16.693   1.401 -0.1867  0.1328 -0.2742
32188W        W47319  17.089   8.918   1.871  0.0309 -0.0488  0.0585
32189W        W47320   0.807  10.499  15.823  0.2532  0.0232  0.0376
32190W        W47321  16.463   7.028   1.523 -0.0619  0.1258 -0.5107
32191W        W47322   5.000  15.223  13.899  0.0334 -0.3027  0.1939
32192W        W47323   6.788   8.967  14.816 -0.1042  0.1398  0.0898
32193W        W47324   2.204   1.728   3.626 -0.1750 -0.0397 -0.3701
32194W        W47325   8.625  15.514  14.364  0.0502  0.0383 -0.1102
32195W        W47326   0.400   8.264   2.238  0.2029 -0.1089  0.1984
32196W        W47327   2.404   3.494  11.773  0.1101  0.0133 -0.1305
32197W        W47328   3.446  13.062  11.963 -0.0272  0.2816  0.1197
32198W        W47329   7.361  12.159   9.766  0.0531 -0.1357 -0.0816
32199W        W47330   4.890  14.797  11.502  0.1092 -0.3461 -0.1798
32200W        W47331  11.995   5.644   4.125 -0.1893  0.0430  0.2868
32201W        W47332  10.857  12.676   3.906  0.0509 -0.5177 -0.0330
32202W        W47333  12.453   5.935  15.954  0.3039 -0.0438  0.1551
32203W        W47334  16.347   0.090  13.894 -0.0837 -0.1875 -0.3210
32204W        W47335  14.269  11.777  13.008 -0.3209 -0.4069 -0.2564
32205W        W47336   6.553   5.844   6.383  0.4925 -0.1202 -0.0113
32206W        W47337  11.722   2.121  13.593 -0.1952  0.1179 -0.0229
32207W        W47338  14.160  11.320  14.576 -0.0147  0.1211 -0.1993
32208W        W47339   2.956  15.427   1.109 -0.2761 -0.2991 -0.0921
32209W        W47340   1.016   0.389  15.913 -0.0016 -0.0809 -0.2552
32210W        W47341   3.933   3.612   2.648 -0.2486 -0.1727  0.2389
32211W        W47342   7.673   8.229  11.872 -0.0089  0.3403  0.2355
32212W        W47343   1.254   8.511  11.880 -0.2222 -0.1386  0.2536
32213W        W47344   5.742   1.900   2.761 -0.1329 -0.2732 -0.2451
32214W        W47345  15.891   1.974  11.320 -0.1180 -0.0542 -0.1409
32215W        W47346  10.870   5.740   5.040 -0.1746 -0.0718 -0.2774
32216W        W47347  13.606   0.473   0.824  0.1186 -0.1031 -0.0662
32217W        W47348  10.976  10.993   4.378 -0.1269 -0.3693 -0.0483
32218W        W47349   9.105  13.924  14.838 -0.5174 -0.1175 -0.1273
32219W        W47350   1.079   9.932  10.282 -0.2179  0.0177 -0.0359
32220W        W47351  16.121   8.536  12.567 -0.2090 -0.2423 -0.1876
32221W        W47352  16.662   9.854   3.779  0.0028  0.0148 -0.2077
32222W        W47353   9.472  15.296   0.055 -0.2002  0.0209 -0.0567
32223W        W47354   1.276   9.181  15.192  0.2252 -0.2356 -0.0752
32224W        W47355   0.102  11.722   1.746  0.0290 -0.0262 -0.1315
32225W        W47356  17.498   2.651  15.780  0.0134  0.0950  0.1202
32226W        W47357  14.985  15.676  14.124 -0.2199  0.0205 -0.0901
32227W        W47358   1.775   5.551  14.325 -0.2121  0.0986  0.0453
32228W        W47359   0.339   6.114  13.109 -0.0743 -0.0868 -0.4992
32229W        W47360   3.205  11.367  10.943 -0.2517  0.2868 -0.1800
32230W        W47361   3.831  15.330   1.640  0.1514 -0.0842  0.1692
32231W        W47362  11.640  14.874   0.384 -0.3652 -0.2956 -0.0195
32232W        W47363  13.223   3.767  12.029  0.0722 -0.0122 -0.1050
32233W        W47364  10.819   1.827   4.719  0.0023  0.1440  0.1854
32234W        W47365  10.295   4.767   1.751  0.0113  0.0037 -0.2031
32235W        W47366   0.600  11.633  13.448 -0.3910  0.2015  0.2509
32236W        W47367   5.373   3.301  11.139 -0.2191  0.3485  0.0025
32237W        W47368  16.805   5.796  13.550 -0.1816 -0.0205  0.0895
32238W        W47369  14.002   7.483   3.748 -0.0775  0.0458 -0.1985
32239W        W47370  14.799  11.809  15.134 -0.4183 -0.0521 -0.1074
32240W        W47371  14.638   2.831   1.427 -0.0194  0.2694  0.1342
32241W        W47372   1.476  17.731  15.705  0.2123  0.0063  0.0580
32242W        W47373  14.780   8.080  13.283  0.1027  0.2410  0.4216
32243W        W47374   0.294  15.407  14.364  0.1456  0.1758 -0.0207
32244W        W47375   5.439  14.022   3.824  0.1696 -0.3645  0.2878
32245W        W47376   7.528   2.252  10.637 -0.2019 -0.2993  0.2537
32246W        W47377   5.060   5.617   3.837  0.0608 -0.1409 -0.1494
32247W        W47378  16.322  10.238   3.567 -0.0136  0.1308  0.1581
32248W        W47379  12.869   1.196   1.720 -0.0052  0.1585  0.0211
32249W        W47380  10.248   4.316  12.980 -0.0505  0.1289  0.1476
32250W        W47381  16.907  11.228  15.554 -0.0804  0.0095  0.0333
32251W        W47382  15.961  13.917  15.964  0.2310 -0.1962  0.2287
32252W        W47383   2.338   3.802   2.298  0.3242 -0.1022  0.1043
32253W        W47384  14.182   3.959   4.385 -0.0398 -0.3043 -0.0000
32254W        W47385   6.396   0.678  10.534  0.2310  0.0672  0.0262
32255W        W47386   1.289  13.890   0.388  0.0129 -0.2173 -0.1953
32256W        W47387   4.901  11.442  13.363  0.1753  0.0231 -0.1499
32257W        W47388   7.343   5.469   1.055 -0.0044 -0.1574  0.1891
32258W        W47389   6.239   6.415  10.704 -0.1026 -0.5529  0.0668
32259W        W47390   2.843   1.447   2.428  0.1752  0.4467 -0.0767
32260W        W47391  10.774   1.224   2.849 -0.0715 -0.0216  0.0042
32261W        W47392   3.361   8.883   3.283  0.1152 -0.1779 -0.2286
32262W        W47393   7.965  14.238   0.079 -0.2112 -0.2616  0.1076
32263W        W47394   2.868  13.562   4.885  0.1311  0.2031  0.1493
32264W        W47395  16.494  14.289  15.662 -0.0479  0.0774 -0.0231
32265W        W47396  14.554   2.834   6.379  0.1271 -0.0323 -0.0288
32266W        W47397  14.411   8.881  16.049  0.0460  0.1181  0.0552
32267W        W47398   7.045  10.366  13.864  0.0957  0.1204  0.2605
32268W        W47399   5.828   8.185   4.099 -0.2531 -0.0913  0.0810
32269W        W47400   9.870  11.663  11.992  0.0593  0.0501  0.1832
32270W        W47401   3.594  10.498  11.817  0.1754 -0.5272  0.0680
32271W        W47402  10.399  14.832  15.428 -0.1790  0.0189  0.2153
32272W        W47403   6.450  10.611   1.595 -0.0268  0.0604  0.1009
32273W        W47404  14.530   8.387  13.855 -0.0482 -0.0282 -0.1539
32274W        W47405   4.036   2.000  13.022  0.2113 -0.3874  0.2061
32275W        W47406  14.004   7.103   5.956 -0.2119 -0.1574 -0.0811
32276W        W47407   7.340   6.074  12.065 -0.0763 -0.1566  0.4677
32277W        W47408  11.365   1.982   1.340  0.2285  0.1495 -0.0348
32278W        W47409   5.163   9.492  12.944  0.4211  0.0619  0.0065
32279W        W47410  10.720  14.701  13.849  0.1562 -0.1215  0.0261
32280W        W47411   6.371   8.669   3.705  0.2786 -0.4169 -0.4031
32281W        W47412  10.099  12.951  15.330  0.1869  0.0158 -0.2748
32282W        W47413  12.141   6.562  11.959  0.0677 -0.1486  0.3456
32283W        W47414   8.101  12.400  14.963  0.2630  0.3535  0.1681
32284W        W47415  11.394  15.118  13.336 -0.0671 -0.0059 -0.0363
32285W        W47416  18.014  16.892  11.557 -0.0021 -0.1302  0.2348
32286W        W47417  12.050   7.099   4.918 -0.0996  0.1352 -0.0088
32287W        W47418  14.972  13.309  16.102 -0.4153 -0.1193  0.3883
32288W        W47419   6.741  11.908  13.913 -0.0784  0.2413  0.0464
32289W        W47420   8.356  15.135   9.988  0.1075  0.0278 -0.0627
32290W        W47421   4.378   5.417   3.218 -0.2859  0.1687 -0.0335
32291W        W47422   5.017   2.150  14.832  0.3799 -0.2009  0.1690
32292W        W47423  10.049   6.508   2.204  0.1668 -0.3908  0.0989
32293W        W47424   2.136   1.799   0.548 -0.2449  0.1104 -0.2511
32294W        W47425   0.666  13.146   4.958  0.0383 -0.2089  0.0252
32295W        W47426   8.076  13.193  15.720  0.2319 -0.2043 -0.0942
32296W        W47427  15.921   5.429  13.012  0.1753 -0.2130  0.1780
32297W        W47428   0.382   2.722   3.644  0.1222  0.1553 -0.0514
32298W        W47429   4.996  10.042  14.835 -0.0600  0.1782  0.1266
32299W        W47430  15.189  15.993   2.262  0.2083  0.0509  0.0599
32300W        W47431   1.188   0.702  12.713 -0.2810 -0.0554 -0.0439
32301W        W47432   8.688  14.484   3.121  0.0697 -0.0434 -0.3238
32302W        W47433  17.545  13.534  12.923  0.1015 -0.4015  0.3444
32303W        W47434  16.631   0.491  14.746  0.0271 -0.3124 -0.0580
32304W        W47435  11.291   5.868   3.497 -0.3267  0.0682 -0.1311
32305W        W47436  13.835  14.323   4.996  0.1834 -0.1707 -0.1915
32306W        W47437  16.476  13.636   2.432  0.3620 -0.2653 -0.1986
32307W        W47438   6.120   2.949  11.806 -0.0298 -0.1407 -0.0572
32308W        W47439  11.187   4.013  11.366  0.3534 -0.2330 -0.0997
32309W        W47440   8.533  12.271   5.543  0.0276  0.4035 -0.0906
32310W        W47441   2.756  11.618  14.229 -0.1727  0.1358 -0.1829
32311W        W47442  12.032   9.653  14.923  0.0206 -0.1178 -0.1428
32312W        W47443   6.632   3.340  14.386  0.1064 -0.3757  0.2245
32313W        W47444   9.854   0.294   1.544 -0.1223  0.3752  0.1831
32314W        W47445   1.031   8.766   0.092  0.1495  0.0447 -0.0993
32315W        W47446   5.757   4.181   0.363 -0.0266 -0.1706 -0.1939
32316W        W47447  14.675  13.296  12.241 -0.2379 -0.1662  0.0485
32317W        W47448  15.527  17.395  13.424  0.1879 -0.0440  0.3141
32318W        W47449   2.654  14.627  11.467 -0.2014  0.1443  0.1052
32319W        W47450   5.398   7.592  16.211 -0.3396  0.1198  0.2640
32320W        W47451  17.232  10.862   5.377 -0.0918  0.2657  0.1149
32321W        W47452   9.517   3.429  12.577  0.0700  0.1105  0.0976
32322W        W47453  13.268  12.833   3.884  0.5594  0.0572 -0.1779
32323W        W47454  13.004   2.125   4.877 -0.1276  0.2401  0.2300
32324W        W47455   6.546  12.102  13.355  0.0876 -0.0357  0.1409
32325W        W47456   2.371   2.157  14.187 -0.1306  0.3356  0.0951
32326W        W47457  16.845  13.488   2.630  0.0369 -0.0703 -0.1699
32327W        W47458   6.567   6.235  14.435 -0.0587 -0.0181 -0.2713
32328W        W47459  17.832  17.921  10.207 -0.0083  0.0324 -0.1496
32329W        W47460   8.498   4.591   4.175  0.0477  0.0026 -0.0555
32330W        W47461  11.083   8.757  14.644 -0.1583  0.0417 -0.0300
32331W        W47462   6.019  12.794  14.370 -0.2474 -0.0174  0.0120
32332W        W47463  16.023  17.040  12.173  0.3218  0.1763 -0.0936
32333W        W47464  10.339  11.998  15.345 -0.0732  0.3398  0.3883
32334W        W47465  13.275   5.372   5.295  0.0125 -0.0721 -0.0036
32335W        W47466  12.451  11.100   1.833 -0.1017  0.2302  0.3843
32336W        W47467  11.511   9.464  10.361 -0.2299 -0.0489  0.0776
32337W        W47468   6.511  13.739   2.964 -0.1114  0.2116 -0.0445
32338W        W47469  10.166  17.475   5.262  0.0927  0.2393 -0.1549
32339W        W47470  12.810   5.452   0.445 -0.0237 -0.1275  0.0459
32340W        W47471  11.544   0.584  11.931 -0.1203 -0.3789 -0.0313
32341W        W47472   3.926   2.962  14.455 -0.2368  0.2050  0.1061
32342W        W47473  16.662  10.668   2.617 -0.0380  0.0036  0.1223
32343W        W47474   8.622  15.947   5.243  0.0425 -0.2658 -0.1799
32344W        W47475   3.163  14.972   4.963 -0.2174  0.1622  0.1834
32345W        W47476   4.224  10.754  11.211 -0.1140  0.0493  0.0432
32346W        W47477   0.396  15.260  12.908 -0.2416 -0.2475 -0.0353
32347W        W47478  11.787   7.531   2.371  0.1866  0.2429  0.2463
32348W        W47479  14.301   1.991   6.190  0.0869 -0.0102 -0.2094
32349W        W47480   5.393   5.622   2.666 -0.2239  0.0782  0.1984
32350W        W47481  15.189  16.918   1.796  0.1019 -0.0176 -0.0369
32351W        W47482   4.603   7.240   2.825  0.0249  0.0663 -0.0272
32352W        W47483  11.712   9.214  11.370  0.0733  0.1464 -0.3247
32353W        W47484  14.437  14.662  13.300  0.0225  0.1020  0.1418
32354W        W47485   2.532   3.805   3.597  0.1858 -0.1296 -0.0197
32355W        W47486   5.669   4.345  14.059  0.2013 -0.0315 -0.1969
32356W        W47487   9.660  13.582  15.450 -0.0378  0.0340  0.1235
32357W        W47488   4.394  12.849   3.704 -0.1366  0.0402 -0.1801
32358W        W47489   8.241  10.854  12.817  0.1667  0.0691  0.1397
32359W        W47490  10.592  10.092  15.159  0.2583  0.2021  0.4391
32360W        W47491   2.480   0.763  13.134  0.0098  0.3148  0.0140
32361W        W47492   0.569   0.037   6.372  0.3051 -0.0355  0.0351
32362W        W47493   0.088  15.127   4.832  0.2754 -0.1025 -0.0702
32363W        W47494  17.529   1.989   0.840 -0.0330 -0.0154  0.2826
32364W        W47495   3.596  15.350   3.737  0.0648  0.0497  0.1992
32365W        W47496   3.942  15.139   1.143  0.1807  0.1527 -0.1776
32366W        W47497   8.601  17.542  13.737  0.0937 -0.4231 -0.0601
32367W        W47498  12.444  12.984  10.995 -0.4445  0.3124 -0.0853
32368W        W47499  11.701  16.591  14.978  0.0122  0.2173  0.0782
32369W        W47500   7.280  11.569  14.644  0.4266  0.1078 -0.1509
32370W        W47501   7.373   5.536  15.558 -0.0959  0.0178 -0.1395
32371W        W47502   0.019  14.658  13.429 -0.0327  0.0893 -0.2245
32372W        W47503   2.258  13.280   1.578  0.1914  0.1184  0.0097
32373W        W47504  16.641   9.439  12.055 -0.0927  0.0771 -0.0514
32374W        W47505   0.464   5.342   4.617 -0.3215 -0.0040 -0.1391
32375W        W47506   3.721   9.429   1.441 -0.1910 -0.0650 -0.0981
32376W        W47507  15.552  17.205   1.944 -0.1928  0.0849  0.4091
32377W        W47508   2.369   3.383   3.938 -0.0266 -0.2370  0.0871
32378W        W47509  11.631  15.089   1.873  0.0569  0.0131 -0.1114
32379W        W47510  14.516   3.077   0.993 -0.1198  0.0093  0.2577
32380W        W47511   4.251   7.482  11.978  0.2066  0.0855 -0.1652
32381W        W47512   6.826   5.181   1.207  0.2068 -0.0932  0.0463
32382W        W47513  13.359  13.383   0.547  0.3133 -0.0147  0.0278
32383W        W47514   0.944   7.218   1.438 -0.4591  0.1626 -0.1898
32384W        W47515   1.976  11.173   2.283 -0.0541  0.1831 -0.1343
32385W        W47516   5.948   6.715   2.456 -0.1841 -0.0319  0.1773
32386W        W47517   6.648  13.967  14.695  0.0384 -0.2145  0.1241
32387W        W47518   9.199   5.529  12.410 -0.1451 -0.2488 -0.3388
32388W        W47519  11.851   4.281  15.475  0.1761  0.1099 -0.3684
32389W        W47520   1.376   5.929  11.505 -0.1875 -0.0209  0.0249
32390W        W47521  16.769  14.969  12.767 -0.1088  0.1789 -0.1514
32391W        W47522   7.958  12.687  13.303 -0.1196  0.2427 -0.0143
32392W        W47523   2.594  12.616  14.873  0.3934  0.1213 -0.2421
32393W        W47524  16.285  17.017  11.108 -0.2522  0.1159 -0.0677
32394W        W47525   2.903   9.347   2.493  0.1330 -0.2762 -0.1574
32395W        W47526   2.180  14.110  12.225 -0.2339  0.1379 -0.0388
32396W        W47527   7.052  15.971   1.072 -0.2033 -0.1178  0.1799
32397W        W47528   6.291  17.337  11.375  0.0354  0.1853 -0.0580
32398W        W47529  16.621   3.773   5.901 -0.1289  0.0778  0.2651
32399W        W47530  16.719   1.057  15.505 -0.1166  0.0758  0.0976
32400W        W47531   1.581   5.995   5.822  0.2477  0.1498 -0.3373
32401W        W47532   0.430   9.545   6.030  0.0108 -0.1905 -0.0371
32402W        W47533   8.333   0.893   5.592 -0.0116  0.0541  0.3166
32403W        W47534   5.453   9.844  12.444 -0.5588  0.0235  0.1304
32404W        W47535   7.567  10.057  14.184  0.1444  0.4138  0.1427
32405W        W47536  12.748   4.920  13.774 -0.0134  0.0683  0.0693
32406W        W47537   8.434  15.732   3.439  0.0548  0.1585  0.1404
32407W        W47538   8.529   1.823   0.144  0.2536 -0.4979 -0.1595
32408W        W47539   7.983  13.387  11.307 -0.1490 -0.0190 -0.1144
32409W        W47540  16.003  16.818   3.144 -0.0725 -0.1417 -0.1217
32410W        W47541  14.336   6.505  14.029 -0.3322 -0.0628 -0.2193
32411W        W47542  10.546   3.862  11.301 -0.1432 -0.0513 -0.0370
32412W        W47543  13.250  15.630  14.387  0.0714  0.4189  0.2811
32413W        W47544   1.728  10.577  15.306  0.0453 -0.0653 -0.0010
32414W        W47545  11.859  15.525  13.403  0.3614  0.0910 -0.0785
32415W        W47546   8.497  13.122  12.558  0.1767 -0.1270 -0.0670
32416W        W47547   8.768   4.264  13.337  0.0805  0.0389 -0.1732
32417W        W47548  17.542   1.062   0.686 -0.1909 -0.0615 -0.4514
32418W        W47549  16.341  16.616   2.217 -0.2606  0.0552  0.0848
32419W        W47550   7.338   4.189  13.924 -0.3595  0.0443 -0.2459
32420W        W47551   2.769   3.021   0.365  0.1248  0.2476 -0.0101
32421W        W47552   1.531   9.869   4.668  0.3899 -0.1430  0.0390
32422W        W47553  13.349   3.946  14.260  0.0908 -0.2040  0.2188
32423W        W47554   4.442   0.602   3.345 -0.2991 -0.2486 -0.2194
32424W        W47555   1.932  15.956  16.057 -0.1047 -0.0295 -0.4439
32425W        W47556   9.052   6.360   0.051  0.3655 -0.2507 -0.0281
32426W        W47557  14.398   7.203  11.980 -0.2279 -0.1519  0.2980
32427W        W47558   9.705  16.566   1.438 -0.0957 -0.0208 -0.1202
32428W        W47559  10.312  11.051   3.755 -0.0057 -0.4930  0.2657
32429W        W47560   8.372   2.315   4.092 -0.1531 -0.1039 -0.2887
32430W        W47561   7.287  10.778  15.210 -0.0943 -0.1129 -0.3550
32431W        W47562   5.942   9.230  11.834 -0.3951 -0.0376 -0.2301
32432W        W47563  13.381  11.502   5.092  0.2295  0.1387  0.1662
32433W        W47564  13.127  13.505   2.179 -0.1765 -0.5071 -0.2074
32434W        W47565   7.321  17.074  14.786 -0.0712  0.3343  0.3341
32435W        W47566  12.359   6.088  10.171 -0.1462  0.1950  0.1094
32436W        W47567  16.672  16.309   3.564  0.0256 -0.1225  0.0436
32437W        W47568   5.297  10.434   1.607  0.5211 -0.2178  0.0813
32438W        W47569   0.226  15.262   1.217 -0.0036 -0.1303 -0.2074
32439W        W47570   3.325   2.376   4.810 -0.0981  0.3032 -0.2154
32440W        W47571  14.871   4.821  14.865 -0.1683  0.2098 -0.0948
32441W        W47572   1.803  11.247  13.997 -0.0684  0.3225 -0.2654
32442W        W47573   4.285   0.027   2.980  0.1651  0.0074  0.1044
32443W        W47574  10.148   6.792   3.672  0.2886 -0.0879 -0.1479
32444W        W47575  12.897  13.281  13.423  0.0930 -0.0024 -0.0607
32445W        W47576   0.408  16.841   3.150 -0.1096 -0.1130  0.0626
32446W        W47577  17.447  17.897  15.332  0.0415  0.1041 -0.0774
32447W        W47578   6.730   9.752   1.050 -0.0680  0.1230 -0.0191
32448W        W47579  16.142  16.872  14.465  0.0977 -0.1503  0.0134
32449W        W47580  13.775  11.124  14.387 -0.0998  0.0477 -0.1878
32450W        W47581   6.311  11.552   3.819 -0.1129  0.1175 -0.2416
32451W        W47582  10.358   0.012   1.630  0.0826  0.2116 -0.1706
32452W        W47583   0.148  11.794   5.086 -0.2872 -0.0170  0.2346
32453W        W47584   6.623  18.053   3.179 -0.1684  0.0891 -0.1221
32454W        W47585   6.952  10.526  11.776  0.0821 -0.0808  0.1681
32455W        W47586  17.641  13.757   3.944  0.2550 -0.0952  0.1285
32456W        W47587   9.933  15.316   0.941 -0.2328 -0.1987  0.0759
32457W        W47588   4.391   2.201  14.364  0.0872 -0.1721  0.2716
32458W        W47589   7.807  16.729   2.116  0.1875  0.1225  0.0967
32459W        W47590  16.803   7.280   2.983 -0.0871  0.2186 -0.0232
32460W        W47591   8.334  14.441   5.457 -0.1147  0.1369  0.1753
32461W        W47592   6.564   0.216  14.600 -0.3995 -0.3610 -0.2151
32462W        W47593  12.023  17.248  11.148 -0.4231 -0.1570  0.1118
32463W        W47594   1.353   1.671   3.480  0.2605 -0.1505 -0.2489
32464W        W47595  15.481  17.943   0.684 -0.4527  0.1734  0.1173
32465W        W47596  12.631  10.124  16.043 -0.0723 -0.0130 -0.0484
32466W        W47597   0.475   2.480   0.034  0.0470  0.3719  0.1208
32467W        W47598  15.007   7.814  11.794 -0.0322  0.0486  0.2332
32468W        W47599   1.009   9.132  13.155  0.1687  0.1191 -0.1223
32469W        W47600  14.984   4.208   6.459 -0.1710  0.1519  0.0601
32470W        W47601  10.267   7.649  14.875  0.0878  0.1654  0.0772
32471W        W47602   0.442   1.720   2.130 -0.0591 -0.0677 -0.0336
32472W        W47603   8.141  11.452   0.804  0.0657  0.1817  0.4147
32473W        W47604   9.268   1.316  11.227 -0.0521 -0.0236 -0.4708
32474W        W47605   2.604   4.685   1.432 -0.0329  0.1439 -0.0570
32475W        W47606   8.135   0.317   3.027  0.0847 -0.0734 -0.0434
32476W        W47607  13.256   2.510   1.355  0.0159  0.1117 -0.2059
32477W        W47608  12.455   7.431   4.194 -0.0785 -0.3770  0.1535
32478W        W47609   7.130  12.070   2.802  0.0726  0.3204  0.1381
32479W        W47610  17.848   9.033  12.320  0.0624  0.0428 -0.0861
32480W        W47611  15.959  15.842   0.765 -0.2669  0.0617 -0.2223
32481W        W47612   1.440   0.960   5.488 -0.0390 -0.0823 -0.0616
32482W        W47613  16.393  12.623  13.661  0.3314 -0.2105  0.0206
32483W        W47614   7.362   6.077  12.739  0.2185 -0.2193 -0.0080
32484W        W47615  13.436   2.277   4.357  0.0020 -0.0116 -0.2251
32485W        W47616   0.287  15.081   4.075 -0.1982 -0.1259  0.2248
32486W        W47617  10.445   7.515  12.738 -0.1462  0.2527 -0.1235
32487W        W47618  11.142  14.190   1.707  0.2301  0.0040 -0.1718
32488W        W47619  14.017  13.006   0.948  0.1721  0.3873  0.0136
32489W        W47620   8.119   9.741  14.633 -0.2459  0.0556 -0.0243
32490W        W47621  17.807  16.572  15.711 -0.1260  0.2321  0.0812
32491W        W47622  17.817   8.354  12.715  0.0437 -0.1274  0.1655
32492W        W47623   8.179  15.452  11.131  0.0670 -0.2042  0.1065
32493W        W47624  17.467  18.014   6.184  0.1483  0.1310  0.0031
32494W        W47625   6.840   6.235  12.809  0.0945  0.0109  0.0263
32495W        W47626   2.587  11.751  15.735 -0.1384  0.0910 -0.1823
32496W        W47627   1.993   8.326   2.004 -0.1176  0.1252 -0.0144
32497W        W47628   8.538   0.741  12.611 -0.1219 -0.3623 -0.1064
32498W        W47629   0.044  12.534   4.115 -0.0389 -0.0261  0.1223
32499W        W47630   7.233   4.369  11.269 -0.1942  0.6483 -0.1968
32500W        W47631   9.305   8.477   5.500  0.2728 -0.1287  0.0955
32501W        W47632  17.189   9.968   5.124  0.1471 -0.1973 -0.0941
32502W        W47633   3.551   9.496  11.815  0.0976  0.2718 -0.1353
32503W        W47634  14.381  10.521  16.035 -0.0183 -0.1386 -0.2564
32504W        W47635   1.207   1.348  10.888  0.1893  0.2995  0.1275
32505W        W47636   3.982  17.106  14.854  0.0201  0.2805  0.1308
32506W        W47637   2.455   0.905  12.177  0.0793 -0.2277 -0.1609
32507W        W47638  10.254   7.512  14.326  0.1016 -0.2142 -0.0536
32508W        W47639  11.153  12.502  15.286  0.1962  0.0545  0.1145
32509W        W47640   2.432  12.705  15.387 -0.0855 -0.1979 -0.2028
32510W        W47641  18.106   3.267  12.712  0.3232  0.0894  0.0816
32511W        W47642   3.949   1.236   3.169 -0.0616 -0.1916 -0.1296
32512W        W47643  10.061   3.577   3.809 -0.0037 -0.0748  0.2217
32513W        W47644   7.686   7.455  13.345 -0.1088  0.1097 -0.2004
32514W        W47645  13.130  14.019   2.300 -0.0470  0.2845  0.0576
32515W        W47646  11.910   1.826  15.746 -0.1412  0.0868 -0.0777
32516W        W47647  10.654  16.876  11.728  0.0697  0.3302  0.1288
32517W        W47648  12.672  14.533  12.851 -0.2243  0.1797  0.0838
32518W        W47649   9.087  11.460  10.846  0.1717 -0.2790 -0.0524
32519W        W47650  11.654   2.165   5.431 -0.2176  0.4727  0.1520
32520W        W47651   1.128   8.434  13.699 -0.0889 -0.1601  0.2100
32521W        W47652  13.774   6.566   0.672 -0.2298  0.0333  0.0399
32522W        W47653   6.346  10.848   1.137  0.5730 -0.2432  0.4963
32523W        W47654  15.383  14.582   4.033 -0.1184 -0.2316  0.0474
32524W        W47655   0.406  15.659   1.841  0.0518  0.1032  0.2424
32525W        W47656  16.382   3.299  11.504 -0.1732 -0.1883 -0.1467
32526W        W47657   3.270  10.924   0.319  0.0640 -0.0070 -0.1747
32527W        W47658   1.566   8.955   3.342  0.2375 -0.0477  0.0206
32528W        W47659   0.089   8.057   3.381  0.2210  0.0566 -0.2664
32529W        W47660   4.745  15.551   2.943 -0.2602  0.2111  0.0916
32530W        W47661   8.889  16.114   2.364  0.0238 -0.1375 -0.0677
32531W        W47662  12.047   1.668   0.781 -0.2725 -0.3253 -0.0497
32532W        W47663   5.953   0.966   4.351 -0.3059  0.1693  0.1381
32533W        W47664  15.118  14.270  13.855 -0.0394  0.1049  0.0251
32534W        W47665  13.034   0.897   3.457  0.0328  0.2093  0.0230
32535W        W47666  16.106  11.030  15.188  0.1875 -0.0850  0.4817
32536W        W47667  17.252  12.733  14.767  0.0412 -0.1857  0.0915
32537W        W47668  14.088   1.268   5.249 -0.1284  0.1153  0.0684
32538W        W47669   0.202  17.424   2.445 -0.1853 -0.2166 -0.2889
32539W        W47670  17.816  12.612  15.472 -0.1278  0.2649  0.2631
32540W        W47671   8.885  10.567   1.697 -0.0688 -0.1798 -0.2346
32541W        W47672  11.314   3.994  14.199  0.0832  0.3945 -0.0341
32542W        W47673  14.172  11.796  15.957  0.1882 -0.2214  0.0410
32543W        W47674   9.331  14.100  10.281 -0.4367  0.0184  0.1226
32544W        W47675   2.386  16.312   5.129  0.0400  0.0399 -0.2134
32545W        W47676  18.023  15.037  12.264 -0.0418  0.0795 -0.0028
32546W        W47677  13.883   2.666   0.226 -0.0609 -0.0376 -0.0264
32547W        W47678   4.055   7.543  12.694  0.0719  0.0573 -0.0187
32548W        W47679   0.641  17.470  14.108  0.0313 -0.1314  0.4839
32549W        W47680  13.361   3.763   1.144 -0.2488 -0.0755 -0.1271
32550W        W47681  16.664   3.777   1.674 -0.2433 -0.1071 -0.2700
32551W        W47682  11.162   1.384  12.002  0.3702  0.1326 -0.0860
32552W        W47683   5.841   3.707   0.256  0.1392  0.1054 -0.1148
32553W        W47684   9.406  17.807   0.682  0.3308  0.1703  0.0565
32554W        W47685   8.729  13.202   1.109 -0.0065  0.2343 -0.1958
32555W        W47686   1.625  10.591   1.584  0.1916 -0.0815 -0.1315
32556W        W47687   8.796   0.062  14.274  0.1916  0.0262  0.1718
32557W        W47688  13.948   8.627   0.555  0.0653  0.1626  0.2496
32558W        W47689  13.720   7.807  12.938 -0.1603  0.1695  0.2028
32559W        W47690   5.411  13.332  12.227 -0.3847  0.0053 -0.2687
32560W        W47691   1.321   3.544   4.378  0.0780  0.1045  0.0389
32561W        W47692  15.310   4.104   3.367  0.0893 -0.0858  0.1249
32562W        W47693  16.595   9.592  14.129 -0.0796 -0.1509 -0.0278
32563W        W47694   6.443   7.791   1.302  0.0564 -0.0272  0.2607
32564W        W47695  17.199   5.274  14.585 -0.1419 -0.0694 -0.0124
32565W        W47696   1.534   0.330   0.432 -0.0056  0.0992  0.0754
32566W        W47697   5.742   6.883   2.923 -0.2706 -0.1719 -0.0524
32567W        W47698   8.774  17.772  13.308  0.2701 -0.1159 -0.3842
32568W        W47699  10.590  13.269  13.831 -0.2722  0.2383 -0.2925
32569W        W47700   3.757   5.365  12.257  0.0808  0.0244  0.1121
32570W        W47701   3.206   0.153   1.039  0.0405  0.3766  0.1444
32571W        W47702   2.505   8.687  12.050 -0.0619 -0.0589  0.2346
32572W        W47703  14.443  10.015   4.261  0.0192  0.5507 -0.1979
32573W        W47704  10.728  16.157  15.892 -0.0790 -0.0801  0.4443
32574W        W47705   8.344   8.199   0.700  0.2700 -0.0373 -0.2902
32575W        W47706   5.593  10.102   1.413 -0.0444  0.1841 -0.0719
32576W        W47707   0.789   5.558   4.879  0.1561 -0.1853 -0.0380
32577W        W47708  11.779  16.846   4.359 -0.0690  0.1307  0.1754
32578W        W47709  11.752  10.971   5.082  0.0704  0.1776 -0.0798
32579W        W47710   0.711  12.052  16.135  0.2382  0.1044  0.2141
32580W        W47711  14.763  10.983  13.267  0.2150 -0.2719  0.2175
32581W        W47712  11.607   5.105  15.889 -0.1312  0.0684 -0.0475
32582W        W47713   8.294  14.684   4.454  0.0446  0.2924 -0.1408
32583W        W47714   8.795   1.409   1.022 -0.2744 -0.0835  0.1184
32584W        W47715  11.858  17.344  14.167  0.2679 -0.2525  0.1976
32585W        W47716  16.608   4.567  12.136 -0.1759 -0.0654 -0.0210
32586W        W47717   8.070   9.450  13.499 -0.0406 -0.0408  0.1839
32587W        W47718  10.544   7.590  12.206  0.3765  0.0669  0.1500
32588W        W47719   5.459   8.513  11.338  0.3606 -0.0246  0.0585
32589W        W47720   4.658   1.372  13.446  0.0922  0.1549 -0.1175
32590W        W47721   7.568   1.544   2.992 -0.0074  0.2317 -0.5287
32591W        W47722   5.569   7.328   0.927 -0.0084  0.0250  0.2572
32592W        W47723   7.363   1.765   5.369 -0.1365  0.3896  0.0660
32593W        W47724  18.137   7.658   3.721  0.2169  0.0937  0.1570
32594W        W47725  16.896   6.060   2.273  0.1909 -0.1393 -0.0714
32595W        W47726   0.810  17.624   2.077  0.0405 -0.0077 -0.2649
32596W        W47727  17.498   9.651  13.176 -0.0757 -0.2034  0.1685
32597W        W47728   7.264  15.244  12.124  0.1348  0.0015 -0.0292
32598W        W47729   5.507  14.538   1.779  0.2223 -0.1424  0.1074
32599W        W47730  13.377  10.302   3.533  0.1716  0.0198 -0.0069
32600W        W47731   2.831   2.874   0.865  0.5073 -0.3376 -0.3140
32601W        W47732  13.706   3.158   6.333 -0.0805  0.1786 -0.0946
32602W        W47733   2.712   6.899  13.633  0.0088 -0.1991 -0.2134
32603W        W47734   4.689  15.071  10.822  0.0994 -0.1402 -0.0938
32604W        W47735   0.382   9.989  14.537 -0.1473 -0.0234  0.0917
32605W        W47736   1.659   7.730  15.881 -0.2217 -0.0626  0.1679
32606W        W47737   0.555  17.712   3.689  0.3953 -0.0619 -0.1145
32607W        W47738  14.522  12.615   3.084 -0.0251  0.2416  0.1711
32608W        W47739  11.973  10.389  12.035 -0.1036  0.0943 -0.0610
32609W        W47740   3.712  16.170  14.079  0.1413 -0.2805  0.0030
32610W        W47741  11.981  17.381   6.169  0.3007 -0.1046  0.0502
32611W        W47742  13.493   3.132  12.562 -0.0001  0.3526  0.0128
32612W        W47743   7.415  14.288  12.130 -0.1045 -0.1601 -0.0589
32613W        W47744  11.824   6.180   2.924  0.1099  0.2123  0.2158
32614W        W47745  11.430   7.663   6.299 -0.0049  0.0257 -0.2927
32615W        W47746   0.089  16.320  12.767  0.1661 -0.0708  0.1601
32616W        W47747  12.443   5.274   0.829  0.3382  0.0804  0.0784
32617W        W47748  15.398  11.909   2.227 -0.2704  0.2616  0.0302
32618W        W47749   1.682   9.240   2.985  0.0441 -0.0558  0.1340
32619W        W47750   4.182  11.912   3.572 -0.1668 -0.2698  0.1842
32620W        W47751  18.027   9.833   0.943 -0.1531  0.2793  0.0479
32621W        W47752  11.831  15.973  10.731  0.6178 -0.0683  0.2059
32622W        W47753   5.234  17.997   4.750  0.1089 -0.1530  0.0144
32623W        W47754   6.978  13.002   4.493  0.1050  0.2779 -0.0529
32624W        W47755   9.948  16.574  13.488 -0.0243 -0.2184  0.3110
32625W        W47756  14.660   1.434   1.958 -0.0565 -0.3618 -0.1051
32626W        W47757   7.074  14.834  10.966  0.0307 -0.0583  0.3383
32627W        W47758  10.246   3.853   5.524  0.0802 -0.0587  0.2483
32628W        W47759   2.703   4.518  12.631  0.0770 -0.1533  0.1591
32629W        W47760  11.762   5.814   2.515  0.2974  0.1280 -0.3804
32630W        W47761   9.751  16.615  15.095  0.3029 -0.1497  0.1657
32631W        W47762   6.144  10.513   0.752 -0.2254 -0.0779 -0.1209
32632W        W47763  12.834   6.082   4.461 -0.1417  0.0134 -0.0740
32633W        W47764  10.329  16.585  15.016  0.0863 -0.0819  0.3582
32634W        W47765   9.121  12.617   1.223 -0.1354 -0.0338 -0.3370
32635W        W47766  15.259  11.422   2.113 -0.2974 -0.0249  0.2823
32636W        W47767   7.187   8.425  12.103 -0.0763  0.3150  0.1072
32637W        W47768  16.644   1.481  13.420  0.0312  0.0800 -0.1697
32638W        W47769  14.833  15.974   3.576  0.0907  0.0862 -0.2095
32639W        W47770   1.690   7.045  12.177 -0.1934 -0.1567 -0.1871
32640W        W47771  16.647   4.493   0.104  0.0875 -0.1071  0.2046
32641W        W47772  17.991  11.092  14.410 -0.0768 -0.0822  0.0838
32642W        W47773   8.260   8.649  12.892 -0.2265  0.2337  0.0473
32643W        W47774   2.214   8.241   3.003  0.2159 -0.0649  0.4360
32644W        W47775  15.817  16.373   2.844 -0.0960  0.2722 -0.3783
32645W        W47776   0.778  17.028  10.554 -0.0974 -0.0905  0.1662
32646W        W47777   4.334   4.883   4.633 -0.0660  0.0404  0.0381
32647W        W47778  14.939  17.858   5.040  0.1318  0.0332 -0.0320
32648W        W47779   9.748   7.328   5.286  0.0748 -0.1693  0.3571
32649W        W47780   8.095  10.254  15.665  0.1281  0.0521 -0.1001
32650W        W47781  10.368   0.112  11.465 -0.2375  0.0861 -0.0395
32651W        W47782  14.019  16.830  16.083 -0.0704 -0.2793 -0.1213
32652W        W47783  15.390  16.565   2.941  0.0514 -0.1401  0.4126
32653W        W47784   1.005  16.056   4.164 -0.6175 -0.1907 -0.0073
32654W        W47785   9.583  16.493   2.846  0.2731 -0.0508  0.4350
32655W        W47786  13.337  16.239  13.516  0.1421 -0.1011  0.0065
32656W        W47787   2.420   2.925  10.584  0.0322  0.0503  0.0417
32657W        W47788  14.802   9.587   2.372 -0.0153 -0.1996 -0.0229
32658W        W47789  13.964  13.620   5.919  0.0705 -0.4262 -0.1876
32659W        W47790   3.814   6.799  12.138  0.2402 -0.1663  0.2213
32660W        W47791  11.550  10.367  12.804 -0.1506  0.1997 -0.2101
32661W        W47792   8.594   3.564  15.124 -0.0305 -0.0040 -0.3829
32662W        W47793  17.289  14.623   3.767 -0.1460 -0.0806 -0.0495
32663W        W47794   0.283  10.860   2.640  0.3354  0.1314 -0.0112
32664W        W47795   6.422  15.226   2.706  0.2617 -0.2146 -0.3929
32665W        W47796  16.778  11.659   7.044 -0.2556  0.1730 -0.0013
32666W        W47797   2.770   8.558   9.716  0.1712  0.1314  0.0240
32667W        W47798   2.216   8.641  14.527 -0.3392  0.1460  0.4063
32668W        W47799   1.619  16.597  15.650 -0.3246  0.1370 -0.0081
32669W        W47800  18.162  12.133  14.183  0.2488  0.1141 -0.0825
32670W        W47801   4.349  15.666   0.550 -0.0443  0.4262  0.2510
32671W        W47802   5.590   1.535   4.212  0.0805  0.2293 -0.1809
32672W        W47803   7.207   6.618  12.856 -0.2962  0.0658 -0.2698
32673W        W47804   7.273  16.941   1.153  0.0485 -0.1286 -0.1448
32674W        W47805   0.688   5.907  12.777  0.0722 -0.2926 -0.0774
32675W        W47806   3.988  14.594   1.273  0.1344  0.0830  0.1154
32676W        W47807  13.245   1.021  13.458  0.0536 -0.3090 -0.0968
32677W        W47808  12.881  12.427  13.965  0.1655 -0.0704 -0.0058
32678W        W47809   5.187  11.500  12.955  0.0633 -0.1729  0.0976
32679W        W47810  16.995   1.478  14.889 -0.0373  0.1629  0.2888
32680W        W47811   5.050  17.180  13.846 -0.1111 -0.0512 -0.3442
32681W        W47812   6.729  11.803  12.041  0.0216 -0.2028  0.1129
32682W        W47813   6.681  16.184   3.229 -0.1195  0.1587 -0.3076
32683W        W47814   0.994   8.826   3.542 -0.1729 -0.0909  0.1890
32684W        W47815  13.955   1.677   3.844  0.0463 -0.1465 -0.0879
32685W        W47816  15.947   7.531   1.573 -0.2899  0.0639 -0.1597
32686W        W47817   1.979   4.263   4.201  0.0544  0.0097 -0.2981
32687W        W47818   5.798  16.979  14.997 -0.0275 -0.0730  0.2730
32688W        W47819   8.828   3.329  13.398  0.1023 -0.1972 -0.0687
32689W        W47820   6.135   5.111  13.214 -0.2570 -0.2049  0.1587
32690W        W47821  15.381  14.261  12.444 -0.0478 -0.1885  0.1206
32691W        W47822   0.777  14.439  14.604 -0.1060 -0.3891 -0.2254
32692W        W47823  16.069  10.044  12.418 -0.2108 -0.1042  0.2613
32693W        W47824   4.167   8.232   3.816  0.0387  0.0375 -0.0942
32694W        W47825   0.517   3.141   2.081  0.2109 -0.0867 -0.0866
32695W        W47826  15.476   7.555   4.014 -0.0073  0.1366  0.0135
32696W        W47827  15.097   8.667  12.677  0.0482  0.4259 -0.2147
32697W        W47828  11.143   9.013  15.088 -0.4675 -0.2537 -0.0795
32698W        W47829   4.066   9.465  12.005 -0.1735 -0.0621  0.0807
32699W        W47830   2.056   5.231   4.654 -0.0395  0.1492 -0.0813
32700W        W47831  17.095   2.312  15.814  0.2121  0.0599 -0.0021
32701W        W47832   3.578  15.423  15.932  0.2178 -0.2640  0.1300
32702W        W47833   6.395  13.395  15.546 -0.0516 -0.0217 -0.0641
32703W        W47834  10.415  13.990   4.987  0.2284  0.1500  0.0139
32704W        W47835  11.860  15.321  11.402  0.0168 -0.2207 -0.0669
32705W        W47836  17.716  13.421  14.565  0.1274  0.1949 -0.1113
32706W        W47837  14.474   6.920   6.110  0.0705 -0.1756  0.5477
32707W        W47838  11.039  13.207  12.641  0.0382  0.0484 -0.0815
32708W        W47839   3.934   5.848  11.018 -0.0665 -0.2067  0.0321
32709W        W47840  16.504  16.089  16.183  0.0597 -0.1677 -0.2449
32710W        W47841   4.985   1.215   1.222 -0.0008 -0.0349 -0.2119
32711W        W47842   0.342  16.930   4.528  0.1145  0.2190 -0.1051
32712W        W47843  16.967  12.546  11.423 -0.0086  0.3416  0.1721
32713W        W47844   1.666   6.891   4.050 -0.0874  0.0887 -0.0166
32714W        W47845  15.254   8.319   0.664  0.0996  0.1144 -0.1525
32715W        W47846   7.780  14.476  11.437  0.3960 -0.0063  0.0645
32716W        W47847   9.685   1.343   3.636  0.0058 -0.3875  0.1713
32717W        W47848   5.505   3.381   3.024 -0.0066 -0.2292  0.0544
32718W        W47849  18.116  17.751  11.450 -0.0497  0.1517  0.0685
32719W        W47850  15.768   5.021  14.515 -0.0189 -0.0771  0.2395
32720W        W47851  14.735   0.602  14.356  0.0461 -0.1710 -0.2378
32721W        W47852  11.502   0.152   2.585 -0.0451 -0.2300 -0.2437
32722W        W47853   8.791  16.636   5.891  0.2885  0.0778 -0.0958
32723W        W47854   6.042  11.359  16.010 -0.0203 -0.1686  0.2799
32724W        W47855  15.879  14.434  12.409  0.0727  0.3591  0.1293
32725W        W47856   8.663   6.740   0.256  0.0599 -0.1535 -0.1117
32726W        W47857  13.926   7.177   4.429 -0.1584  0.0758  0.0366
32727W        W47858   8.139  16.463  15.800  0.2303  0.1257 -0.1338
32728W        W47859  17.609  13.299   3.673  0.3842  0.0052  0.2303
32729W        W47860   3.847   2.673  15.007  0.1514 -0.0959  0.1100
32730W        W47861   8.523   4.805  13.373 -0.1120 -0.3237  0.1039
32731W        W47862  18.168   0.748  13.353  0.1514 -0.0068 -0.0048
32732W        W47863  17.937  10.984  15.407  0.1624  0.0257 -0.0100
32733W        W47864  16.639  10.989  14.541 -0.1370  0.0299 -0.1471
32734W        W47865   6.491  17.333   5.139  0.2611  0.2870 -0.0569
32735W        W47866   0.829  16.963   0.701  0.2541 -0.1405 -0.4463
32736W        W47867   5.073   5.824  15.556  0.0374  0.1590  0.0504
32737W        W47868  12.053  13.210   4.515 -0.3122  0.1901 -0.0723
32738W        W47869  17.276   3.690  13.278 -0.0786 -0.2405  0.0551
32739W        W47870   3.355   9.296  10.780 -0.2899 -0.0552 -0.0389
32740W        W47871   5.086  13.044  11.218  0.0539 -0.2173 -0.2220
32741W        W47872  15.309   6.655   4.283 -0.0887  0.0486 -0.1378
32742W        W47873   2.663   0.863  10.240 -0.1466 -0.0535 -0.2337
32743W        W47874  11.880   4.390  12.966  0.2004 -0.3147 -0.0666
32744W        W47875  15.934   4.232  12.064  0.0202 -0.2382  0.1253
32745W        W47876   5.266  10.435  13.205 -0.2213 -0.1878 -0.3358
32746W        W47877   1.689  15.699   0.243 -0.1483  0.1521 -0.0013
32747W        W47878  12.340   2.729  14.354  0.0424  0.0604  0.2829
32748W        W47879   3.515   3.468  13.963 -0.1198  0.2491  0.4811
32749W        W47880   6.174  15.705   4.281  0.3235  0.1178 -0.2752
32750W        W47881   1.112  18.034  11.947 -0.1048 -0.0315 -0.2669
32751W        W47882   8.181  11.050  10.662 -0.2361  0.0397 -0.1884
32752W        W47883   7.612  11.980   4.922  0.0902 -0.2427  0.0040
32753W        W47884   2.668  14.158  12.405 -0.1628  0.1285  0.0179
32754W        W47885   2.242   8.544  13.487  0.0575  0.1883  0.1134
32755W        W47886  15.322   3.246  11.281 -0.1200 -0.2264 -0.3045
32756W        W47887   3.856   6.408   1.749  0.4090  0.1654  0.0758
32757W        W47888  11.683   5.294   4.683 -0.0402 -0.1641  0.0243
32758W        W47889   2.222  17.921   4.601  0.1423  0.1479  0.0756
32759W        W47890   2.254   7.189   2.711 -0.0266  0.1014  0.0430
32760W        W47891   2.370   5.569   0.694  0.2365  0.0010  0.2384
32761W        W47892   4.218   8.893   2.908 -0.1402  0.2335  0.1133
32762W        W47893   8.438  16.204  10.704  0.1768 -0.0276 -0.0811
32763W        W47894   3.599   3.928  10.457  0.2732 -0.2220 -0.0901
32764W        W47895  15.040   9.867  13.189 -0.1869 -0.1368  0.0125
32765W        W47896   5.188   2.897  15.628  0.1192 -0.1388  0.1500
32766W        W47897  17.190  11.415   6.746  0.1835  0.0063 -0.0216
32767W        W47898   4.451   0.623   3.859 -0.2019 -0.1536  0.1032
32768W        W47899   5.837  17.291  13.117  0.0576  0.0289  0.1654
32769W        W47900  11.205   4.889  14.010 -0.0743 -0.0739 -0.0524
32770W        W47901  11.785   6.945  11.572  0.1558  0.0352  0.1281
32771W        W47902  11.735   2.264  15.983  0.3997  0.0041 -0.1751
32772W        W47903   1.789  10.317   4.769 -0.0737  0.0795  0.1136
32773W        W47904   7.625   7.029   3.039  0.0410 -0.0751 -0.2248
32774W        W47905   2.390  11.434  13.479 -0.2202  0.5771  0.1199
32775W        W47906  13.304  16.962  10.964 -0.0332  0.1420  0.0123
32776W        W47907  14.911   3.682   2.045 -0.0577  0.1054 -0.0847
32777W        W47908   6.419  16.367   5.183 -0.2468  0.1244 -0.0735
32778W        W47909   6.220   4.355   0.330  0.0998  0.0643 -0.0749
32779W        W47910  10.569   2.646  12.307  0.1306 -0.1385  0.0711
32780W        W47911  15.491  15.596  13.964 -0.1399 -0.0851 -0.0217
32781W        W47912   3.723   5.847   2.856 -0.3290  0.2433  0.3518
32782W        W47913   9.249  13.955  10.801  0.1594 -0.2656 -0.0045
32783W        W47914   9.350  13.824  16.103  0.3809  0.0225 -0.0539
32784W        W47915   7.595   3.739   3.003  0.2164 -0.1775  0.2920
32785W        W47916   0.107   8.875  11.482  0.1076 -0.1317 -0.2648
32786W        W47917  14.759   8.255   2.780  0.3969 -0.3041  0.1451
32787W        W47918   2.372   8.126   4.628  0.1744 -0.0323 -0.1036
32788W        W47919   2.420  16.863  14.742 -0.1427  0.0674  0.0919
32789W        W47920   9.132  14.384   2.420  0.0829 -0.2867  0.0341
32790W        W47921  17.063   7.637  14.262  0.1524 -0.0786  0.0373
32791W        W47922   9.209   9.756   2.025  0.2376 -0.0123  0.1274
32792W        W47923  11.571   3.003  11.293  0.0765  0.2745 -0.2516
32793W        W47924  11.377  17.361  11.203  0.0467  0.0782  0.3770
32794W        W47925   0.421   7.515  11.992  0.1912  0.2410  0.0443
32795W        W47926  11.291   0.136  13.698 -0.0911  0.0966  0.0705
32796W        W47927   1.831   6.826   1.608 -0.1893  0.0515 -0.1158
32797W        W47928  16.063  11.645  11.700 -0.1443  0.1207  0.1567
32798W        W47929  10.219  12.136  12.553 -0.2490 -0.1566 -0.1744
32799W        W47930  13.632  17.775   2.899  0.0212  0.0799 -0.2208
32800W        W47931   9.433  15.018   5.765 -0.0856 -0.2690  0.0232
32801W        W47932  16.801   5.411  14.858  0.1584 -0.2236 -0.0193
32802W        W47933  12.212   1.391   3.862  0.0956 -0.1533 -0.1898
32803W        W47934  10.428   3.714  15.007  0.3281  0.0831  0.2800
32804W        W47935  13.380   7.510  15.774  0.1185  0.1553  0.3598
32805W        W47936   2.268   8.522  16.169 -0.1873 -0.0393 -0.0459
32806W        W47937   0.794   8.684  14.019  0.1273  0.0789 -0.3660
32807W        W47938   6.075  16.163  11.559 -0.3049 -0.2212  0.1134
32808W        W47939   2.639  10.692   2.963  0.1250 -0.0960  0.1004
32809W        W47940   0.708   6.221   3.043 -0.2461 -0.1171 -0.0814
32810W        W47941  13.032  11.442  11.974  0.0236  0.0325  0.0471
32811W        W47942  11.324  15.520  11.544  0.1105 -0.0412 -0.0567
32812W        W47943   3.169   0.758   3.436  0.1121 -0.1275  0.1691
32813W        W47944  11.586   6.665   3.131  0.0424  0.2398 -0.0166
32814W        W47945  10.606   1.406   4.454 -0.2471 -0.1646  0.3185
32815W        W47946   8.007  13.810   4.767 -0.0123 -0.2337  0.0502
32816W        W47947  18.156  15.203  12.703  0.0021 -0.0439 -0.0765
32817W        W47948   5.968  11.987   3.679 -0.0864  0.0641 -0.0633
32818W        W47949  13.460   3.821  11.092 -0.1592  0.1927 -0.1780
32819W        W47950   0.240   8.717   2.541  0.0359 -0.3964 -0.0907
32820W        W47951  16.091  13.474   2.168  0.0803 -0.0008 -0.0494
32821W        W47952  17.492  15.107   5.703 -0.0225  0.3050 -0.0114
32822W        W47953   3.594   0.333  11.571  0.0110  0.0208 -0.1375
32823W        W47954  15.655   4.934  12.264  0.1676 -0.1138 -0.3311
32824W        W47955   9.580  16.197  15.361  0.1020  0.0759 -0.0299
32825W        W47956   3.785   1.361  15.638 -0.0572  0.0448  0.2200
32826W        W47957   3.155   5.382  13.830  0.1027 -0.0973  0.0318
32827W        W47958  17.601   9.249   5.312  0.5239 -0.0580  0.3169
32828W        W47959   8.505  12.205   4.404  0.4936  0.0932  0.0566
32829W        W47960   5.056   4.584  11.997 -0.0691 -0.0109 -0.1268
32830W        W47961  14.578   2.001   1.000 -0.2555 -0.0919 -0.1848
32831W        W47962  14.534   4.596   2.301 -0.2569 -0.1460  0.3322
32832W        W47963   0.137   2.166   0.478 -0.4106  0.1301  0.5770
32833W        W47964   6.265   9.078  11.373 -0.0649  0.0477 -0.1932
32834W        W47965   8.605   0.057   1.082  0.1060 -0.0436 -0.0814
32835W        W47966   5.845   0.781  14.622  0.1039 -0.0572  0.2879
32836W        W47967   0.254   1.697  14.731  0.2195 -0.1049 -0.0166
32837W        W47968  14.320   8.506  14.371 -0.1638 -0.0596  0.2936
32838W        W47969   9.678   8.669   0.413  0.1455 -0.0320  0.1341
32839W        W47970   9.985  14.334   3.621 -0.0372  0.1404 -0.0440
32840W        W47971   2.629  15.316   4.917  0.1585 -0.2037 -0.1139
32841W        W47972   7.317  10.444   4.022  0.1690 -0.0393 -0.1831
32842W        W47973  11.223   8.766   1.395  0.0971  0.0789  0.1036
32843W        W47974  11.591   3.429  12.557  0.1458  0.2244 -0.2126
32844W        W47975  16.211  12.958   2.182  0.4758  0.1771  0.1686
32845W        W47976   7.686  15.394   0.754  0.0883 -0.0683 -0.2862
32846W        W47977  17.713  15.566   0.118 -0.0163 -0.0099 -0.1714
32847W        W47978   2.823   9.386   5.549 -0.0509  0.0748 -0.1372
32848W        W47979   5.984  13.673   0.006 -0.2091  0.1094  0.1760
32849W        W47980  14.916   5.158   5.271  0.2744 -0.1020 -0.1355
32850W        W47981   8.990   9.102  11.421  0.4087 -0.1489 -0.0930
32851W        W47982  15.185  15.342   4.161 -0.1800 -0.0734  0.1160
32852W        W47983   9.368  16.390  10.611  0.0643  0.0514  0.2627
32853W        W47984   4.304   9.402  15.352 -0.2055  0.0165 -0.3635
32854W        W47985   5.498   3.102   6.107  0.0121  0.0516 -0.1192
32855W        W47986  11.150   6.307  11.019 -0.0529  0.0683 -0.2290
32856W        W47987  17.815  10.546   1.270  0.0929  0.0972 -0.2327
32857W        W47988  11.678   5.849   1.971 -0.1609  0.0373 -0.2118
32858W        W47989   3.631   1.177  13.577 -0.0494 -0.1157 -0.1052
32859W        W47990  15.574   0.665   2.881  0.0582 -0.2689 -0.4110
32860W        W47991  11.674   4.663   1.886  0.3902  0.2695 -0.1690
32861W        W47992   1.487  17.309  14.245 -0.1139 -0.0224  0.0012
32862W        W47993  16.927  17.190  12.524  0.0319  0.1320  0.1215
32863W        W47994  13.195   3.296  11.865  0.0378  0.0355 -0.0174
32864W        W47995  14.307   8.383   4.035 -0.0898  0.0179 -0.2143
32865W        W47996  17.175   7.736   1.814 -0.1613 -0.1249  0.1900
32866W        W47997   3.306  17.668  11.431 -0.1521 -0.3326  0.0520
32867W        W47998   4.654   3.591   4.715 -0.0710  0.1048 -0.1239
32868W        W47999  11.263  15.327  12.459 -0.0322  0.0583 -0.0578
32869W        W48000  15.997  11.869   3.928 -0.1846 -0.0242 -0.0875
32870W        W48001   0.207   8.786  15.931 -0.0373 -0.3039 -0.0745
32871W        W48002   5.886  15.611  13.119  0.0226 -0.1592  0.1744
32872W        W48003   9.467  13.187   4.738  0.0939 -0.0346 -0.2145
32873W        W48004   9.293   8.589  12.947  0.0925 -0.2654 -0.0381
32874W        W48005   4.758  10.581   2.084  0.0195 -0.2397 -0.0027
32875W        W48006  16.589  16.572  12.537  0.2822  0.2142  0.1171
32876W        W48007  15.605  17.894  11.924  0.1888 -0.0385  0.1081
32877W        W48008   4.458   3.582  10.997 -0.2089 -0.3947 -0.2424
32878W        W48009  14.301   0.338  13.073  0.1763 -0.1880  0.0366
32879W        W48010  12.769   4.180  12.201 -0.2282  0.1703 -0.0685
32880W        W48011  14.082  12.228   4.250  0.4238  0.0038  0.2048
32881W        W48012   5.101  17.152  13.260 -0.3518 -0.2750  0.2239
32882W        W48013   2.639   8.213  13.666  0.0790 -0.1969  0.0627
32883W        W48014   9.991  15.926   4.342 -0.1845  0.1704 -0.0061
32884W        W48015   8.157  15.707  11.874  0.0007  0.0984  0.2396
32885W        W48016   1.893  10.843  11.414 -0.0138  0.0192  0.4724
32886W        W48017   8.500   3.344  13.770 -0.0186  0.2533  0.0763
32887W        W48018  14.868  15.936   6.783 -0.1136  0.0519  0.0317
32888W        W48019   6.547  15.668   1.932 -0.3376 -0.0124  0.1399
32889W        W48020  10.099  10.489  10.451  0.0366 -0.1750 -0.0531
32890W        W48021  11.701   7.515   1.290  0.0763  0.2007  0.0776
32891W        W48022   2.843   5.784   3.268  0.0333 -0.1769  0.2620
32892W        W48023   0.030   2.776   1.807  0.2485 -0.2474  0.2221
32893W        W48024  16.049  12.399   3.632 -0.0163 -0.1230 -0.1318
32894W        W48025  14.581  17.472   5.303 -0.1240 -0.0971  0.1600
32895W        W48026  10.558   5.203  12.625  0.1527  0.1954  0.1083
32896W        W48027   3.769  13.865   0.378 -0.1099  0.0895 -0.1417
32897W        W48028  13.711  13.776   5.085  0.1262 -0.3782 -0.0734
32898W        W48029   3.791  14.422  10.973 -0.0257  0.0083 -0.0585
32899W        W48030  14.752  16.609   1.799  0.0455  0.2123 -0.0163
32900W        W48031   5.267  11.346   3.255  0.0600  0.1496 -0.0575
32901W        W48032  13.511   4.857  10.220 -0.0059  0.1785 -0.2467
32902W        W48033  13.619   3.036  11.819 -0.2367 -0.1821  0.0602
32903W        W48034   8.333  18.090  12.553  0.0126 -0.1588  0.0172
32904W        W48035   9.380   1.178  13.595 -0.1440  0.1203  0.0841
32905W        W48036  12.337  15.355   4.626 -0.0155  0.1138 -0.0829
32906W        W48037  13.252   1.513  12.488 -0.2600 -0.1034 -0.1291
32907W        W48038  12.315  15.910  15.180  0.2615  0.0599 -0.0098
32908W        W48039   7.674  13.057  16.164  0.0491 -0.2749 -0.0063
32909W        W48040  16.379  10.316  15.838 -0.0533  0.0843  0.2537
32910W        W48041  12.384   4.060  14.281  0.0235 -0.1246  0.0602
32911W        W48042   3.264   6.958   4.680 -0.0125  0.0273 -0.0032
32912W        W48043   6.929   4.442   0.933 -0.2266 -0.1415 -0.1463
32913W        W48044  12.576  16.115   5.317  0.1229 -0.0659 -0.0584
32914W        W48045   4.811  13.996   1.187  0.0986 -0.0006 -0.2134
32915W        W48046   1.605  15.489  13.803 -0.4130 -0.2270  0.0395
32916W        W48047  17.861  15.117  15.107 -0.2240  0.0407 -0.1525
32917W        W48048   1.118  17.123  10.973  0.2076 -0.1868 -0.0283
32918W        W48049  12.260   5.992   5.758 -0.1259 -0.1230 -0.0227
32919W        W48050  12.525   4.490  13.486  0.0217 -0.0670  0.1633
32920W        W48051   4.953   1.642  13.887  0.1823 -0.0225 -0.3148
32921W        W48052  15.531   7.761  11.764  0.1504 -0.1097 -0.2723
32922W        W48053   4.402   1.683  12.681 -0.0569 -0.1851 -0.3669
32923W        W48054   8.803   8.323  13.083 -0.0806 -0.3626 -0.1825
32924W        W48055   7.420  17.002   3.046 -0.2726 -0.0564  0.0062
32925W        W48056   5.602  10.930   2.331  0.0095  0.0851 -0.2953
32926W        W48057  13.503   2.051   2.090 -0.0506 -0.0372 -0.2286
32927W        W48058  15.293   3.463  12.251  0.0863 -0.0774  0.3733
32928W        W48059   7.832   0.792  15.872 -0.0346  0.1095  0.1937
32929W        W48060  16.339   1.507   1.041 -0.1487 -0.0714 -0.3696
32930W        W48061   6.728   3.913  10.979  0.3340 -0.1953  0.0132
32931W        W48062  11.466   8.336   1.392  0.0747 -0.0834 -0.0640
32932W        W48063   6.585  12.375  11.906  0.1608  0.0623  0.0028
32933W        W48064  16.054  12.370   0.706  0.0036 -0.2402 -0.0510
32934W        W48065  16.029  11.111  11.678 -0.1130 -0.3743  0.0281
32935W        W48066  14.492  10.121   4.770  0.1498 -0.2177  0.0980
32936W        W48067  14.065  17.583  10.564 -0.1113  0.0202 -0.1666
32937W        W48068   7.849   1.969  14.854 -0.1619  0.5153 -0.0551
32938W        W48069  16.999  13.550  15.922 -0.2290 -0.2686 -0.0564
32939W        W48070   4.936  16.180  15.272  0.1350  0.0001  0.1441
32940W        W48071  15.716  17.690  14.909 -0.1619  0.2743 -0.2661
32941W        W48072   3.148  10.036   0.808  0.4592 -0.1549 -0.1046
32942W        W48073   2.940  11.345   5.031  0.0579  0.2751  0.0049
32943W        W48074   1.910   3.240   3.681  0.1750 -0.1352 -0.1773
32944W        W48075  16.110   4.479   4.019 -0.2419 -0.0948 -0.1807
32945W        W48076   0.700   1.630   2.890  0.1792 -0.1706  0.0294
32946W        W48077   8.682  12.679  12.836 -0.0449  0.1686  0.2383
32947W        W48078  17.300   6.128   0.617 -0.0814 -0.1197 -0.2225
32948W        W48079   0.524   6.157   2.047 -0.1446 -0.2074  0.1002
32949W        W48080   6.798   9.298  12.170 -0.3482 -0.0884  0.3197
32950W        W48081   3.112   9.736  12.080  0.2550 -0.0989 -0.0416
32951W        W48082  12.817   0.716   3.853 -0.0905  0.0169  0.3615
32952W        W48083   8.113  17.156   5.376  0.3812  0.0559  0.2505
32953W        W48084  16.317   7.890   1.355 -0.1287 -0.3349 -0.0755
32954W        W48085   4.730   2.530  11.310  0.2652  0.0299 -0.1455
32955W        W48086   4.713  13.991  13.120 -0.0086  0.1539  0.2127
32956W        W48087   5.080   9.210   0.499  0.1242  0.2641 -0.1057
32957W        W48088   4.710   1.586   0.679 -0.2043 -0.1265  0.1431
32958W        W48089   5.458   4.042   5.156 -0.1187 -0.0205  0.2653
32959W        W48090  16.353  11.752  15.094 -0.3067 -0.3037 -0.0774
32960W        W48091   8.558   3.289   0.910  0.1110  0.1748 -0.1064
32961W        W48092  12.748  12.172  12.701  0.0871 -0.3252  0.2510
32962W        W48093   2.188  14.301  16.080 -0.0863 -0.1211  0.3523
32963W        W48094  14.064  17.848   0.738  0.1034  0.1906  0.0520
32964W        W48095   6.473  14.940   1.576  0.1364 -0.1118 -0.1460
32965W        W48096   3.404  12.399  12.534 -0.0428 -0.2711 -0.1565
32966W        W48097   7.787  16.741  10.745  0.0203  0.1963  0.1552
32967W        W48098  13.381  13.832  13.245 -0.0035  0.2028 -0.1854
32968W        W48099  13.730   6.339   4.981 -0.1396 -0.0309 -0.0947
32969W        W48100  13.604  11.919  11.488 -0.0321 -0.2356 -0.0353
32970W        W48101  17.731   4.671  13.295  0.2600  0.0569  0.0224
32971W        W48102   7.123  15.927   0.082  0.0733 -0.4382  0.0518
32972W        W48103   0.322   9.335   3.292  0.0970 -0.2842 -0.1655
32973W        W48104   5.817   3.002   2.819 -0.1196  0.1494  0.0688
32974W        W48105  11.959  11.217   0.951 -0.1009  0.0888 -0.0758
32975W        W48106  13.265  15.845  15.357 -0.0854  0.3094 -0.1615
32976W        W48107  10.033  10.882   5.128  0.4397 -0.0892  0.2030
32977W        W48108   6.592  10.757  14.774 -0.0680 -0.0334  0.2889
32978W        W48109  11.187   5.687   2.357  0.1794 -0.0760  0.0402
32979W        W48110  14.933   6.755  14.580 -0.0214 -0.1130  0.2100
32980W        W48111  12.666   5.363  11.372  0.0289 -0.1708 -0.1957
32981W        W48112  10.370  12.869   4.563 -0.1905 -0.2042  0.2086
32982W        W48113  17.633  16.914   0.755 -0.1697 -0.0645 -0.0912
32983W        W48114  14.054   0.357  14.785  0.2716  0.2974  0.0755
32984W        W48115   7.956   3.356   5.831 -0.0517 -0.2126 -0.2378
32985W        W48116   1.008   3.222   2.208  0.3069 -0.2913  0.0576
32986W        W48117   6.042   4.616   1.273 -0.2011 -0.0845  0.3734
32987W        W48118  14.539  15.898   5.408  0.0946 -0.0248 -0.0179
32988W        W48119  13.800  10.174  14.180  0.2399  0.0150  0.0981
32989W        W48120   7.534   0.058   0.807  0.0284 -0.3467 -0.2676
32990W        W48121   5.867   5.034  11.803 -0.0863  0.0157 -0.2348
32991W        W48122  16.925   5.946   3.287 -0.2696 -0.1174  0.3221
32992W        W48123  15.433  12.511   1.413 -0.0761 -0.1750  0.1751
32993W        W48124   6.098  14.407  15.522 -0.0117  0.0375 -0.1615
32994W        W48125   0.963   1.312  15.109 -0.0427  0.1839  0.1283
32995W        W48126  13.924  10.466  13.307 -0.0315 -0.4677  0.2844
32996W        W48127   0.536   5.783   0.587 -0.0324 -0.0124  0.1091
32997W        W48128  13.245  17.624   3.226 -0.2242 -0.1063 -0.1837
32998W        W48129   0.473   5.970  13.883 -0.1776 -0.2734  0.0115
32999W        W48130   2.787   3.878  12.983  0.2983 -0.2699  0.1911
33000W        W48131  15.971   6.247   1.034  0.0698  0.1393  0.1678
33001W        W48132  17.534  14.066  12.968 -0.1893  0.0178 -0.0507
33002W        W48133   0.836   5.504  14.040 -0.0275 -0.0795  0.3326
33003W        W48134   7.800  14.587   4.213 -0.0613 -0.3371 -0.0362
33004W        W48135   8.470   1.353  12.888 -0.3740  0.0656 -0.3712
33005W        W48136   2.052  11.760  13.282 -0.0320 -0.1118  0.0932
33006W        W48137   3.301   9.988   5.624  0.0320 -0.0193  0.1290
33007W        W48138   2.174   1.169  15.982 -0.0208 -0.0209  0.0155
33008W        W48139  17.727   9.445  15.309 -0.0742  0.1109 -0.2304
33009W        W48140  10.789  11.111  11.699  0.0473 -0.0496  0.2021
33010W        W48141  11.799   8.598   4.188  0.1270  0.0050  0.3443
33011W        W48142   2.664  10.841   3.430  0.0297 -0.0320  0.1452
33012W        W48143   7.323  17.620  11.529 -0.0491 -0.1661  0.1014
33013W        W48144   3.242  10.491   0.095  0.2383  0.1505 -0.0133
33014W        W48145   0.779  12.571  15.434 -0.1260 -0.1658 -0.1965
33015W        W48146   2.445   3.990   0.688 -0.1588  0.3047 -0.1906
33016W        W48147   6.759  12.867  11.632  0.2279 -0.0680  0.2223
33017W        W48148   4.191   1.268  14.466  0.2748 -0.1839 -0.0348
33018W        W48149  17.732   7.685  11.951  0.0029  0.0661 -0.0025
33019W        W48150  13.111   8.397   1.588  0.4413 -0.0797 -0.1067
33020W        W48151   8.626  12.287   2.704 -0.1933  0.2636  0.0124
33021W        W48152  14.023  10.836  15.727  0.1812 -0.3478 -0.1954
33022W        W48153  10.585   3.843   3.155 -0.0668  0.1162 -0.2204
33023W        W48154  17.951   3.875  15.796 -0.0771  0.0844 -0.1367
33024W        W48155  17.478  11.783  13.477 -0.1009 -0.0002  0.0364
33025W        W48156  13.133  12.574  12.575  0.1395 -0.0768 -0.1157
33026W        W48157   1.420   3.877   2.382 -0.2154 -0.2407  0.1911
33027W        W48158   8.630  17.507   2.872 -0.0009  0.1232 -0.5284
33028W        W48159   4.763   1.021   4.314  0.0167 -0.2533 -0.0478
33029W        W48160   8.654  15.910  16.200  0.2438  0.1481  0.1325
33030W        W48161   5.507   5.380  14.771  0.0786 -0.2034 -0.2109
33031W        W48162   7.142   3.182  11.693 -0.2986 -0.3136 -0.2169
33032W        W48163  15.790   8.179   1.388  0.1092 -0.1376  0.3059
33033W        W48164  16.638   2.043   5.129  0.0387 -0.0623  0.0891
33034W        W48165   7.877  10.177  14.688 -0.1389 -0.0762  0.1168
33035W        W48166  11.913  14.967  11.976  0.3055  0.1622  0.0503
33036W        W48167   7.913  10.104   5.550 -0.0858 -0.0582 -0.4662
33037W        W48168   6.995  11.818   4.326 -0.1019 -0.1076 -0.2339
33038W        W48169   3.567  14.481  14.294  0.1579  0.0871  0.3380
33039W        W48170  15.957  14.075  13.199  0.0049  0.1857  0.2128
33040W        W48171  13.156   8.366   4.921  0.3054 -0.1817 -0.1949
33041W        W48172   1.907   6.555  11.101  0.0556  0.0496 -0.1340
33042W        W48173   1.006   2.379  13.209  0.1555 -0.1363  0.0208
33043W        W48174   7.948   6.095  13.602 -0.4835  0.1707  0.0462
33044W        W48175  13.464   8.896   3.846  0.4311 -0.0736  0.3495
33045W        W48176   5.526   1.692   3.770  0.5179 -0.5234 -0.0695
33046W        W48177  13.740   5.711   5.706  0.1048 -0.0133 -0.2180
33047W        W48178   8.779  16.832  14.976 -0.4394  0.1456  0.1445
33048W        W48179   6.698  14.944  11.312  0.0071 -0.0827  0.0243
33049W        W48180  16.266  14.092   1.035 -0.1740  0.0763 -0.0695
33050W        W48181  10.966   2.153   2.639  0.0615  0.1533  0.0060
33051W        W48182   6.146   3.349   2.519  0.0039 -0.0335 -0.2434
33052W        W48183   3.873  15.115   4.931 -0.2335 -0.1034  0.2974
33053W        W48184   7.523  16.208   1.841 -0.1567  0.0170 -0.0797
33054W        W48185   5.889   3.664  14.597  0.0079 -0.1995 -0.0010
33055W        W48186  16.344   8.478   2.024 -0.0153  0.1893 -0.1220
33056W        W48187  15.975   4.903   5.544  0.1335 -0.1245 -0.1623
33057W        W48188   5.406   8.171   1.196 -0.0285 -0.2057 -0.0341
33058W        W48189   2.678  18.073   4.645 -0.2818 -0.0926 -0.2380
33059W        W48190  12.830  15.941  16.198  0.0888  0.2997  0.0660
33060W        W48191  16.732   1.482  11.765 -0.0290  0.3628  0.0650
33061W        W48192   7.637  11.105   4.083  0.1207  0.1086 -0.0903
33062W        W48193  16.834  15.341   2.923 -0.0793  0.1346 -0.0730
33063W        W48194  14.862  15.208   2.735 -0.2204 -0.0101  0.0940
33064W        W48195  13.414   0.294   3.607 -0.0593 -0.0146 -0.0889
33065W        W48196   7.046   8.269   5.091 -0.3701  0.0436 -0.1313
33066W        W48197  11.523   3.691   5.404 -0.3112  0.1785  0.1971
33067W        W48198   3.556  17.979  13.540  0.1032 -0.1888  0.0938
33068W        W48199  15.917   1.331  13.006 -0.0537  0.1872  0.1002
33069W        W48200   9.115   8.182  13.936  0.2270 -0.2079  0.1422
33070W        W48201   0.967   3.210  10.851  0.0378  0.1924  0.3129
33071W        W48202  12.166   6.812   2.838  0.0403 -0.4732  0.3284
33072W        W48203   5.728   1.097   0.805 -0.1286 -0.3352 -0.1675
33073W        W48204   2.394  16.789   5.566 -0.0707  0.0073 -0.2064
33074W        W48205   4.900   5.223  10.758 -0.0513 -0.1766 -0.0824
33075W        W48206   6.850   7.787   0.024 -0.0433 -0.2320 -0.1332
33076W        W48207  15.566   7.322  15.094  0.0317 -0.2066  0.0220
33077W        W48208   3.743  11.611   0.589 -0.0962 -0.1026 -0.0893
33078W        W48209  16.070   7.629  13.394 -0.2702  0.0603 -0.0606
33079W        W48210  18.136  13.380  11.381 -0.0969 -0.0687  0.0571
33080W        W48211   9.837  16.217  13.104  0.1660  0.0964  0.1631
33081W        W48212  15.449   2.810   2.905  0.0328  0.2660  0.1157
33082W        W48213   5.416   8.723   1.859 -0.0845 -0.2101  0.1132
33083W        W48214   8.102   3.191   2.798  0.1648 -0.3449 -0.2107
33084W        W48215   1.323  10.017  13.469 -0.1489 -0.1525  0.0776
33085W        W48216  14.056   3.978   1.711  0.0995 -0.2679  0.2757
33086W        W48217   1.254  14.235  14.385 -0.1407 -0.1173 -0.4209
33087W        W48218  17.948  15.884   5.341  0.0719  0.1892  0.1894
33088W        W48219  17.448   6.791  14.052 -0.1745 -0.2184 -0.3106
33089W        W48220   1.287  13.391  13.602  0.0029  0.0761 -0.0744
33090W        W48221   4.984  11.841  14.555 -0.0475 -0.1487 -0.0959
33091W        W48222   5.459   6.480   4.477  0.1288  0.1316  0.1959
33092W        W48223  10.734  13.207  11.185 -0.1733  0.3902  0.0166
33093W        W48224  17.773  12.636  13.373 -0.0833 -0.0847 -0.0830
33094W        W48225   6.801  14.752   2.776  0.3140 -0.0439  0.1274
33095W        W48226   2.145   0.966   1.187 -0.3347 -0.3016  0.1238
33096W        W48227  16.779  10.394  11.260  0.2984 -0.2122 -0.1130
33097W        W48228  14.365  16.291   1.749 -0.2877 -0.0595  0.4036
33098W        W48229   1.231   3.276   5.272 -0.0197 -0.0716  0.0744
33099W        W48230   9.780  16.197   0.140  0.0540  0.0616  0.3903
33100W        W48231  13.177   5.440  15.378  0.0598  0.0614  0.0892
33101W        W48232  12.321   6.858  15.069 -0.2695  0.1878  0.3509
33102W        W48233   2.133   5.278   5.487  0.0976  0.0705  0.1634
33103W        W48234   1.407   1.518   0.854 -0.1925  0.1813 -0.1679
33104W        W48235  17.593   3.558  15.179 -0.3883 -0.2049 -0.4060
33105W        W48236   8.669  11.091   4.719  0.2518  0.1924  0.0934
33106W        W48237   3.998   9.874   0.514  0.1026 -0.0657  0.1283
33107W        W48238   6.088  12.524  13.013  0.0246 -0.1007 -0.0156
33108W        W48239  11.487   6.354   0.483  0.1059  0.0850  0.0144
33109W        W48240   2.729   0.224   3.100  0.0176  0.0784  0.1034
33110W        W48241  10.467   2.596   5.053  0.3498  0.0558  0.4643
33111W        W48242   1.353  17.481  14.763  0.4735 -0.0977  0.1161
33112W        W48243   8.279   9.975  12.816 -0.1653 -0.0276 -0.0017
33113W        W48244   2.608  15.044   1.118  0.1678  0.3229 -0.1954
33114W        W48245   9.098   1.771  11.354 -0.0895 -0.3382  0.0627
33115W        W48246  12.942   2.373   4.415 -0.1648 -0.1201 -0.0278
33116W        W48247   4.688   9.190   3.975 -0.1318 -0.0030  0.1662
33117ION     NA48248   0.184   2.536  14.806  0.3399  0.2572  0.0075
33118ION     NA48249   1.448   6.689  13.860  0.1339 -0.1993 -0.2829
33119ION     NA48250   8.560  12.610  14.657  0.1327 -0.2500 -0.1310
33120ION     NA48251   8.323   0.312   1.612 -0.0133  0.1004 -0.0433
33121ION     NA48252  11.857   7.249  14.616 -0.1380  0.0522 -0.1153
33122ION     NA48253   2.964   0.722   5.602 -0.4728  0.1484  0.1861
33123ION     NA48254  11.863  12.673   5.798  0.0637  0.1495  0.1581
33124ION     NA48255   4.525  12.786   0.584 -0.2364  0.0451 -0.0400
33125ION     NA48256  14.141   3.694   6.297 -0.1449  0.0039  0.2398
33126ION     NA48257  18.156   7.985  10.154 -0.1376 -0.1712 -0.1768
33127ION     NA48258  11.283   4.860   1.590 -0.2079  0.0040 -0.0238
33128ION     NA48259   8.298  18.146   6.035 -0.0904  0.1798 -0.2005
33129ION     NA48260  15.427   6.105  10.670 -0.1425 -0.0586 -0.1436
33130ION     NA48261  12.550   9.242  10.431  0.0928  0.1636 -0.2534
33131ION     NA48262  16.896   4.100   6.144 -0.3657 -0.1560  0.1603
33132ION     NA48263   1.303  15.492  14.566  0.2032 -0.0351 -0.4238
33133ION     NA48264   8.157   3.011  11.977 -0.1253 -0.0691 -0.0084
33134ION     NA48265  11.824  14.664  11.241 -0.2604 -0.1437 -0.3397
33135ION     NA48266   5.951  11.455   5.545  0.0682  0.0835 -0.0046
33136ION     NA48267  15.181   8.728   6.230  0.1284 -0.1038 -0.3047
33137ION     NA48268   9.159   5.118   3.602 -0.0400  0.2055 -0.3546
33138ION     NA48269  17.039   5.114   1.471  0.0375 -0.0082  0.2335
33139ION     NA48270   5.187   1.677   5.833 -0.1616 -0.0054  0.2005
33140ION     NA48271  13.253  13.662   3.215  0.3762 -0.2642  0.0522
33141ION     NA48272   4.012  10.825   3.687 -0.2067 -0.1812  0.0957
33142ION     NA48273  11.885  16.087   5.984  0.2921  0.1851  0.0999
33143ION     NA48274  13.626   4.217  10.241 -0.1215  0.5148 -0.0946
33144ION     NA48275   0.672  12.687   5.274 -0.2796  0.0325  0.2375
33145ION     NA48276   5.187  16.665  15.212  0.1390 -0.1072  0.1522
33146ION     NA48277  13.192  11.137  10.287  0.3050  0.1299 -0.3404
33147ION     NA48278  13.999   0.374   6.175 -0.1684 -0.0538 -0.0807
33148ION     NA48279  11.855   6.401  15.636  0.2025 -0.3125  0.1258
33149ION     NA48280  13.798   8.107   6.003 -0.1312 -0.1983 -0.2036
33150ION     NA48281   3.772   6.956   9.995 -0.2912 -0.0408 -0.1037
33151ION     NA48282  18.183   4.302  15.898 -0.1856 -0.0638  0.1111
33152ION     NA48283   5.046  10.580  11.946  0.0931  0.2617 -0.0719
33153ION     NA48284   5.307  14.109   1.456  0.0944  0.1457 -0.1017
33154ION     NA48285   1.194  16.992  15.081  0.1448  0.0598 -0.2338
33155ION     NA48286   8.232   1.835  11.030 -0.3248 -0.1380  0.2653
33156ION     NA48287  16.841   3.202   1.855  0.1712  0.1053  0.0461
33157ION     NA48288   0.508  10.836   6.043  0.1381  0.0459 -0.1792
33158ION     NA48289   4.339   1.243  15.638 -0.2774  0.0543 -0.2079
33159ION     NA48290   0.412   3.598  11.972  0.0702  0.2545  0.0123
33160ION     NA48291  13.838  10.481  10.459  0.0077 -0.2378 -0.0781
33161ION     NA48292   9.765  12.722   9.831 -0.0531 -0.2589  0.0736
33162ION     NA48293  16.368  13.862   0.127 -0.0530 -0.2821 -0.2121
33163ION     NA48294  16.318   4.471   2.080  0.1364  0.3005 -0.0256
33164ION     NA48295  14.439   3.640   5.855  0.0236  0.0890 -0.0365
33165ION     NA48296   1.908   3.523  11.996 -0.1273 -0.3490  0.1235
33166ION     NA48297   4.038  16.689   5.309 -0.1119 -0.0655 -0.0671
33167ION     NA48298  10.971  16.936   2.415 -0.1674  0.0059  0.2925
33168ION     NA48299   5.295  15.960   9.937  0.1415 -0.2751  0.1479
33169ION     NA48300  11.938   3.805   6.233 -0.1974  0.1242 -0.0768
33170ION     NA48301   9.750   4.162  12.995 -0.3724 -0.2870  0.0668
33171ION     NA48302  10.818   8.455  13.726 -0.3550  0.1315  0.0882
33172ION     NA48303   0.576   1.967  10.284 -0.4884 -0.0273 -0.1890
33173ION     NA48304  10.163   8.503   2.173 -0.0669 -0.0128  0.5014
33174ION     NA48305   9.715   4.063   5.608  0.1447 -0.0631 -0.0329
33175ION     NA48306  15.731  15.975   1.662 -0.1756 -0.2224 -0.1467
33176ION     NA48307  11.960   0.280   5.997 -0.1238  0.0427 -0.2323
33177ION     NA48308   6.143  14.349   5.164 -0.1854  0.0903  0.0284
33178ION     NA48309   5.038   0.796   9.947 -0.3546  0.3326 -0.0113
33179ION     NA48310  16.312  16.844  10.633  0.0115  0.2735 -0.2688
33180ION     NA48311  16.656   3.967   0.183 -0.1810 -0.0023 -0.1992
33181ION     NA48312  16.715   6.926   1.081  0.3359 -0.5349  0.0299
33182ION     NA48313   5.911   9.534   1.083 -0.1254  0.2480 -0.0920
33183ION     NA48314  11.973   3.046  15.073 -0.0616 -0.1012  0.2194
33184ION     NA48315   8.772  10.623   4.531  0.1810 -0.0771 -0.1749
33185ION     NA48316  11.872   8.617  12.233  0.0404  0.0548 -0.1604
33186ION     NA48317   3.306  16.694   5.148  0.0255  0.0638  0.2379
33187ION     NA48318   8.588  11.622   0.656 -0.0915  0.2922  0.1415
33188ION     NA48319   3.368  11.329   4.510  0.2724 -0.0889  0.0743
33189ION     NA48320   2.970  15.836   4.256  0.2632  0.0679 -0.1037
33190ION     NA48321  17.079   5.541  10.976 -0.2012  0.1362 -0.1042
33191ION     NA48322   9.734  13.112   2.351  0.1961 -0.1507 -0.1791
33192ION     NA48323   7.802  13.160  15.261  0.1498 -0.4187  0.0696
33193ION     NA48324   1.446  10.407   0.608  0.1856  0.2505  0.4596
33194ION     NA48325   1.250   1.779  14.213  0.0617  0.1318 -0.0312
33195ION     NA48326  11.956  10.072  12.997  0.1531 -0.3205  0.0595
33196ION     NA48327  11.833  14.355  12.228 -0.5037  0.1013  0.0787
33197ION     NA48328   5.036   1.598  14.486 -0.2386  0.2707 -0.0627
33198ION     NA48329  11.396   2.607   1.226 -0.3126 -0.0251  0.0537
33199ION     NA48330   8.191   4.726   4.510  0.0149  0.1216  0.1101
33200ION     NA48331   0.708   9.666  10.126 -0.0288 -0.1559  0.0846
33201ION     NA48332   3.155   7.797   0.939 -0.3593  0.0471 -0.2867
33202ION     NA48333   9.745  11.112   5.469  0.2252 -0.0821  0.0818
33203ION     NA48334  14.728  10.842  10.547 -0.0215 -0.0710  0.2553
33204ION     NA48335   1.011   2.326   5.046  0.1175  0.1022  0.1846
33205ION     NA48336   3.390   2.893   9.955 -0.0758  0.0866  0.1593
33206ION     NA48337   7.336   2.912   6.064  0.1307  0.0286 -0.2540
33207ION     NA48338   1.797   6.320   4.018 -0.0089  0.1033  0.0030
33208ION     NA48339  10.026   4.668   4.524  0.0649 -0.0114  0.0629
33209ION     NA48340   1.906   5.615   0.473 -0.3823  0.1784  0.0460
33210ION     NA48341  14.053   0.538  10.370  0.0961 -0.0238  0.0958
33211ION     NA48342   4.591  14.260   9.980  0.0224 -0.2517  0.3027
33212ION     NA48343  14.604   5.974   0.470 -0.0002 -0.1001 -0.1147
33213ION     NA48344   7.650   9.359  14.913 -0.1749 -0.0042  0.1554
33214ION     NA48345  13.073   1.596  15.490  0.1528 -0.1161 -0.0489
33215ION     NA48346  10.793  10.516  16.138 -0.1137  0.0227  0.1109
33216ION     NA48347   5.674   1.117   3.916  0.0747  0.1543  0.0174
33217ION     NA48348   3.743  17.048  11.618 -0.0073  0.0144 -0.2538
33218ION     NA48349  13.563   9.964   3.823 -0.3581  0.2076 -0.0501
33219ION     NA48350   2.657   4.636   1.996 -0.1352  0.1153  0.1079
33220ION     NA48351   5.836  12.511   0.801  0.0785  0.2090  0.3280
33221ION     NA48352  17.946  18.126   5.878  0.0123  0.3092 -0.1653
33222ION     NA48353  17.338  10.698  14.594  0.1983 -0.1276 -0.1394
33223ION     NA48354   6.139   5.559   1.521 -0.0421 -0.1078 -0.2054
33224ION     NA48355  11.753   4.769   0.021 -0.0958 -0.3291 -0.0915
33225ION     NA48356  15.344   0.852   2.410  0.0235  0.0078  0.0271
33226ION     NA48357  11.411  10.863   4.700 -0.0301  0.1147 -0.0759
33227ION     NA48358  16.010  15.785   4.067  0.2492  0.1462  0.2368
33228ION     NA48359  15.937   5.923   3.887 -0.1691 -0.1890  0.1694
33229ION     NA48360   5.599   0.759   4.602  0.2667 -0.1948 -0.0561
33230ION     NA48361   4.248  12.382  14.425  0.1189  0.2921 -0.0002
33231ION     NA48362  17.235  15.893   0.110 -0.0443 -0.1829  0.0996
33232ION     NA48363  10.700  12.499  13.310 -0.1164 -0.1568  0.2118
33233ION     NA48364   7.488   7.637   2.052  0.3826 -0.2833 -0.1769
33234ION     NA48365  10.700   1.237  12.084 -0.0520 -0.0013 -0.2016
33235ION     NA48366  11.895   1.940  10.421  0.1253 -0.0220 -0.2090
33236ION     NA48367   0.651   4.832   4.041 -0.0054  0.0217 -0.0876
33237ION     NA48368  10.027  14.840  10.033 -0.2206  0.0871  0.2037
33238ION     NA48369   3.724   6.191  14.335 -0.0006 -0.1936 -0.0889
33239ION     NA48370   4.147  14.342   5.617  0.1560 -0.2416  0.1762
33240ION     NA48371  13.307  12.931  15.658  0.0034  0.1881  0.2566
33241ION     NA48372  13.404   0.643   3.287 -0.0944  0.3408 -0.1899
33242ION     NA48373  14.662   8.960   1.625 -0.0798  0.1344  0.1396
33243ION     NA48374   1.161   6.505   6.279  0.1671  0.1362 -0.0487
33244ION     NA48375  13.932   0.082  15.963  0.0476 -0.1075 -0.2154
33245ION     NA48376   1.449   2.498   5.718 -0.0762  0.1113 -0.0064
33246ION     NA48377  12.940  15.221   0.027 -0.1445  0.0475  0.1783
33247ION     NA48378   5.369  14.263   4.701 -0.2397 -0.1242 -0.0930
33248ION     NA48379  12.148   3.469  10.549  0.1010  0.2188 -0.1090
33249ION     NA48380   9.236   1.820  10.394 -0.0805 -0.1242  0.4670
33250ION     NA48381   9.608   5.866  13.223 -0.2051 -0.1922  0.1298
33251ION     NA48382   2.898  16.260   6.027  0.0688 -0.0022  0.2815
33252ION     NA48383   1.399   1.220  15.989  0.0661 -0.0521  0.1269
33253ION     NA48384   7.772   5.318  14.369  0.1131  0.3811 -0.0056
33254ION     NA48385   7.090  10.989   5.495  0.0522 -0.0525 -0.2153
33255ION     NA48386  16.026  11.912  10.725 -0.4915 -0.0920  0.1404
33256ION     NA48387  11.208   0.548   2.745 -0.1680  0.0261  0.0446
33257ION     NA48388  14.934   9.403  10.746  0.0764 -0.0346  0.2665
33258ION     NA48389  16.652   0.610   2.656 -0.2132  0.1524 -0.0102
33259ION     NA48390   9.475   7.093   6.117  0.0736  0.0042  0.0268
33260ION     NA48391  18.097   8.844   3.684  0.0573 -0.1489  0.0991
33261ION     NA48392   3.516  13.954   4.002  0.0516 -0.0392 -0.0699
33262ION     NA48393  11.220   7.669   3.556  0.0443  0.2518 -0.1984
33263ION     NA48394   9.676   8.526  11.436  0.1039  0.1354  0.0329
33264ION     NA48395   9.030   3.177  10.257  0.0965  0.1636 -0.0061
33265ION     NA48396   4.319  11.226  15.674  0.0549 -0.0873  0.2655
33266ION     NA48397   0.431  16.625  10.652 -0.1314 -0.2856 -0.1433
33267ION     NA48398   8.928   7.579  10.537 -0.1357  0.0543  0.0968
33268ION     NA48399   5.617  14.552  14.752 -0.1183  0.1136 -0.1797
33269ION     NA48400  14.579   4.618   6.024 -0.0233 -0.1765  0.2744
33270ION     NA48401   6.970   5.881  15.634 -0.0132 -0.1130 -0.0132
33271ION     NA48402   5.384   6.911   4.193  0.2417 -0.1784 -0.0411
33272ION     NA48403   5.822   7.723   9.977  0.4577 -0.1097 -0.0198
33273ION     NA48404  13.249   6.539  10.724  0.0071 -0.0374 -0.2948
33274ION     NA48405  15.675   6.799   1.882  0.2177 -0.1642 -0.2960
33275ION     NA48406   0.527  14.424   2.290 -0.1379  0.1032 -0.5700
33276ION     NA48407  18.024  11.382   6.211  0.3053 -0.2280 -0.0152
33277ION     NA48408  16.755   3.840  10.263  0.0739 -0.0411  0.0205
33278ION     NA48409   3.887   0.331   5.190  0.0281 -0.1861 -0.0588
33279ION     NA48410  10.305   2.950   0.968  0.0890 -0.3449 -0.0947
33280ION     NA48411   1.012  13.409   5.841 -0.2921  0.2145 -0.5208
33281ION     NA48412  15.138   1.538  13.730  0.1304  0.0310  0.3347
33282ION     NA48413  15.320  12.732  13.882 -0.3384  0.0316 -0.0823
33283ION     NA48414   7.434  12.970   3.160  0.3293 -0.1801  0.0254
33284ION     NA48415   5.174   4.003  10.271 -0.1607 -0.3451 -0.2111
33285ION     NA48416  10.487   5.663   5.978  0.2366 -0.1181 -0.0483
33286ION     NA48417  13.095   6.018  15.769 -0.1579  0.1382 -0.3075
33287ION     NA48418  17.550  13.676   6.523  0.0857  0.0980 -0.1899
33288ION     NA48419   5.506   6.791  10.108  0.2093  0.5254  0.2656
33289ION     NA48420  16.673  17.909  14.059 -0.0493  0.1097 -0.0532
33290ION     NA48421  17.147   3.197  13.177 -0.0093  0.0761 -0.1084
33291ION     NA48422  10.912   2.779  10.144 -0.0759 -0.1912 -0.1019
33292ION     NA48423   1.843  16.294   4.710  0.0016  0.2284 -0.2981
33293ION     NA48424  17.060  15.783  14.922 -0.1766  0.1791  0.0979
33294ION     NA48425   3.697   8.901  14.571  0.1385  0.1060  0.1648
33295ION     NA48426   3.211   2.504   1.063 -0.2864 -0.0970 -0.1925
33296ION     NA48427   3.692   9.059   5.058  0.0337 -0.1155 -0.2074
33297ION     NA48428   3.813  12.858   4.894  0.1931  0.2142  0.1737
33298ION     NA48429  15.209  16.327   4.838 -0.0616 -0.2169 -0.2789
33299ION     NA48430  12.347   8.701   2.357  0.1549 -0.1187 -0.1054
33300ION     NA48431   5.156  18.136   0.145 -0.2187  0.1312 -0.2079
33301ION     NA48432   5.072   0.245   1.839 -0.2119  0.1328  0.0778
33302ION     NA48433  12.013  16.625   1.830  0.1278  0.1857  0.2170
33303ION     NA48434  14.347   9.026  11.400  0.2789  0.0703 -0.3286
33304ION     NA48435  12.849  11.166  14.704 -0.0368  0.1708  0.0131
33305ION     NA48436   4.702   6.149  14.980 -0.2352  0.2031 -0.1777
33306ION     NA48437   0.756   1.054   5.290 -0.1436  0.0888 -0.0593
33307ION     NA48438   2.006  13.264   4.791  0.0732  0.1087  0.0794
33308ION     NA48439  14.259   6.218   6.408  0.2885  0.1089 -0.0639
33309ION     NA48440   2.435   8.900  10.253 -0.0492 -0.1288 -0.1383
33310ION     NA48441   2.717  11.523  10.149 -0.1544 -0.0550  0.0485
33311ION     NA48442  11.089  13.898  13.178 -0.2013  0.0290  0.0103
33312ION     NA48443   2.409  14.757  10.444  0.0217 -0.2827  0.0109
33313ION     NA48444  11.328  17.769  14.656  0.2512 -0.2572  0.1774
33314ION     NA48445  10.223  15.143   5.617  0.0174 -0.0520 -0.2665
33315ION     NA48446   6.529   6.371   6.093  0.2327  0.0670  0.0802
33316ION     NA48447   0.631   5.872  11.457 -0.0370 -0.1897  0.0318
33317ION     NA48448  16.884   8.086  13.914  0.1557 -0.2725  0.0330
33318ION     NA48449   1.048   4.706  11.004  0.0681  0.0337 -0.0634
33319ION     NA48450   2.486   7.228   3.637 -0.2260 -0.1703 -0.1230
33320ION     NA48451  10.402   4.609  10.339  0.0725  0.1649 -0.0552
33321ION     NA48452  12.488   6.024   4.053 -0.2505 -0.2384  0.2006
33322ION     NA48453   6.442   2.828   0.806 -0.0101 -0.0416  0.1520
33323ION     NA48454  14.089   2.170   0.940  0.0413 -0.0126 -0.0472
33324ION     NA48455  12.797  13.531  10.184 -0.0110  0.0481  0.1231
33325ION     NA48456  13.311   7.266  14.872  0.0704  0.0027 -0.2828
33326ION     NA48457   0.271   1.791  14.249 -0.3545 -0.1823  0.0783
33327ION     NA48458  15.791   0.259  10.382 -0.0979 -0.2610  0.0853
33328ION     NA48459  10.758  14.916   5.522  0.1167  0.0581 -0.0833
33329ION     NA48460   6.841   1.317  10.168  0.0743 -0.1487 -0.2520
33330ION     NA48461  17.343   0.023   0.111 -0.0485  0.2478  0.1245
33331ION     NA48462  11.890  14.815  10.327  0.1347  0.1326 -0.1289
33332ION     NA48463   2.022  17.954  11.717  0.3581 -0.1519 -0.0527
33333ION     NA48464   3.962  13.018   9.870 -0.2745  0.3300  0.0852
33334ION     NA48465  16.056  12.904   1.715 -0.1387  0.1797  0.5241
33335ION     NA48466   6.869   0.532  10.548 -0.3824  0.2545  0.1405
33336ION     NA48467   4.654  13.292   3.130  0.1691  0.2391  0.0427
33337ION     NA48468  13.384   2.098   6.112  0.0574 -0.1466 -0.1461
33338ION     NA48469  10.376   2.428  12.718 -0.0225  0.1610  0.2015
33339ION     NA48470   8.340  17.899   5.123 -0.2959 -0.4208 -0.1924
33340ION     NA48471  16.998   5.265  13.627  0.1873  0.2246 -0.0717
33341ION     NA48472   8.793  17.015   4.177  0.0263  0.0053  0.1829
33342ION     NA48473   1.589   9.025  16.169 -0.0530 -0.0313 -0.3067
33343ION     NA48474  10.687   9.729  15.519  0.1421 -0.0540 -0.0404
33344ION     NA48475  16.281  14.777   0.041 -0.5099  0.2556 -0.2767
33345ION     NA48476  17.232   2.774  14.657  0.3128  0.1317 -0.1434
33346ION     NA48477   7.109   5.280  13.271  0.1869 -0.0201  0.1494
33347ION     NA48478   5.580   7.441   5.470  0.0102  0.0971  0.1101
33348ION     NA48479   8.747  10.366   2.514  0.0429 -0.0143 -0.1405
33349ION     NA48480  12.157   6.425   3.145  0.0111 -0.0003 -0.4236
33350ION     NA48481   0.220   0.464   5.247 -0.2001  0.1753 -0.1768
33351ION     NA48482   5.478  10.961  13.932 -0.1738 -0.1160  0.0743
33352ION     NA48483   8.128  13.234   5.568 -0.1810 -0.2709  0.1550
33353ION     NA48484   0.987  16.001  10.725 -0.4707  0.0766  0.0391
33354ION     NA48485  12.828   7.527  10.497 -0.2912  0.2360 -0.0793
33355ION     NA48486   5.217   2.801   5.860 -0.3049  0.3651 -0.0365
33356ION     NA48487   8.097  11.188   5.813  0.0019 -0.1095  0.1476
33357ION     NA48488  16.259  10.266  11.166  0.0945  0.0202  0.3366
33358ION     NA48489   9.057  16.328  10.244 -0.1639  0.0246 -0.1094
33359ION     NA48490  16.283  10.483  10.381 -0.2063  0.1674 -0.1844
33360ION     NA48491  15.965   2.791  12.403 -0.1259  0.1712 -0.3204
33361ION     NA48492   1.443   4.999   2.005 -0.1015 -0.2932  0.1359
33362ION     NA48493   6.385   4.794  12.760  0.1184  0.1018  0.1589
33363ION     NA48494   5.631   7.950  15.363 -0.1371  0.0223  0.1832
33364ION     NA48495  17.154   2.828   5.570  0.1935  0.3186 -0.0612
33365ION     NA48496  12.629   3.556   0.516  0.2850  0.3403  0.1458
33366ION     NA48497   8.192   6.629   2.346  0.2343 -0.1525  0.1556
33367ION     NA48498  17.688  17.335   6.481  0.0279  0.2298 -0.3663
33368ION     NA48499  14.458   8.271  10.651 -0.4066  0.3402 -0.1703
33369ION     NA48500   4.532   6.636  10.087 -0.2796 -0.1429 -0.1007
33370ION     NA48501   5.234  13.688   9.898  0.0102  0.2535  0.2173
33371ION     NA48502  10.881   6.131   3.773  0.1736  0.0717  0.2548
33372ION     NA48503  14.349   3.056  10.315 -0.2664  0.1799 -0.0718
33373ION     NA48504   9.387  11.888  15.228 -0.0982 -0.1592 -0.0685
33374ION     NA48505   6.895  13.302   9.701  0.2710 -0.0702  0.0623
33375ION     NA48506  14.502   9.570   2.784  0.2190  0.1445  0.0359
33376ION     NA48507   6.926  11.894   0.092  0.0057 -0.0570  0.0451
33377ION     NA48508   3.643  12.573   5.756 -0.1142 -0.0924  0.2061
33378ION     NA48509  17.758  17.145  14.118 -0.0792 -0.0848  0.0735
33379ION     NA48510   7.048  10.024  11.497  0.1060  0.3131 -0.4563
33380ION     NA48511  10.721   9.194   2.668 -0.2208 -0.1653 -0.0833
33381ION     NA48512  11.801   5.754   4.724  0.0784  0.0487 -0.2295
33382ION     NA48513  16.987   8.703   4.034 -0.0682 -0.0250 -0.0431
33383ION     NA48514   0.423   8.170   0.885 -0.4374  0.3017 -0.3892
33384ION     NA48515   2.454   6.042   2.933 -0.0019 -0.2631 -0.0506
33385ION     NA48516   5.095  14.298  15.476  0.0043  0.1527  0.3001
33386ION     NA48517  11.705  11.324  10.454 -0.1828 -0.1434  0.2662
33387ION     NA48518   1.288   9.885   4.235 -0.0813 -0.0450 -0.4215
33388ION     NA48519  12.634   5.008   5.931 -0.0446 -0.1708 -0.0242
33389ION     NA48520  15.674  11.098  10.374  0.0921  0.0698  0.2990
33390ION     NA48521   0.558   8.385   3.978 -0.2204  0.1374 -0.1015
33391ION     NA48522  14.380  15.335   6.165  0.1954  0.3344  0.1996
33392ION     NA48523  16.721   8.010  15.842  0.1735 -0.0565  0.2490
33393ION     NA48524   0.773   7.639  15.414 -0.0658  0.1111  0.0767
33394ION     NA48525  16.087   8.905  10.392 -0.3075  0.0274  0.0941
33395ION     NA48526  14.391  11.208  14.156  0.2296  0.1130 -0.1542
33396ION     NA48527  12.512  11.876  14.436 -0.1332  0.2244  0.3419
33397ION     NA48528  13.943  11.732   4.327 -0.2090  0.1660  0.0300
33398ION     NA48529   3.917   8.714  12.508 -0.0980 -0.3824 -0.0010
33399ION     NA48530  10.139   3.300  10.265 -0.2222  0.1679  0.0792
33400ION     NA48531   2.691  10.159  15.303  0.0725  0.1526 -0.2236
33401ION     NA48532  11.986  11.803  12.189 -0.0237  0.0175 -0.5206
33402ION     NA48533   0.642  10.738  10.440  0.1981  0.0972 -0.2921
33403ION     NA48534   7.202   6.484  10.052  0.0959  0.3398  0.3051
33404ION     NA48535  16.724   8.117  14.911 -0.0934 -0.0259 -0.2310
33405ION     NA48536   8.404   1.782   6.050  0.0311 -0.0443  0.3228
33406ION     NA48537  18.128   9.353   0.349 -0.1367  0.0905  0.4002
33407ION     NA48538   9.107  12.022   2.392 -0.0188  0.0491 -0.1989
33408ION     NA48539   3.243   1.549   5.728 -0.2242  0.3165  0.0818
33409ION     NA48540  11.064   2.131  13.701 -0.2478 -0.1713 -0.0806
33410ION     NA48541  15.380   8.159  10.455 -0.0715  0.0668 -0.1972
33411ION     NA48542  13.740  16.046   3.420 -0.1702  0.1828  0.0762
33412ION     NA48543  11.893  12.365   0.802 -0.1598 -0.1593 -0.1641
33413ION     NA48544   0.950  10.004  14.415  0.1804  0.1284 -0.0043
33414ION     NA48545   5.455   1.683   5.120  0.0748  0.0534 -0.1224
33415ION     NA48546   0.709  11.922  11.630  0.3257 -0.0326  0.1210
33416ION     NA48547  14.855   6.714   3.535  0.1144 -0.3565 -0.1665
33417ION     NA48548  16.517   0.914   1.816 -0.0334  0.0031  0.1323
33418ION     NA48549  14.137  14.017   2.259 -0.0091  0.2585  0.0633
33419ION     NA48550  14.770  13.225   5.837  0.1182  0.0225  0.0948
33420ION     NA48551  17.156   4.335   2.643 -0.2012 -0.2065 -0.2312
33421ION     NA48552   1.444   8.521   4.997  0.1016 -0.1618  0.1009
33422ION     NA48553  13.852  11.755   0.085  0.1303 -0.1471 -0.2083
33423ION     NA48554   9.257  11.403   4.609  0.2848  0.0017  0.0805
33424ION     NA48555  16.253  11.518   3.616 -0.0861  0.1304  0.1691
33425ION     NA48556   0.332   8.788  10.057 -0.0794 -0.1923  0.3324
33426ION     NA48557  15.524   5.899   0.744  0.1261 -0.1663  0.0089
33427ION     NA48558  11.377  13.469   0.258  0.1456  0.1859 -0.2248
33428ION     NA48559   3.906   5.216  14.411 -0.3199 -0.0360  0.1214
33429ION     NA48560   9.839  14.707   3.907 -0.2312 -0.1983  0.3047
33430ION     NA48561   2.585   6.072  16.024  0.1000 -0.0330  0.2629
33431ION     NA48562  11.066  14.431  10.169 -0.1670 -0.0411  0.1044
33432ION     NA48563   8.386   1.957  10.537  0.0204  0.2093  0.0340
33433ION     NA48564  18.128  14.322  10.522 -0.0011  0.3524 -0.2951
33434ION     NA48565  17.781   0.510  10.535  0.0622 -0.1801  0.1262
33435ION     NA48566  13.964  15.542   2.525 -0.0785 -0.0988  0.1403
33436ION     NA48567   8.941  13.660   5.702 -0.1290  0.3175  0.0528
33437ION     NA48568  17.651  17.133  11.264  0.0341 -0.0508 -0.0707
33438ION     NA48569   0.043   4.233  10.385 -0.0683  0.2691  0.3489
33439ION     NA48570   1.325   5.493   6.056  0.2895 -0.0795  0.0024
33440ION     NA48571   4.001   0.130   1.711  0.0403  0.2370  0.1179
33441ION     NA48572  12.489  12.222  16.070  0.1324 -0.0459 -0.2039
33442ION     NA48573  17.483   4.524  15.459 -0.1924 -0.0986  0.0506
33443ION     NA48574  11.620  15.863   0.587  0.2468  0.1822 -0.2091
33444ION     NA48575   6.622  10.150   5.312 -0.2907  0.1673 -0.2653
33445ION     NA48576   3.689  17.525   9.785 -0.2451 -0.2188 -0.1174
33446ION     NA48577  17.976  15.474  14.424  0.3299 -0.3151 -0.1903
33447ION     NA48578  17.687   6.233   0.259 -0.1166  0.2586  0.0514
33448ION     NA48579  14.358  17.900  10.326  0.1811  0.0624  0.1898
33449ION     NA48580  13.032   1.713  12.888  0.0885  0.0090 -0.0457
33450ION     NA48581  10.773   7.127   4.688  0.0045 -0.0415  0.0809
33451ION     NA48582  11.770   2.979  10.410 -0.0035  0.0108 -0.1529
33452ION     NA48583  16.994  14.146   1.429  0.1324 -0.0351 -0.0272
33453ION     NA48584   4.134  15.138   6.036 -0.1889 -0.2966  0.0064
33454ION     NA48585   7.349   4.825   0.269  0.1941  0.0068  0.1945
33455ION     NA48586  17.045   2.856  15.848  0.2174  0.1596  0.0640
33456ION     NA48587   7.799  13.364   9.739 -0.1306  0.0533 -0.1724
33457ION     NA48588  13.401  18.048  10.248  0.2188 -0.0354  0.1897
33458ION     NA48589  17.281   9.746  10.173  0.1167 -0.0516 -0.1773
33459ION     NA48590   1.742   9.480  10.112 -0.1610  0.0070 -0.0352
33460ION     NA48591   6.873  15.368  11.762  0.0463 -0.3987 -0.0634
33461ION     NA48592   6.075  13.374  14.990  0.0234 -0.0263 -0.0106
33462ION     NA48593  14.219   1.698  10.626  0.0727  0.2323 -0.1521
33463ION     NA48594  14.864  11.134   1.905  0.2170 -0.2360  0.0463
33464ION     NA48595   2.836   7.247  10.064  0.2631  0.1123  0.0585
33465ION     NA48596   6.103   4.316   2.630  0.0931 -0.2304 -0.0745
33466ION     NA48597  16.923   0.449   5.883  0.2057  0.0053  0.0612
33467ION     NA48598   2.769   9.602   0.837 -0.2904 -0.0141 -0.0779
33468ION     NA48599  16.638   5.724   2.535 -0.0247  0.3032  0.2631
33469ION     NA48600   8.944   7.489   2.928 -0.0023 -0.0347  0.3748
33470ION     NA48601  17.941   0.663  13.823  0.0329 -0.0804  0.1422
33471ION     NA48602   7.294   0.528   0.634 -0.2513  0.1248  0.1989
33472ION     NA48603   5.154  17.569   2.660 -0.0270 -0.0802 -0.0500
33473ION     NA48604  11.944  13.456  13.777  0.1974 -0.1735  0.0687
33474ION     NA48605   2.758  14.515   5.200  0.1669  0.1683 -0.1457
33475ION     NA48606  15.690   2.891  15.190  0.4225 -0.3106 -0.1704
33476ION     NA48607  13.087   9.190  13.539 -0.1591 -0.0400 -0.0329
33477ION     NA48608   7.331  12.144  14.567 -0.1772  0.1484  0.0445
33478ION     NA48609  10.115  10.181   9.990  0.0069 -0.0389  0.0041
33479ION     NA48610   1.223  17.605  13.295  0.0453  0.4375  0.1205
33480ION     NA48611  14.855  12.705   1.374  0.1261 -0.1518  0.1486
33481ION     NA48612  17.619   9.307  14.819  0.1191  0.0093 -0.0749
33482ION     NA48613   8.447  14.425  13.903  0.0204  0.0866  0.0862
33483ION     NA48614   9.483  11.047  10.054  0.1104  0.2499 -0.1532
33484ION     NA48615   5.962   4.344   4.447  0.2821 -0.1368  0.2824
33485ION     NA48616   4.425   3.033  10.274  0.0679  0.3818 -0.0432
33486ION     NA48617   9.166   6.457  10.543 -0.1254  0.1713  0.2950
33487ION     NA48618  10.612  13.892   5.536  0.2040  0.0630 -0.3255
33488ION     NA48619   6.045   5.185   0.505  0.2192 -0.0060 -0.2207
33489ION     NA48620   6.685   0.093   1.899  0.1017 -0.0791 -0.2988
33490ION     NA48621  10.326  16.643  10.790 -0.0285  0.0311  0.0865
33491ION     NA48622   7.165   0.090  15.823 -0.0348 -0.0747 -0.1818
33492ION     NA48623   5.803  12.370   5.570  0.2259  0.0398  0.2229
33493ION     NA48624   0.527   5.108   5.625 -0.0812  0.1051  0.1099
33494ION     NA48625  17.230   7.473  10.440 -0.1412 -0.2504 -0.0280
33495ION     NA48626   3.874  14.660   1.816 -0.0788 -0.0384  0.1114
33496ION     NA48627  17.581   5.327   1.660 -0.1727  0.0017  0.0781
33497ION     NA48628  17.826  17.021   6.059 -0.1708 -0.0804  0.2607
33498ION     NA48629   1.329  12.962   1.548  0.3331 -0.1301 -0.4528
33499ION     NA48630   4.686   3.871   0.583  0.2054 -0.1787 -0.0076
33500ION     NA48631  12.561   9.565   3.424 -0.2405  0.0244  0.0280
33501ION     NA48632   6.426  15.005   5.179 -0.1849  0.1147 -0.1486
33502ION     NA48633   4.149  10.803   0.860  0.1577  0.0484 -0.0550
33503ION     NA48634  12.677  15.807   5.909 -0.0252  0.2423 -0.1581
33504ION     NA48635  17.915   2.149  12.593  0.1480  0.0446  0.0355
33505ION     NA48636  14.525   1.659   3.835 -0.1664  0.1286  0.1553
33506ION     NA48637  17.684   3.918   5.667 -0.0441  0.1848 -0.0208
33507ION     NA48638  12.548   0.252  10.408 -0.0755  0.0223  0.0508
33508ION     NA48639   7.487   7.738   0.581  0.0342  0.1751  0.1208
33509ION     NA48640  10.933  10.217  12.514 -0.0528 -0.1715 -0.1240
33510ION     NA48641   1.709  12.554   2.503  0.3245 -0.2750  0.0406
33511ION     NA48642   2.378  13.419  10.024  0.1764 -0.2887  0.0286
33512ION     NA48643  13.521  12.978  10.252 -0.1723 -0.0383 -0.1302
33513ION     NA48644   0.952   8.231  14.746 -0.0777 -0.1190 -0.1227
33514ION     NA48645  17.100   1.980   6.083  0.0985  0.1407 -0.2587
33515ION     NA48646   4.388  15.200  12.261  0.3054  0.2043  0.2328
33516ION     NA48647  14.162   8.003   3.747  0.0627 -0.3264 -0.0668
33517ION     NA48648   8.151   8.407   2.380 -0.0507  0.4693  0.0214
33518ION     NA48649  10.675   5.355   6.329  0.0354 -0.0020 -0.2050
33519ION     NA48650   6.280   5.973   5.918  0.4982 -0.3392 -0.3146
33520ION     NA48651  11.915   2.429   0.312  0.1609 -0.0064 -0.1126
33521ION     NA48652  12.941   0.087  14.252  0.0291 -0.0730 -0.1567
33522ION     NA48653   4.916   7.824   3.483  0.0518 -0.2770  0.0092
33523ION     NA48654   7.367  14.095   9.670  0.4081 -0.1221  0.0783
33524ION     NA48655  14.085   2.787  10.705 -0.0456  0.0809  0.0005
33525ION     NA48656   4.134   4.051  10.316 -0.0982 -0.2122 -0.2337
33526ION     NA48657   1.641   3.689   3.378 -0.0105  0.1223 -0.0752
33527ION     NA48658   2.420   5.477   9.919 -0.1359  0.3244 -0.0600
33528ION     NA48659  14.117  14.286  14.137  0.0164 -0.1234  0.0676
33529ION     NA48660  17.533  16.573   4.065 -0.0463  0.2325 -0.1836
33530ION     NA48661  11.961   8.788  10.634  0.1155  0.1636  0.0038
33531ION     NA48662   9.017  12.152  10.166  0.0605 -0.2504  0.3260
33532ION     NA48663  11.484   2.918   3.507  0.3479  0.1837  0.0647
33533ION     NA48664   2.659   0.348   5.487  0.1998 -0.0724  0.1388
33534ION     NA48665  16.002  14.323   3.362  0.0316  0.0122  0.2424
33535ION     NA48666   9.633  17.305  10.172  0.1089  0.2785  0.1653
33536ION     NA48667  13.960  11.714   2.598  0.2534 -0.0710  0.1118
33537ION     NA48668  18.141   6.062   2.716 -0.1395 -0.0044 -0.1555
33538ION     NA48669   6.364   1.046  13.061 -0.0991  0.1187 -0.0390
33539ION     NA48670   7.372  16.641   0.552 -0.0910  0.0370 -0.0291
33540ION     NA48671   5.331   0.350   5.791 -0.1212 -0.1646 -0.2083
33541ION     NA48672  15.080   2.666  15.897  0.1109  0.1171  0.1714
33542ION     NA48673   6.390  13.553   2.431  0.2103 -0.1146  0.0750
33543ION     NA48674   8.092   9.619   0.332 -0.0099 -0.1819 -0.2409
33544ION     NA48675  15.588  10.029   0.675  0.1688  0.1386 -0.1662
33545ION     NA48676   9.888   8.650  10.116  0.0781 -0.2619 -0.3260
33546ION     NA48677   3.341   6.806  11.231 -0.0534  0.1129  0.0012
33547ION     NA48678   1.754  13.166  13.430  0.1725  0.0359 -0.1309
33548ION     NA48679  16.475   5.902  10.442  0.2161 -0.2463  0.0334
33549ION     NA48680  17.847  16.975   2.207  0.0084  0.0672 -0.0467
33550ION     NA48681  11.005  12.529   5.735 -0.0899 -0.3022  0.2531
33551ION     NA48682  12.334   8.032   6.229  0.0672  0.2526  0.0210
33552ION     NA48683   7.425  14.419   3.454  0.0883 -0.2505 -0.0737
33553ION     NA48684  10.151   6.269   6.077  0.0446 -0.0206  0.0092
33554ION     NA48685  17.632   8.763  10.209 -0.0123 -0.1368  0.0330
33555ION     NA48686   7.215  11.466  12.733 -0.1362  0.0445  0.1412
33556ION     NA48687   9.845   1.227   1.885  0.0370  0.2599  0.1003
33557ION     NA48688   4.054   0.848   9.849  0.1337 -0.0862 -0.0325
33558ION     NA48689   3.144   7.689   6.121  0.2805  0.5963  0.1573
33559ION     NA48690   2.643   5.410   1.493 -0.0535  0.0521  0.0123
33560ION     NA48691  17.158  15.618   6.005 -0.1627  0.1174 -0.1019
33561ION     NA48692  10.880   2.160  10.467  0.0602  0.3374 -0.0550
33562ION     NA48693   7.443  14.985   9.589 -0.1553 -0.0013  0.1386
33563ION     NA48694   5.351   6.089  13.591  0.0723 -0.0240  0.1301
33564ION     NA48695   3.239  18.041   3.769 -0.0785 -0.1373 -0.2500
33565ION     NA48696   1.929   6.062   1.258 -0.1493 -0.0947  0.1311
33566ION     NA48697  17.139  13.173   3.471  0.0891 -0.1945 -0.3290
33567ION     NA48698   9.244  17.166  13.815 -0.0377  0.1402  0.0752
33568ION     NA48699   5.087   2.146  10.546 -0.0920  0.1427 -0.0304
33569ION     NA48700  11.084   8.026   6.114 -0.0448  0.3019  0.2051
33570ION     NA48701   3.858   6.340   5.618  0.0406 -0.0167 -0.2583
33571ION     NA48702   7.013   6.996   5.837 -0.2406 -0.1050 -0.0451
33572ION     NA48703  14.784  12.381  15.567  0.2633  0.3558 -0.3128
33573ION     NA48704  18.148  10.589   5.353  0.1643  0.0807  0.1293
33574ION     NA48705   4.565  16.639   1.705  0.0699  0.1664 -0.1791
33575ION     NA48706  14.714  14.342  10.771 -0.2958 -0.0673 -0.1398
33576ION     NA48707  10.560  10.314  10.746  0.0914  0.5750 -0.1422
33577ION     NA48708   6.912   7.703  14.132 -0.2554 -0.3274  0.1815
33578ION     NA48709   0.921   0.249  10.260  0.0957 -0.2948 -0.0521
33579ION     NA48710   6.579  17.788   3.665  0.0340  0.0887  0.1777
33580ION     NA48711  17.433  17.231  13.181 -0.0466  0.2664  0.1098
33581ION     NA48712   7.997   4.737   5.579 -0.0157  0.0382  0.4580
33582ION     NA48713   8.409   9.079   1.416  0.1992  0.3957 -0.1011
33583ION     NA48714   9.794   7.704  10.238  0.1353  0.0181  0.1023
33584ION     NA48715   8.257  16.750   2.957 -0.0160  0.0772  0.0811
33585ION     NA48716  13.165   9.264  10.450  0.3875 -0.1413  0.2178
33586ION     NA48717   0.236   4.026   3.189 -0.2709  0.2378 -0.2183
33587ION     NA48718   0.701  14.236  14.127  0.1501  0.0831  0.1232
33588ION     NA48719  13.415  12.104  10.103  0.1978 -0.0159 -0.3104
33589ION     NA48720   6.473  16.612   3.107  0.0578 -0.2494 -0.2370
33590ION     NA48721  13.428   7.725   2.267 -0.3244  0.0855  0.3328
33591ION     NA48722   4.201   2.121   2.767 -0.0071 -0.0681  0.1316
33592ION     NA48723  16.340   5.615  11.999  0.1180  0.2238  0.3785
33593ION     NA48724  18.099  10.277  10.334 -0.1969  0.0129  0.0195
33594ION     NA48725   9.913   1.748  15.047 -0.0929  0.0688  0.0341
33595ION     NA48726   8.110  11.824  10.024  0.1200 -0.4098  0.1887
33596ION     NA48727   9.298   3.257   6.051 -0.0806  0.4015 -0.0771
33597ION     NA48728   5.481  15.002   5.307  0.2587  0.3259 -0.2279
33598ION     NA48729   3.780   4.935   5.559  0.1008 -0.1105  0.0806
33599ION     NA48730   3.974  10.500   9.992 -0.2878 -0.0801  0.1972
33600ION     NA48731  16.175  16.267   6.549 -0.1112 -0.3105 -0.1105
33601ION     NA48732  14.551  14.807   5.326  0.2339  0.0302  0.1141
33602ION     NA48733  10.283  10.766   5.528 -0.0593  0.1711 -0.3148
33603ION     NA48734  14.590  16.253   4.009 -0.1553 -0.2373 -0.2097
33604ION     NA48735  15.183  14.942   1.582  0.0793 -0.1750  0.3153
33605ION     NA48736  17.864  15.153  10.516 -0.0030  0.0343  0.1728
33606ION     NA48737  17.472   4.676  10.677  0.0843  0.2938  0.1771
33607ION     NA48738  17.369  15.150   6.709 -0.3801 -0.1296  0.1716
33608ION     NA48739   2.969   5.597   9.840  0.0590 -0.0211  0.1552
33609ION     NA48740  12.892  11.227   4.325  0.0207  0.1380  0.0082
33610ION     NA48741   6.886  12.806  10.635 -0.0394 -0.0698 -0.1529
33611ION     NA48742  13.621  16.641  13.701 -0.0380 -0.0826 -0.1357
33612ION     NA48743  16.258  11.689   6.538 -0.2162  0.0941  0.1694
33613ION     NA48744  14.340  12.237  13.328 -0.3859 -0.0087  0.3374
33614ION     NA48745  12.320   9.489   6.005  0.1305  0.2576  0.2090
33615ION     NA48746   8.175   3.719  12.608  0.0783 -0.1788  0.2381
33616ION     NA48747  17.778   3.006   6.043 -0.2991  0.0551  0.0912
33617ION     NA48748   8.621  11.311  10.391 -0.2050 -0.2846 -0.5632
33618ION     NA48749  17.365  15.930  10.917 -0.3575  0.0353  0.1300
33619ION     NA48750   0.510   0.661   1.185 -0.1837 -0.0456  0.1683
33620ION     NA48751   1.513   5.133  10.044 -0.2494  0.0967 -0.1360
33621ION     NA48752  13.495  12.914   1.123 -0.1018  0.1593  0.0765
33622ION     NA48753   4.614  15.388   2.473 -0.0097  0.0076  0.3843
33623ION     NA48754   2.397  15.513   1.435 -0.3705 -0.0173  0.1501
33624ION     NA48755   8.005   6.586  10.405  0.1378 -0.1104 -0.1200
33625ION     NA48756   2.619  11.798  15.177 -0.1340 -0.0590  0.0368
33626ION     NA48757  15.480  11.580   6.288  0.2092  0.0169  0.2195
33627ION     NA48758  13.437  10.289  14.621  0.3052  0.2196  0.1559
33628ION     NA48759   6.642  17.073  14.569 -0.3146  0.1432 -0.1418
33629ION     NA48760  17.981  15.648   6.696 -0.2362  0.3031 -0.1083
33630ION     NA48761  16.489   7.888   6.090  0.1353 -0.0459  0.2509
33631ION     NA48762  15.581   0.448   5.334 -0.1332  0.1404 -0.0078
33632ION     NA48763  14.483   1.012   6.177 -0.2027  0.2460 -0.1233
33633ION     NA48764  15.792   3.990  14.172  0.0846 -0.1379  0.1043
33634ION     NA48765   1.540   9.417   4.974 -0.0521 -0.2079 -0.0262
33635ION     NA48766   1.443  16.820  14.138 -0.2657 -0.1368  0.0845
33636ION     NA48767   5.811   2.733  10.536  0.1440  0.1864 -0.2248
33637ION     NA48768  17.464   4.622   3.908 -0.1550  0.0531  0.2454
33638ION     NA48769  12.592  17.777  11.584 -0.0287 -0.0273 -0.0474
33639ION     NA48770  17.318  11.458  10.842  0.0259 -0.0368 -0.0184
33640ION     NA48771  14.159   8.276  12.064  0.1690  0.3129  0.1028
33641ION     NA48772   0.265   0.994  10.558  0.0242 -0.1521  0.0569
33642ION     NA48773  15.884  14.785   2.663  0.0952  0.1629  0.0780
33643ION     NA48774  13.770   4.452  14.723  0.0510 -0.1778 -0.0313
33644ION     NA48775   7.609   9.859   9.698 -0.0113 -0.0259 -0.1886
33645ION     NA48776  11.047   9.059   0.109  0.1279  0.0935 -0.0243
33646ION     NA48777  12.573   7.134  13.316 -0.0149 -0.3047  0.0980
33647ION     NA48778  17.463   1.039   2.292 -0.3489 -0.1471  0.3116
33648ION     NA48779  15.321  10.621   2.739 -0.0451  0.0173  0.3761
33649ION     NA48780  14.386   6.288  11.306 -0.1644  0.3153 -0.3045
33650ION     NA48781   9.759  11.180  12.595  0.0101  0.0594 -0.4794
33651ION     NA48782   4.313  11.525  12.524 -0.1471 -0.2977  0.0577
33652ION     NA48783  17.951  11.595   0.332 -0.0260  0.0571  0.2315
33653ION     NA48784   7.879   4.981   6.358  0.0704  0.1552 -0.0496
33654ION     NA48785   6.739   6.729  12.641  0.2104 -0.1396  0.1676
33655ION     NA48786   7.429  17.884   4.503 -0.3238 -0.0178  0.4534
33656ION     NA48787   3.645  18.156   0.178  0.3209 -0.2675  0.2232
33657ION     NA48788   7.731  15.822   3.880 -0.0726 -0.2941 -0.2501
33658ION     NA48789   9.845  16.961   0.573 -0.1340  0.0828  0.1545
33659ION     NA48790  17.228  16.215   2.683  0.2237 -0.1500  0.1373
33660ION     NA48791  16.626  12.247  13.413  0.0837 -0.0296 -0.0329
33661ION     NA48792   6.468  16.482  13.782 -0.0456 -0.2566  0.2854
33662ION     NA48793   4.278   8.486   5.700  0.0406 -0.0852 -0.0446
33663ION     NA48794  17.292   1.503   0.723 -0.4342 -0.0013 -0.0028
33664ION     NA48795   7.320   2.274  15.692 -0.1725 -0.2387 -0.3496
33665ION     NA48796   9.871   2.660   0.031  0.0992 -0.1065 -0.0368
33666ION     NA48797   5.517  17.046   3.336 -0.1698  0.0015 -0.2180
33667ION     NA48798  11.185  13.505   9.894  0.3067  0.0520  0.0014
33668ION     NA48799   2.283   8.847   6.012  0.3242  0.2842  0.1754
33669ION     NA48800   9.959  12.335   2.866  0.2530 -0.3349  0.2402
33670ION     NA48801   0.136   2.701  10.067  0.2841  0.2633  0.4552
33671ION     NA48802  10.122   7.996  14.148 -0.1956 -0.2168  0.0341
33672ION     NA48803   2.397   4.755   5.488 -0.2042  0.0549  0.0870
33673ION     NA48804   6.650   6.169   3.786 -0.0328  0.3186 -0.2102
33674ION     NA48805   3.701   4.935  10.108  0.0466  0.0745 -0.2745
33675ION     NA48806  18.083  10.563  15.135  0.2186 -0.2498  0.0816
33676ION     NA48807  12.332   6.609  12.828 -0.0943  0.0853 -0.3007
33677ION     NA48808   0.366   3.447   1.696 -0.1672 -0.1122  0.0260
33678ION     NA48809  10.951   9.524   3.534 -0.2514  0.1768  0.0709
33679ION     NA48810   9.328   6.567  12.549 -0.0696 -0.0987 -0.1892
33680ION     NA48811  16.019  10.626  15.477 -0.4495  0.1563  0.2528
33681ION     NA48812  11.076   0.763  15.059 -0.3419  0.4689 -0.1146
33682ION     NA48813  11.392  16.653   4.070 -0.3929  0.0118 -0.0779
33683ION     NA48814   1.671   6.385  16.056  0.0889 -0.0880 -0.2810
33684ION     NA48815  12.554  12.804  11.482 -0.2558  0.3527  0.0883
33685ION     NA48816   8.624   9.941   5.547 -0.1001 -0.0201  0.0559
33686ION     NA48817   8.575   4.536   1.650 -0.0325 -0.2244  0.1102
33687ION     NA48818   6.297  10.620   9.906 -0.1675  0.1981 -0.2005
33688ION     NA48819  13.075  13.517   5.804  0.0327  0.1231  0.3691
33689ION     NA48820  11.602   8.949   5.929  0.1031 -0.0612 -0.2247
33690ION     NA48821  12.669  17.646  13.631 -0.2018  0.0350 -0.1590
33691ION     NA48822  13.889   2.891   5.242  0.0550  0.0554 -0.1215
33692ION     NA48823  16.500   6.940   6.157 -0.0060  0.0393  0.0285
33693ION     NA48824   7.526  12.535  10.183 -0.2677  0.1604  0.0533
33694ION     NA48825  10.049  14.344   5.258  0.3098 -0.2672  0.0632
33695ION     NA48826   3.164   2.793   5.586 -0.4197 -0.0444 -0.1124
33696ION     NA48827   1.165   8.365  12.811  0.0413  0.1330  0.0305
33697ION     NA48828   7.659  18.099   5.871  0.1270  0.0955 -0.1535
33698ION     NA48829   9.898  13.678   3.464 -0.1502 -0.0506  0.0631
33699ION     NA48830   8.247   9.396   9.934 -0.4562  0.0266 -0.3827
33700ION     NA48831  14.197  10.003  15.742 -0.0453 -0.3012  0.2967
33701ION     NA48832   2.155  15.396   5.011 -0.2515 -0.0799 -0.1024
33702ION     NA48833   3.157   8.597   1.365 -0.4704 -0.1276  0.0540
33703ION     NA48834   2.609  10.621  10.204 -0.0486 -0.1759  0.1682
33704ION     NA48835   6.386  17.842  12.287 -0.0381  0.2468  0.1572
33705ION     NA48836   6.066  11.800   2.646  0.1883  0.2779 -0.0497
33706ION     NA48837  15.396  14.422   2.679  0.2361  0.1368 -0.0701
33707ION     NA48838  10.016  10.333  16.101  0.3698 -0.0692  0.1889
33708ION     NA48839  12.438   2.941   6.092 -0.2938 -0.0553  0.1824
33709ION     NA48840  17.740   7.164  10.363 -0.1434  0.1023 -0.0439
33710ION     NA48841   2.275   0.912  13.855 -0.0869  0.2308  0.1509
33711ION     NA48842   8.489   8.111  10.200  0.0532  0.0364  0.3398
33712ION     NA48843   7.032  15.434  15.516 -0.0715  0.0266 -0.0184
33713ION     NA48844   5.416   5.245  10.821 -0.0336 -0.2033 -0.5301
33714ION     NA48845   4.263   8.784  10.130  0.0637 -0.0055  0.0125
33715ION     NA48846  12.133  10.069   0.030 -0.0605  0.1080 -0.1175
33716ION     NA48847  15.226  13.715   6.409 -0.1651 -0.1788  0.0279
33717ION     NA48848  13.527  11.143  12.701  0.1725 -0.0277 -0.0348
33718ION     NA48849  15.449   9.306  13.691 -0.2829 -0.2527  0.1665
33719ION     NA48850   0.081   9.163   4.504  0.1487 -0.0886  0.3033
33720ION     NA48851  18.026  12.898   6.379 -0.1985  0.1264 -0.1571
33721ION     NA48852   3.066   8.531   5.749 -0.3521 -0.4473  0.0812
33722ION     NA48853  16.356   8.126   2.715  0.2365 -0.0531 -0.2159
33723ION     NA48854  16.597   2.393  10.498  0.0312  0.0456 -0.1024
33724ION     NA48855   4.857   8.221   0.783  0.0009  0.1969 -0.2437
33725ION     NA48856   1.627  15.747   0.928 -0.0282 -0.1320  0.0135
33726ION     NA48857  14.276  15.131  10.778 -0.1537 -0.0598  0.0015
33727ION     NA48858   1.167   3.651  10.283  0.1275 -0.0897 -0.2022
33728ION     NA48859   4.019   1.731   3.356  0.0474 -0.0489  0.0137
33729ION     NA48860   1.594  16.839   4.122  0.1954  0.2207  0.2025
33730ION     NA48861  12.528   2.574  10.755 -0.0245  0.1685 -0.0032
33731ION     NA48862  16.198  11.430   5.715 -0.0425  0.1209 -0.3045
33732ION     NA48863  11.786   7.045   1.419  0.1168 -0.0357  0.0077
33733ION     NA48864   6.001   1.804  15.740  0.2749  0.3182  0.3145
33734ION     NA48865  10.375  16.357   0.801  0.0332 -0.2061 -0.2204
33735ION     NA48866   3.790   1.192   4.063 -0.1391  0.2153  0.0129
33736ION     NA48867   7.525   9.767   5.665  0.0242 -0.0985 -0.0370
33737ION     NA48868  11.696   6.642   0.872  0.1437  0.2164 -0.1786
33738ION     NA48869   1.559  15.363  10.539 -0.2595 -0.2805  0.0112
33739ION     NA48870  13.665  10.343  11.426 -0.1237 -0.0793  0.1117
33740ION     NA48871   5.834   2.388   5.352  0.2219  0.1640  0.3090
33741ION     NA48872   1.823   7.642   4.162 -0.2492  0.0097  0.3108
33742ION     NA48873   3.145   9.227   3.508  0.1097 -0.5711  0.1719
33743ION     NA48874   6.842  17.179  10.083 -0.1159  0.1156  0.1983
33744ION     NA48875   0.748   7.641  10.784  0.0093 -0.1907 -0.0412
33745ION     NA48876  14.993   0.229  10.365  0.1177 -0.0210 -0.0947
33746ION     NA48877   1.973  17.718   0.814 -0.0678 -0.1141  0.0593
33747ION     NA48878   1.837   2.596  10.428  0.0868 -0.2992 -0.3019
33748ION     NA48879   0.122   6.153   3.629 -0.0370 -0.0736 -0.1033
33749ION     NA48880  10.559   2.062   0.961  0.1678  0.0143 -0.0256
33750ION     NA48881   9.924  15.023  16.150  0.1815 -0.0646 -0.0220
33751ION     NA48882  18.065   7.318   2.730 -0.0454 -0.1956 -0.0788
33752ION     NA48883  12.108   1.152  10.278 -0.1536  0.1080  0.1406
33753ION     NA48884  16.514  17.782  14.604 -0.4550 -0.0389 -0.3088
33754ION     NA48885  10.587   1.363   1.629  0.1199  0.0834 -0.2598
33755ION     NA48886   0.930   4.436  10.272 -0.2123 -0.0567  0.1369
33756ION     NA48887   4.580  15.751  12.813  0.0787 -0.1325  0.2234
33757ION     NA48888   7.918   2.659  10.599  0.0656  0.5338 -0.1919
33758ION     NA48889   8.679  15.604   9.727 -0.0830  0.1194  0.2206
33759ION     NA48890   3.976   3.445   5.515  0.0286 -0.2221  0.4038
33760ION     NA48891  15.894   3.361  10.541 -0.0411  0.0597 -0.1090
33761ION     NA48892  17.366   9.477   6.081  0.1494 -0.3278  0.0207
33762ION     NA48893   4.180   5.660  12.436  0.1013  0.0292 -0.0185
33763ION     NA48894  13.699   7.659  10.486 -0.2959  0.2269 -0.2743
33764ION     NA48895  13.913   1.700  15.979 -0.2275  0.1279 -0.3849
33765ION     NA48896   9.874   2.559   5.573 -0.1913 -0.1625  0.1157
33766ION     NA48897   4.565   2.180   1.963 -0.1321 -0.1065 -0.2493
33767ION     NA48898  16.697  16.038  12.417  0.2780 -0.3682 -0.1737
33768ION     NA48899   5.481   2.514   1.516 -0.2280 -0.2578 -0.0808
33769ION     NA48900   0.677  11.705   5.108  0.0264  0.1095  0.1322
33770ION     NA48901   2.727   3.857  13.522  0.1010  0.0150  0.0135
33771ION     NA48902  15.196  16.827   6.348 -0.1195 -0.0273 -0.2790
33772ION     NA48903  13.318  17.672   0.928  0.1707  0.1341  0.2187
33773ION     NA48904  10.620   7.626  13.171  0.0445 -0.1844 -0.0933
33774ION     NA48905  15.775  10.257  12.868  0.0220 -0.1469  0.0470
33775ION     NA48906  10.474   6.744   0.147  0.1921 -0.3631 -0.2720
33776ION     NA48907   9.390   8.315   5.983 -0.0024 -0.0516 -0.1057
33777ION     NA48908   8.845  18.090  12.916  0.0496 -0.1457  0.0658
33778ION     NA48909  14.812   7.385  10.588 -0.1382 -0.1543  0.1169
33779ION     NA48910  18.103  13.021  15.302 -0.3297  0.2394 -0.0883
33780ION     NA48911  10.187   6.354  10.442 -0.2915  0.3124  0.0180
33781ION     NA48912   5.254   9.001   5.629  0.1418 -0.0759 -0.1868
33782ION     NA48913  16.142   0.387  14.644 -0.0926  0.0545 -0.1456
33783ION     NA48914   6.582   7.120  10.035  0.1558 -0.0737  0.3279
33784ION     NA48915  16.619   2.278   6.085  0.1341 -0.1920  0.3386
33785ION     NA48916   6.486  16.060  16.071 -0.3660 -0.3198 -0.3090
33786ION     NA48917   2.187  17.447  10.451 -0.0134 -0.2178 -0.0724
33787ION     NA48918   2.088  14.957   5.844 -0.0088 -0.0074  0.1539
33788ION     NA48919  13.920   6.301   1.861  0.0976  0.0667  0.0467
33789ION     NA48920   4.996  15.328  11.373 -0.2757  0.0183  0.0554
33790ION     NA48921   1.719   3.470   1.758  0.2412 -0.0755 -0.0642
33791ION     NA48922   0.784   1.691   1.633 -0.1641 -0.0258  0.1577
33792ION     NA48923  13.750  15.029  16.180  0.0918  0.0364 -0.0414
33793ION     NA48924  11.431  15.123   0.988  0.1412 -0.1991  0.1885
33794ION     NA48925  16.393  18.104   3.646 -0.1253 -0.0050  0.1769
33795ION     NA48926  10.355  15.507  10.360  0.3788 -0.1411  0.0480
33796ION     NA48927   9.337  15.982  12.665 -0.2032 -0.0636 -0.1714
33797ION     NA48928  10.306  11.709   3.196 -0.0531  0.0891 -0.0156
33798ION     NA48929   1.241  16.615   6.220  0.0782 -0.1160  0.1066
33799ION     NA48930   6.534  16.556   2.255  0.0067  0.1588  0.0661
33800ION     NA48931   2.207  17.319  13.171 -0.0561  0.0990  0.2045
33801ION     NA48932   7.369   3.675  10.280 -0.0891  0.1853  0.0692
33802ION     NA48933   8.945  17.961  10.310  0.3003  0.0979 -0.0158
33803ION     CL48934  10.556   9.668   2.893 -0.2685 -0.1048  0.0009
33804ION     CL48935   5.461   6.957   2.517  0.2502  0.0985 -0.1114
33805ION     CL48936   6.709  13.483   2.066 -0.1362  0.2999 -0.0030
33806ION     CL48937   9.520   6.162  12.812  0.5099 -0.0544 -0.1343
33807ION     CL48938  12.464   7.091  12.829 -0.0048  0.1280  0.0210
33808ION     CL48939  10.865   2.225  13.240  0.1841  0.0423  0.1570
33809ION     CL48940   4.703  17.855   2.734 -0.1021 -0.1746 -0.0781
33810ION     CL48941   6.047  17.406  13.537  0.0986 -0.0383  0.1657
33811ION     CL48942   1.973   9.446   4.697  0.1479 -0.1364  0.0639
33812ION     CL48943   9.406   8.866  11.616  0.2155  0.0491  0.0205
33813ION     CL48944  10.832   0.408  15.406 -0.1142 -0.1995 -0.2094
33814ION     CL48945  13.513   4.465   2.942 -0.3344 -0.0242  0.2512
33815ION     CL48946  14.886  11.195  14.152  0.0133 -0.1689 -0.1768
33816ION     CL48947   2.317  13.412   5.174 -0.1737  0.2179  0.2021
  18.18402  18.18402  16.23694
