INSANE! Membrane UpperLeaflet>loPI:POPI:DPPI:PYPI:ERGO=20.0:5.0:3.0:2.0:10.0 LowerLeaflet>PSPI:POPI:POPS:YOPS:POPE:YOPE:POPC:YOPC:ERGO=6.0:14.0:21.0:9.0:9.0:21.0:12.0:48.0:60.0
48947
    1loPI    C1    1  12.387   9.040  10.773 -0.0062  0.0279  0.3759
    1loPI    C2    2  12.633   8.728  10.816  0.2286  0.2001  0.3049
    1loPI    C3    3  12.610   9.005  11.104  0.2002  0.2416  0.2627
    1loPI   PO4    4  12.423   9.143  10.426 -0.0286 -0.0329  0.1085
    1loPI   GL1    5  12.488   8.928  10.005 -0.1260 -0.0097  0.2140
    1loPI   GL2    6  12.283   9.186   9.906  0.5659 -0.1620 -0.0157
    1loPI   C1A    7  12.813   8.747   9.679  0.0215  0.0958  0.1140
    1loPI   C2A    8  12.808   8.646   9.279 -0.1788  0.0078  0.4389
    1loPI   C3A    9  12.915   8.885   8.840 -0.0630  0.4197  0.0098
    1loPI   C4A   10  12.867   9.186   8.527 -0.2379 -0.2037  0.2165
    1loPI   C5A   11  12.947   9.326   8.162 -0.2229 -0.0137 -0.2849
    1loPI   C6A   12  13.157   9.221   7.778 -0.1192  0.0023 -0.2085
    1loPI   C1B   13  12.323   9.461   9.591 -0.0158  0.0577 -0.0158
    1loPI   C2B   14  12.402   9.433   9.150  0.2199 -0.2142  0.0106
    1loPI   C3B   15  12.350   9.451   8.771  0.1416 -0.0880  0.1952
    1loPI   C4B   16  12.257   9.435   8.371  0.3651 -0.4571 -0.2119
    2loPI    C1   17  15.004  12.311  10.773  0.0359 -0.0322 -0.0428
    2loPI    C2   18  14.658  12.365  10.967  0.0645 -0.2975  0.0873
    2loPI    C3   19  14.993  12.540  11.100 -0.0909  0.3086 -0.2807
    2loPI   PO4   20  14.920  12.297  10.573 -0.2420  0.1860  0.0333
    2loPI   GL1   21  14.841  12.067  10.217  0.0824  0.1484 -0.0275
    2loPI   GL2   22  15.062  12.102  10.100 -0.2520  0.0165  0.3675
    2loPI   C1A   23  14.693  12.183   9.762  0.0212  0.3152  0.0775
    2loPI   C2A   24  14.563  11.965   9.424 -0.0274  0.1195 -0.0279
    2loPI   C3A   25  14.565  12.034   8.963 -0.0281  0.3535  0.0822
    2loPI   C4A   26  14.554  12.063   8.592 -0.1259  0.2346 -0.0616
    2loPI   C5A   27  14.859  11.961   8.210 -0.1941 -0.0420  0.2053
    2loPI   C6A   28  15.233  11.771   8.163 -0.4187 -0.4217  0.3064
    2loPI   C1B   29  15.223  11.968   9.722 -0.3136 -0.0469  0.0556
    2loPI   C2B   30  15.413  11.928   9.324 -0.1040 -0.1141 -0.1921
    2loPI   C3B   31  15.404  11.888   8.981 -0.2880  0.3338  0.1560
    2loPI   C4B   32  15.098  11.967   8.655  0.1501 -0.1273  0.0639
    3loPI    C1   33   8.568   9.798  10.030  0.1125  0.2954 -0.0245
    3loPI    C2   34   8.406   9.849  10.392 -0.0613 -0.0246 -0.0532
    3loPI    C3   35   8.785   9.726  10.359 -0.0630 -0.0497  0.0203
    3loPI   PO4   36   8.264   9.779   9.921 -0.1068  0.0843  0.4866
    3loPI   GL1   37   8.045   9.723   9.548 -0.1586 -0.0627  0.0090
    3loPI   GL2   38   8.365   9.611   9.373  0.4708 -0.3884  0.0256
    3loPI   C1A   39   7.841   9.615   9.255  0.0357  0.2468  0.1843
    3loPI   C2A   40   7.681   9.710   8.900 -0.1124 -0.1342  0.0880
    3loPI   C3A   41   7.574   9.526   8.509 -0.0498  0.0280  0.0820
    3loPI   C4A   42   7.361   9.563   8.210  0.0499 -0.1744  0.1922
    3loPI   C5A   43   7.162   9.732   7.753  0.4073 -0.0464 -0.0454
    3loPI   C6A   44   7.076   9.513   7.372 -0.1623 -0.1233  0.1548
    3loPI   C1B   45   8.351   9.475   8.843 -0.1071  0.0676 -0.2410
    3loPI   C2B   46   8.096   9.426   8.483  0.2320 -0.5528 -0.2211
    3loPI   C3B   47   8.035   9.667   8.123 -0.2874 -0.1394 -0.0725
    3loPI   C4B   48   8.266   9.988   8.017  0.1783 -0.3374 -0.0754
    4loPI    C1   49  15.911   8.995  10.612  0.0836 -0.0489  0.0637
    4loPI    C2   50  15.848   9.024  11.006 -0.1956 -0.0444  0.0211
    4loPI    C3   51  15.537   9.004  10.755 -0.0243  0.2735 -0.2244
    4loPI   PO4   52  16.217   9.089  10.507 -0.0112 -0.0625 -0.0505
    4loPI   GL1   53  16.305   9.287  10.138  0.1750 -0.0346 -0.0716
    4loPI   GL2   54  16.579   9.151   9.939  0.5113 -0.0180  0.0916
    4loPI   C1A   55  16.055   9.327   9.795  0.1069  0.0089  0.1171
    4loPI   C2A   56  16.090   9.023   9.457 -0.0595 -0.2329 -0.2221
    4loPI   C3A   57  15.931   8.962   9.059  0.2227 -0.0099  0.1425
    4loPI   C4A   58  15.815   8.761   8.699 -0.2947 -0.1231 -0.1280
    4loPI   C5A   59  15.325   8.642   8.655  0.2233 -0.0507 -0.2327
    4loPI   C6A   60  15.070   8.627   8.270 -0.1196 -0.1274  0.0582
    4loPI   C1B   61  16.497   9.378   9.479  0.1406 -0.0557  0.0579
    4loPI   C2B   62  16.442   9.563   9.090  0.0281  0.2332 -0.0778
    4loPI   C3B   63  16.525   9.499   8.659 -0.0928  0.0252  0.3437
    4loPI   C4B   64  16.663   9.205   8.430  0.0009  0.3023 -0.2418
    5loPI    C1   65  12.738   6.313  10.461  0.3289  0.2049 -0.0360
    5loPI    C2   66  12.555   6.047  10.698 -0.0694  0.2627 -0.2693
    5loPI    C3   67  12.495   6.439  10.752  0.1853  0.2929 -0.1920
    5loPI   PO4   68  12.951   6.144  10.367  0.0949  0.2418  0.1537
    5loPI   GL1   69  13.159   6.082  10.046 -0.2396 -0.0230  0.0422
    5loPI   GL2   70  13.152   6.400   9.902  0.0861 -0.2691 -0.2414
    5loPI   C1A   71  13.217   5.915   9.686  0.0937 -0.1948 -0.2828
    5loPI   C2A   72  13.488   5.764   9.302 -0.3588 -0.2167  0.0138
    5loPI   C3A   73  13.624   5.570   9.053  0.2597  0.0302  0.1788
    5loPI   C4A   74  13.476   5.294   8.843  0.0462  0.2470 -0.0607
    5loPI   C5A   75  13.267   5.157   8.521 -0.1720 -0.4497  0.1254
    5loPI   C6A   76  13.527   5.296   8.057 -0.1777  0.0156  0.0170
    5loPI   C1B   77  12.986   6.218   9.411 -0.1609  0.0298  0.0133
    5loPI   C2B   78  13.013   5.797   9.265 -0.3650 -0.0675  0.0101
    5loPI   C3B   79  12.936   5.621   8.789 -0.0568  0.0099 -0.4078
    5loPI   C4B   80  12.710   5.630   8.435 -0.1697 -0.0710  0.1668
    6loPI    C1   81   7.352  18.434   9.710  0.0678  0.0180 -0.0308
    6loPI    C2   82   7.629  18.160   9.800  0.0509  0.0672  0.1755
    6loPI    C3   83   7.253  18.112   9.925  0.0214  0.1252  0.1094
    6loPI   PO4   84   7.491  18.684   9.761  0.1866  0.5387 -0.3215
    6loPI   GL1   85   7.476  18.913   9.423 -0.1260 -0.0296  0.3318
    6loPI   GL2   86   7.679  19.045   9.277  0.0284  0.0485  0.0888
    6loPI   C1A   87   7.330  18.807   9.003 -0.0710  0.2179 -0.1444
    6loPI   C2A   88   7.191  18.802   8.566  0.1282 -0.0372  0.1183
    6loPI   C3A   89   6.941  18.961   8.231 -0.0646 -0.1362 -0.0541
    6loPI   C4A   90   6.589  19.135   7.959  0.0563 -0.2764 -0.1914
    6loPI   C5A   91   6.282  19.376   7.667  0.0794  0.2459 -0.0793
    6loPI   C6A   92   6.194  19.812   7.674  0.3057  0.0156 -0.0827
    6loPI   C1B   93   7.802  19.112   8.874 -0.2508  0.2081  0.1270
    6loPI   C2B   94   7.959  19.299   8.453 -0.0595 -0.2919 -0.1418
    6loPI   C3B   95   8.159  19.239   8.050 -0.1105 -0.3512  0.0546
    6loPI   C4B   96   8.504  19.256   7.694 -0.2240 -0.3331 -0.0323
    7loPI    C1   97   8.775  14.466   9.882 -0.2868  0.0244  0.0563
    7loPI    C2   98   8.774  14.158  10.137  0.1886  0.0410  0.0867
    7loPI    C3   99   8.825  14.531  10.273  0.1823  0.0762 -0.0066
    7loPI   PO4  100   8.929  14.434   9.685  0.1041 -0.1264  0.0196
    7loPI   GL1  101   8.944  14.259   9.248  0.0011 -0.0194  0.0651
    7loPI   GL2  102   9.148  14.560   9.220 -0.1436 -0.0108 -0.0018
    7loPI   C1A  103   8.671  14.035   8.945  0.0005 -0.0950 -0.0857
    7loPI   C2A  104   8.753  13.879   8.544 -0.0431 -0.0091  0.0423
    7loPI   C3A  105   8.888  13.766   8.122  0.0764 -0.2034 -0.0925
    7loPI   C4A  106   8.626  13.989   7.857  0.0858  0.0968 -0.3159
    7loPI   C5A  107   8.622  14.031   7.407  0.0558 -0.2600  0.0762
    7loPI   C6A  108   8.886  13.867   7.088 -0.1392  0.0139  0.0287
    7loPI   C1B  109   9.179  14.975   9.010 -0.2939  0.3653  0.1027
    7loPI   C2B  110   9.096  15.026   8.548  0.1052  0.1735  0.1109
    7loPI   C3B  111   9.015  14.855   8.180 -0.0460 -0.1654 -0.0284
    7loPI   C4B  112   8.751  14.840   7.760  0.2337 -0.0258 -0.0022
    8loPI    C1  113  16.253  10.629  10.495  0.0479  0.2584  0.0634
    8loPI    C2  114  16.155  10.731  10.869  0.2740 -0.0445  0.2094
    8loPI    C3  115  16.076  10.362  10.735 -0.0426  0.1411 -0.1312
    8loPI   PO4  116  16.176  10.862  10.359  0.0418 -0.2827  0.0106
    8loPI   GL1  117  16.446  11.193  10.093  0.1127 -0.2429  0.0367
    8loPI   GL2  118  16.684  11.229  10.235  0.3051 -0.1351 -0.1240
    8loPI   C1A  119  16.589  10.884   9.737  0.1518 -0.1332 -0.0717
    8loPI   C2A  120  16.422  10.928   9.385  0.0588  0.0174  0.0352
    8loPI   C3A  121  16.515  11.291   8.968 -0.1498 -0.0839  0.0616
    8loPI   C4A  122  16.611  11.321   8.511  0.0091  0.0018  0.1532
    8loPI   C5A  123  17.049  11.222   8.423  0.0011  0.2081  0.1084
    8loPI   C6A  124  17.330  11.197   8.065 -0.0562  0.0194 -0.0240
    8loPI   C1B  125  16.751  11.560   9.894  0.4517 -0.1422  0.0130
    8loPI   C2B  126  17.005  11.585   9.617  0.0332  0.1014  0.1698
    8loPI   C3B  127  16.948  11.607   9.197 -0.0304  0.0270 -0.2334
    8loPI   C4B  128  16.919  11.555   8.832 -0.0349 -0.3556  0.0235
    9loPI    C1  129  16.547  16.522   9.901 -0.1914  0.1327 -0.0597
    9loPI    C2  130  16.402  16.852  10.073  0.0067  0.1871  0.0044
    9loPI    C3  131  16.507  16.539  10.298  0.1144  0.1983 -0.0296
    9loPI   PO4  132  16.741  16.612   9.725 -0.1124 -0.0911  0.0957
    9loPI   GL1  133  16.758  17.064   9.621  0.0876  0.2770 -0.1914
    9loPI   GL2  134  16.778  17.411   9.727 -0.0625 -0.0892  0.0387
    9loPI   C1A  135  16.616  16.944   9.121 -0.0634 -0.0619  0.3253
    9loPI   C2A  136  16.747  16.996   8.691  0.3474 -0.1854  0.2198
    9loPI   C3A  137  16.890  17.255   8.379  0.1997  0.2731  0.0309
    9loPI   C4A  138  16.918  17.542   8.119  0.0943  0.1008 -0.0663
    9loPI   C5A  139  17.124  17.884   8.071  0.1779 -0.0310  0.0916
    9loPI   C6A  140  17.168  18.336   8.011 -0.0272  0.3366 -0.0901
    9loPI   C1B  141  16.805  17.366   9.237 -0.3086 -0.2630 -0.0999
    9loPI   C2B  142  17.096  17.245   8.917 -0.0848 -0.0004 -0.1531
    9loPI   C3B  143  17.395  17.477   8.547  0.1504  0.0217 -0.3254
    9loPI   C4B  144  17.563  17.524   8.162  0.1473  0.2615 -0.1068
   10loPI    C1  145  14.080  11.054  10.346 -0.2035  0.0468  0.2682
   10loPI    C2  146  13.928  11.408  10.238 -0.1093  0.0342  0.0893
   10loPI    C3  147  13.687  11.120  10.376 -0.2031  0.1243  0.1143
   10loPI   PO4  148  14.235  10.927  10.064  0.1120 -0.3717 -0.1152
   10loPI   GL1  149  14.255  10.868   9.676 -0.2231 -0.1106  0.1749
   10loPI   GL2  150  13.959  10.539   9.728  0.3625  0.1676 -0.0039
   10loPI   C1A  151  14.370  10.946   9.309  0.1681  0.0070  0.0185
   10loPI   C2A  152  14.413  11.046   8.775  0.2351 -0.1916 -0.0048
   10loPI   C3A  153  14.761  10.951   8.572 -0.1858 -0.1041 -0.1572
   10loPI   C4A  154  15.082  10.694   8.357 -0.0370  0.1750  0.4443
   10loPI   C5A  155  15.397  10.612   8.111 -0.0328  0.2418  0.1858
   10loPI   C6A  156  15.763  10.859   8.050 -0.0534 -0.1663  0.1111
   10loPI   C1B  157  14.015  10.585   9.256  0.2073 -0.2273 -0.2367
   10loPI   C2B  158  14.074  10.645   8.884  0.3833  0.2811  0.1556
   10loPI   C3B  159  14.142  10.741   8.514  0.0801  0.2124  0.0430
   10loPI   C4B  160  14.271  10.829   8.111 -0.0947  0.3968 -0.0756
   11loPI    C1  161  16.341   3.448  10.478 -0.2602  0.0231  0.0478
   11loPI    C2  162  16.302   3.809  10.311 -0.0447  0.0152 -0.0224
   11loPI    C3  163  16.438   3.776  10.685 -0.3173  0.0203  0.0791
   11loPI   PO4  164  16.076   3.143  10.440 -0.1173 -0.2332 -0.1570
   11loPI   GL1  165  16.087   3.098  10.033  0.0343  0.1029 -0.0561
   11loPI   GL2  166  16.286   2.870   9.832 -0.1362  0.0044 -0.0126
   11loPI   C1A  167  15.979   3.149   9.472  0.1637 -0.1279 -0.1705
   11loPI   C2A  168  16.143   3.537   9.173 -0.0418  0.1359  0.0406
   11loPI   C3A  169  15.983   3.564   8.824 -0.2094  0.0532  0.0036
   11loPI   C4A  170  15.910   3.492   8.435  0.0769 -0.5255 -0.1476
   11loPI   C5A  171  15.742   3.463   8.065  0.0771  0.2550  0.0415
   11loPI   C6A  172  15.602   3.228   7.649  0.0525  0.2847  0.0768
   11loPI   C1B  173  16.457   3.006   9.348  0.1779  0.1832 -0.0487
   11loPI   C2B  174  16.504   3.255   9.072  0.0291  0.1089  0.2462
   11loPI   C3B  175  16.506   3.603   8.730 -0.1579 -0.0478 -0.0254
   11loPI   C4B  176  16.906   3.822   8.597  0.0793 -0.0536  0.2423
   12loPI    C1  177   0.836   8.719  10.452  0.0170  0.1033  0.1771
   12loPI    C2  178   0.857   8.451  10.748 -0.0110  0.0248  0.1086
   12loPI    C3  179   0.738   8.825  10.825  0.0915  0.0360  0.2160
   12loPI   PO4  180   0.706   8.657  10.271 -0.2132 -0.4060  0.3135
   12loPI   GL1  181   1.003   8.388  10.011  0.0519 -0.0167  0.1705
   12loPI   GL2  182   0.709   8.359   9.867 -0.1240 -0.1021 -0.1231
   12loPI   C1A  183   1.164   8.623   9.731  0.0369  0.2055  0.0550
   12loPI   C2A  184   1.324   8.916   9.461 -0.2711  0.2054 -0.3882
   12loPI   C3A  185   1.278   8.867   9.046  0.3370  0.1134 -0.0224
   12loPI   C4A  186   1.092   8.975   8.725  0.5218  0.0873 -0.1047
   12loPI   C5A  187   1.190   8.990   8.309 -0.2301 -0.1296 -0.0561
   12loPI   C6A  188   1.397   8.923   7.916  0.1662 -0.0912  0.0482
   12loPI   C1B  189   0.785   8.369   9.467  0.0551  0.0335 -0.0147
   12loPI   C2B  190   0.728   8.362   9.029  0.1270 -0.0052 -0.2329
   12loPI   C3B  191   0.378   8.497   8.884  0.0110 -0.1121  0.1269
   12loPI   C4B  192  -0.051   8.454   9.102 -0.0929  0.4671  0.1192
   13loPI    C1  193   4.220   6.885  10.324 -0.0418  0.2374  0.2128
   13loPI    C2  194   3.930   6.753  10.566  0.0237  0.1635  0.2517
   13loPI    C3  195   4.307   6.768  10.697  0.0570  0.1392  0.1594
   13loPI   PO4  196   4.078   7.089  10.215  0.1001 -0.0636 -0.2204
   13loPI   GL1  197   3.766   7.216   9.823 -0.4037 -0.0549 -0.0119
   13loPI   GL2  198   3.908   6.893   9.741 -0.2749 -0.2779 -0.0961
   13loPI   C1A  199   3.264   7.238   9.661  0.1455 -0.0120  0.1332
   13loPI   C2A  200   3.004   7.434   9.239  0.3669 -0.2235  0.0895
   13loPI   C3A  201   2.976   7.420   8.759  0.0627  0.0362 -0.5119
   13loPI   C4A  202   2.746   7.258   8.383 -0.1959 -0.3329  0.2482
   13loPI   C5A  203   2.810   6.948   8.018  0.3777  0.0722  0.1362
   13loPI   C6A  204   3.017   6.521   7.855 -0.4741 -0.2607  0.0469
   13loPI   C1B  205   3.993   7.138   9.346 -0.1383  0.1777 -0.1415
   13loPI   C2B  206   3.900   7.338   8.951  0.1962  0.1162  0.0468
   13loPI   C3B  207   4.011   7.306   8.510  0.0906 -0.4187 -0.1540
   13loPI   C4B  208   4.374   7.270   8.353 -0.1858  0.3223  0.2704
   14loPI    C1  209  10.423   5.812  10.315  0.2143 -0.0117  0.0230
   14loPI    C2  210  10.357   6.201  10.380 -0.1203 -0.0607 -0.0050
   14loPI    C3  211  10.569   5.987  10.644 -0.0501  0.1099  0.0786
   14loPI   PO4  212  10.398   5.796  10.051 -0.1185 -0.0468  0.2492
   14loPI   GL1  213  10.487   5.576   9.723  0.0073 -0.2658  0.0101
   14loPI   GL2  214  10.670   5.314   9.809  0.0423  0.0334 -0.1798
   14loPI   C1A  215  10.352   5.482   9.434 -0.0244  0.2021 -0.0726
   14loPI   C2A  216  10.111   5.711   9.201 -0.0824  0.1147  0.0220
   14loPI   C3A  217  10.399   5.818   8.882  0.0081 -0.2268 -0.4172
   14loPI   C4A  218  10.653   5.698   8.616 -0.1621 -0.0229  0.2856
   14loPI   C5A  219  10.820   5.766   8.230  0.0904  0.0042  0.2270
   14loPI   C6A  220  11.035   5.631   7.860  0.0410 -0.1091  0.1184
   14loPI   C1B  221  10.665   5.088   9.415 -0.4659  0.1713 -0.0913
   14loPI   C2B  222  10.556   5.162   9.078  0.1523 -0.2545 -0.2292
   14loPI   C3B  223  10.302   5.106   8.772  0.1091 -0.1333  0.1215
   14loPI   C4B  224  10.297   5.320   8.461 -0.1443  0.0174  0.1013
   15loPI    C1  225   5.998   1.408   9.799 -0.0705  0.3685  0.2281
   15loPI    C2  226   6.090   1.080  10.008 -0.0385  0.1918 -0.0579
   15loPI    C3  227   6.181   1.441  10.153  0.1372  0.0655  0.1529
   15loPI   PO4  228   5.706   1.337   9.728 -0.1231  0.1591  0.2384
   15loPI   GL1  229   5.342   1.217   9.691  0.1766 -0.0236 -0.0238
   15loPI   GL2  230   5.228   0.868   9.582 -0.1336  0.0589  0.1123
   15loPI   C1A  231   5.190   1.183   9.204  0.0212  0.2261  0.0820
   15loPI   C2A  232   4.991   1.280   8.779 -0.1200 -0.3356  0.1320
   15loPI   C3A  233   4.865   1.275   8.316 -0.2437 -0.2822  0.1086
   15loPI   C4A  234   4.829   1.047   7.999 -0.1106 -0.0416 -0.1209
   15loPI   C5A  235   5.017   1.082   7.492  0.4631 -0.0618  0.1427
   15loPI   C6A  236   5.414   1.154   7.378  0.2873 -0.0587  0.1564
   15loPI   C1B  237   5.150   0.490   9.215  0.0156  0.1709 -0.2467
   15loPI   C2B  238   5.229   0.387   8.756 -0.0932 -0.4378  0.1006
   15loPI   C3B  239   5.469   0.459   8.357 -0.2350 -0.3474  0.1075
   15loPI   C4B  240   5.770   0.699   8.244  0.0287 -0.0660  0.1484
   16loPI    C1  241  15.495   3.740  10.956 -0.1848 -0.0232 -0.0328
   16loPI    C2  242  15.185   3.991  10.932  0.0355  0.2480 -0.0970
   16loPI    C3  243  15.554   4.134  10.985  0.1939 -0.0498 -0.3634
   16loPI   PO4  244  15.496   3.579  10.796 -0.0749  0.0047 -0.1986
   16loPI   GL1  245  15.593   3.457  10.419  0.0135  0.0991 -0.0989
   16loPI   GL2  246  15.875   3.549  10.242 -0.0100  0.0220  0.0766
   16loPI   C1A  247  15.569   3.363   9.965 -0.0644 -0.0588  0.1219
   16loPI   C2A  248  15.552   3.392   9.509  0.2728 -0.0326 -0.1162
   16loPI   C3A  249  15.509   3.492   9.072 -0.0184  0.1556 -0.1268
   16loPI   C4A  250  15.457   3.640   8.756 -0.3508  0.2000 -0.2031
   16loPI   C5A  251  15.246   3.911   8.406 -0.1971  0.0473  0.1494
   16loPI   C6A  252  15.282   4.031   7.925 -0.0941 -0.0549  0.5502
   16loPI   C1B  253  15.992   3.610   9.865 -0.3965 -0.0565 -0.0508
   16loPI   C2B  254  16.385   3.418   9.672 -0.1870  0.0677  0.0302
   16loPI   C3B  255  16.756   3.613   9.461 -0.2787 -0.0603 -0.0630
   16loPI   C4B  256  16.873   3.559   9.146 -0.4115  0.0257  0.1441
   17loPI    C1  257  14.222  17.027  10.202 -0.0725  0.0994  0.0384
   17loPI    C2  258  14.488  16.775  10.362 -0.0704  0.0654 -0.0184
   17loPI    C3  259  14.553  17.169  10.377 -0.1651  0.0734  0.2370
   17loPI   PO4  260  14.140  16.937   9.950 -0.2112 -0.1083 -0.0589
   17loPI   GL1  261  14.283  16.865   9.520 -0.0767  0.1139 -0.0626
   17loPI   GL2  262  14.403  16.526   9.464  0.2264 -0.0063  0.0538
   17loPI   C1A  263  14.236  16.932   9.151 -0.2247 -0.0354 -0.1522
   17loPI   C2A  264  14.419  16.869   8.705  0.1808 -0.2105 -0.0334
   17loPI   C3A  265  14.307  16.770   8.316 -0.2325 -0.1335 -0.1049
   17loPI   C4A  266  14.066  16.894   7.889  0.1014 -0.2746 -0.1903
   17loPI   C5A  267  13.698  16.814   7.578  0.1561 -0.0861 -0.1408
   17loPI   C6A  268  13.555  16.657   7.193 -0.0625 -0.1155  0.0533
   17loPI   C1B  269  14.352  16.415   9.026  0.0706 -0.2176  0.0528
   17loPI   C2B  270  14.259  16.269   8.634 -0.1691 -0.2360 -0.2104
   17loPI   C3B  271  14.284  16.191   8.212  0.0842  0.0271 -0.0817
   17loPI   C4B  272  14.443  16.425   7.900 -0.2102  0.1897  0.0620
   18loPI    C1  273   7.560   5.773  10.084 -0.1657  0.1647 -0.0977
   18loPI    C2  274   7.500   5.382  10.021 -0.0128  0.1205  0.0230
   18loPI    C3  275   7.206   5.609  10.169  0.0453 -0.0489  0.4082
   18loPI   PO4  276   7.708   5.794   9.861 -0.1608 -0.3122  0.0178
   18loPI   GL1  277   7.730   5.493   9.524 -0.1405 -0.0679  0.2462
   18loPI   GL2  278   7.825   5.151   9.637  0.2999  0.0163 -0.1466
   18loPI   C1A  279   7.640   5.594   9.048 -0.0206 -0.3694  0.0294
   18loPI   C2A  280   7.627   5.587   8.556  0.0575 -0.2165 -0.0267
   18loPI   C3A  281   7.540   5.756   8.234  0.1538 -0.0493 -0.1357
   18loPI   C4A  282   7.485   5.663   7.845 -0.2754 -0.2496 -0.1808
   18loPI   C5A  283   7.372   5.315   7.628 -0.1072  0.0372 -0.0006
   18loPI   C6A  284   7.548   5.058   7.331 -0.1708  0.0018 -0.4463
   18loPI   C1B  285   7.862   5.195   9.171 -0.1750 -0.1844  0.1062
   18loPI   C2B  286   7.831   5.171   8.763 -0.2556  0.4147  0.0495
   18loPI   C3B  287   7.804   5.154   8.317  0.1654 -0.6388 -0.0588
   18loPI   C4B  288   8.141   5.275   8.257  0.0818  0.2296 -0.0110
   19loPI    C1  289  12.957  18.417  10.191 -0.1979  0.1003  0.6244
   19loPI    C2  290  13.110  18.785  10.152  0.3295 -0.1673 -0.0457
   19loPI    C3  291  13.275  18.526  10.408  0.1143 -0.0252  0.2426
   19loPI   PO4  292  12.970  18.344   9.913 -0.0890 -0.0278 -0.1652
   19loPI   GL1  293  13.163  18.315   9.448  0.1331  0.4271 -0.2733
   19loPI   GL2  294  13.001  18.334   9.082 -0.1252  0.2684 -0.1171
   19loPI   C1A  295  13.322  18.721   9.180 -0.0989  0.0406  0.2034
   19loPI   C2A  296  13.348  18.688   8.771  0.1698  0.1816  0.0751
   19loPI   C3A  297  13.641  18.871   8.386  0.2177 -0.2520  0.0954
   19loPI   C4A  298  13.662  19.142   8.022  0.3626 -0.0168 -0.0023
   19loPI   C5A  299  13.796  19.114   7.612  0.2404  0.1132 -0.1231
   19loPI   C6A  300  13.912  18.906   7.192 -0.3440  0.2194 -0.2422
   19loPI   C1B  301  12.985  18.326   8.661 -0.0709 -0.0998 -0.0906
   19loPI   C2B  302  13.103  18.283   8.127 -0.1464 -0.1284  0.2140
   19loPI   C3B  303  12.984  18.315   7.742 -0.1030  0.0578 -0.1559
   19loPI   C4B  304  12.949  18.493   7.352 -0.3235 -0.0778 -0.1282
   20loPI    C1  305   3.084   5.364  10.302  0.0267 -0.0457  0.1975
   20loPI    C2  306   2.984   5.253  10.673 -0.0007  0.1272  0.2428
   20loPI    C3  307   2.911   5.626  10.549 -0.1660  0.0168 -0.0007
   20loPI   PO4  308   3.017   5.196  10.149  0.2044 -0.2772  0.3104
   20loPI   GL1  309   2.656   5.394   9.916  0.2192 -0.1368  0.2751
   20loPI   GL2  310   2.526   5.559  10.150 -0.2424 -0.0261 -0.1178
   20loPI   C1A  311   2.395   5.269   9.541 -0.1473 -0.0175  0.1017
   20loPI   C2A  312   2.297   5.234   9.065 -0.0493 -0.1776 -0.2471
   20loPI   C3A  313   2.278   5.296   8.604  0.2266 -0.1948  0.3373
   20loPI   C4A  314   2.408   5.042   8.171  0.2253 -0.0209  0.4151
   20loPI   C5A  315   2.281   5.147   7.750 -0.0145  0.0930 -0.3402
   20loPI   C6A  316   2.146   5.161   7.407 -0.1494  0.0606 -0.3834
   20loPI   C1B  317   2.231   5.053   9.999  0.1310 -0.2977 -0.0523
   20loPI   C2B  318   2.378   4.807   9.638  0.1131  0.3761 -0.2968
   20loPI   C3B  319   2.533   4.537   9.324 -0.5189  0.2072 -0.0502
   20loPI   C4B  320   2.645   4.314   8.944  0.1599 -0.1701  0.0177
   21loPI    C1  321  13.810   8.430  10.466  0.1142  0.3053 -0.1089
   21loPI    C2  322  13.518   8.569  10.702  0.1030 -0.1285  0.1429
   21loPI    C3  323  13.890   8.713  10.738  0.0074  0.1347  0.1025
   21loPI   PO4  324  13.694   8.371  10.230  0.2868  0.2117 -0.1078
   21loPI   GL1  325  13.337   8.233   9.922  0.0998 -0.2995 -0.2868
   21loPI   GL2  326  13.308   7.986  10.139 -0.4240  0.0146  0.1585
   21loPI   C1A  327  13.276   8.544   9.521 -0.0211 -0.2206  0.4392
   21loPI   C2A  328  13.311   8.724   9.147 -0.1783 -0.0785  0.2021
   21loPI   C3A  329  13.471   8.748   8.772 -0.1007  0.2523 -0.1129
   21loPI   C4A  330  13.552   8.732   8.350  0.3588 -0.1699 -0.2807
   21loPI   C5A  331  13.535   8.463   7.959 -0.1464  0.2234  0.3643
   21loPI   C6A  332  13.615   8.276   7.647 -0.4611  0.3116  0.0614
   21loPI   C1B  333  13.157   7.818   9.668 -0.0400  0.0106  0.1503
   21loPI   C2B  334  13.263   7.861   9.336 -0.1296 -0.3331 -0.3136
   21loPI   C3B  335  13.323   7.803   8.946 -0.0549 -0.2007 -0.0812
   21loPI   C4B  336  13.432   7.752   8.486  0.0679  0.2059 -0.2270
   22loPI    C1  337  18.064  17.662  10.555  0.1427 -0.0894  0.0292
   22loPI    C2  338  18.383  17.882  10.458 -0.0079  0.1350  0.0367
   22loPI    C3  339  18.333  17.758  10.835  0.1063  0.0385  0.0207
   22loPI   PO4  340  17.999  17.647  10.276  0.3451 -0.2950  0.0200
   22loPI   GL1  341  17.995  17.696   9.794  0.3868 -0.2859  0.0124
   22loPI   GL2  342  18.084  17.309   9.814 -0.0425  0.1828  0.1622
   22loPI   C1A  343  18.181  17.750   9.407 -0.0079  0.2108 -0.1370
   22loPI   C2A  344  18.389  17.518   9.059  0.1739  0.0296  0.0446
   22loPI   C3A  345  18.444  17.435   8.614  0.0092 -0.1068  0.2208
   22loPI   C4A  346  18.348  17.472   8.218  0.0160 -0.0326 -0.0220
   22loPI   C5A  347  18.230  17.280   7.922  0.2451 -0.1882 -0.2594
   22loPI   C6A  348  18.188  16.988   7.546  0.0936 -0.1908  0.1142
   22loPI   C1B  349  17.892  17.348   9.349  0.1624 -0.2949 -0.3328
   22loPI   C2B  350  17.603  17.441   9.051 -0.1119 -0.3339 -0.1515
   22loPI   C3B  351  17.861  17.437   8.594  0.0688 -0.0404 -0.2731
   22loPI   C4B  352  17.951  17.825   8.262  0.1217 -0.1467 -0.0381
   23loPI    C1  353  15.826  17.522  10.601  0.1516 -0.0211  0.0350
   23loPI    C2  354  15.902  17.139  10.514  0.0982 -0.0215 -0.0109
   23loPI    C3  355  15.887  17.258  10.896 -0.1088 -0.1113  0.0104
   23loPI   PO4  356  15.797  17.653  10.389  0.1481  0.0283  0.0317
   23loPI   GL1  357  15.944  17.685   9.899 -0.0389  0.0808 -0.0573
   23loPI   GL2  358  16.238  17.766  10.077  0.1555  0.2767 -0.1448
   23loPI   C1A  359  16.019  17.761   9.459  0.2473 -0.1167  0.1038
   23loPI   C2A  360  15.731  18.218   9.285  0.1652  0.3416 -0.0807
   23loPI   C3A  361  15.699  18.467   8.932  0.4533 -0.0245 -0.2875
   23loPI   C4A  362  15.469  18.829   8.676  0.0094 -0.2262 -0.2019
   23loPI   C5A  363  15.261  19.266   8.487 -0.0489  0.0724 -0.1967
   23loPI   C6A  364  14.994  19.122   8.182 -0.1592  0.4407 -0.2603
   23loPI   C1B  365  16.277  18.124   9.802 -0.2510 -0.1555  0.0045
   23loPI   C2B  366  16.374  18.268   9.532  0.0927 -0.2311  0.1474
   23loPI   C3B  367  16.209  18.201   9.203 -0.2380 -0.0810  0.1634
   23loPI   C4B  368  16.195  18.341   8.806  0.3127 -0.0650  0.0211
   24loPI    C1  369  11.734   8.454  10.637 -0.5034 -0.2806 -0.0521
   24loPI    C2  370  11.417   8.644  10.789 -0.1846  0.1202  0.1336
   24loPI    C3  371  11.706   8.513  11.032 -0.0987 -0.0423 -0.0530
   24loPI   PO4  372  11.758   8.640  10.408  0.2694 -0.0753 -0.0455
   24loPI   GL1  373  11.696   8.676  10.036  0.1516 -0.1108 -0.0886
   24loPI   GL2  374  11.910   8.745   9.880 -0.3729  0.2886 -0.0130
   24loPI   C1A  375  11.552   8.456   9.657  0.1137  0.0246  0.1255
   24loPI   C2A  376  11.452   8.179   9.301  0.0851  0.0033  0.2620
   24loPI   C3A  377  11.596   8.101   9.000 -0.0073 -0.2033 -0.1925
   24loPI   C4A  378  11.562   8.191   8.646  0.0178 -0.2265  0.2829
   24loPI   C5A  379  11.237   8.321   8.300 -0.1970 -0.3766 -0.0515
   24loPI   C6A  380  11.205   8.665   7.988  0.1396  0.0649  0.1849
   24loPI   C1B  381  12.121   8.889   9.570 -0.0901  0.3725 -0.0399
   24loPI   C2B  382  12.311   8.955   9.299  0.1190  0.1143 -0.0637
   24loPI   C3B  383  12.187   8.666   8.859 -0.0882  0.2279  0.2677
   24loPI   C4B  384  12.120   8.486   8.410  0.1543  0.2256  0.3725
   25loPI    C1  385   6.706   7.509  10.031  0.0462 -0.1689  0.0725
   25loPI    C2  386   7.081   7.515   9.892 -0.1073 -0.0681 -0.3542
   25loPI    C3  387   6.883   7.858   9.949 -0.0102 -0.1005  0.2391
   25loPI   PO4  388   6.536   7.323   9.947 -0.0170 -0.1264  0.3220
   25loPI   GL1  389   6.322   7.189   9.688 -0.2873  0.0919 -0.3850
   25loPI   GL2  390   5.937   7.300   9.537  0.0236 -0.1898 -0.3141
   25loPI   C1A  391   6.287   6.921   9.370 -0.4016 -0.0962  0.0328
   25loPI   C2A  392   6.249   7.042   8.894 -0.1784  0.1617  0.0329
   25loPI   C3A  393   6.380   7.159   8.537  0.2906  0.3595  0.1198
   25loPI   C4A  394   6.318   7.180   8.138 -0.2407  0.1531 -0.1593
   25loPI   C5A  395   6.166   6.907   7.841  0.2379 -0.0530 -0.2307
   25loPI   C6A  396   5.984   6.521   7.848 -0.2061 -0.3330  0.1196
   25loPI   C1B  397   5.791   7.368   9.071 -0.2311 -0.0481 -0.2631
   25loPI   C2B  398   5.680   7.351   8.628  0.0863  0.2448 -0.2541
   25loPI   C3B  399   5.816   7.373   8.253  0.1401  0.1342  0.0316
   25loPI   C4B  400   5.694   7.204   7.917  0.2358  0.1674  0.0402
   26loPI    C1  401  15.949   5.518  10.562 -0.2243 -0.3234 -0.2259
   26loPI    C2  402  15.852   5.477  10.948  0.0857 -0.0266 -0.1111
   26loPI    C3  403  15.597   5.356  10.664 -0.0940 -0.3603  0.1832
   26loPI   PO4  404  16.221   5.468  10.522  0.0932  0.0344  0.2121
   26loPI   GL1  405  16.461   5.475  10.185  0.1421 -0.1720  0.2755
   26loPI   GL2  406  16.755   5.374  10.049  0.0827 -0.0714 -0.0071
   26loPI   C1A  407  16.253   5.611   9.744 -0.1008  0.2377 -0.0480
   26loPI   C2A  408  16.280   5.458   9.367 -0.1664  0.0902 -0.0694
   26loPI   C3A  409  16.425   5.388   8.975  0.2778  0.0586  0.2816
   26loPI   C4A  410  16.152   5.592   8.637 -0.3777  0.0707 -0.2211
   26loPI   C5A  411  16.208   5.841   8.261  0.2216 -0.2764 -0.4453
   26loPI   C6A  412  16.019   5.830   7.837 -0.1171 -0.1631  0.1234
   26loPI   C1B  413  16.616   5.295   9.658 -0.0525  0.0339 -0.1257
   26loPI   C2B  414  16.781   5.159   9.288 -0.1446  0.0195 -0.1234
   26loPI   C3B  415  16.888   5.288   8.841 -0.1153  0.1579  0.2324
   26loPI   C4B  416  16.710   5.381   8.521 -0.2148 -0.1472 -0.1134
   27loPI    C1  417   5.685  15.928   9.504  0.3115 -0.1733 -0.0756
   27loPI    C2  418   5.342  15.825   9.682  0.0986  0.0934 -0.3217
   27loPI    C3  419   5.672  15.607   9.742 -0.1053 -0.1510 -0.0620
   27loPI   PO4  420   5.633  16.263   9.590 -0.1877  0.1519 -0.1022
   27loPI   GL1  421   5.505  16.677   9.419  0.2071 -0.1899 -0.0084
   27loPI   GL2  422   5.655  17.038   9.495 -0.1231  0.0439 -0.3056
   27loPI   C1A  423   5.219  16.830   9.093  0.1612  0.2304 -0.1737
   27loPI   C2A  424   5.080  16.895   8.709 -0.0306  0.1596 -0.0926
   27loPI   C3A  425   4.975  17.031   8.331 -0.3312  0.1079  0.1192
   27loPI   C4A  426   4.678  17.202   7.993 -0.1652  0.2842  0.1718
   27loPI   C5A  427   4.671  17.504   7.580  0.2248  0.0603  0.0856
   27loPI   C6A  428   4.562  17.935   7.435  0.1537 -0.0408  0.1987
   27loPI   C1B  429   5.703  16.946   9.061  0.2570 -0.1860 -0.1062
   27loPI   C2B  430   5.816  16.992   8.583  0.5235  0.1384  0.2709
   27loPI   C3B  431   5.578  16.924   8.149 -0.4185 -0.0124  0.3305
   27loPI   C4B  432   5.489  17.034   7.749 -0.0359  0.1841 -0.4153
   28loPI    C1  433   9.939   7.054  10.513 -0.3467  0.0994  0.1399
   28loPI    C2  434   9.976   7.368  10.758 -0.1168  0.2326 -0.0613
   28loPI    C3  435  10.283   7.118  10.707 -0.3289 -0.0825  0.1699
   28loPI   PO4  436   9.855   7.131  10.247  0.2818 -0.1360  0.0742
   28loPI   GL1  437  10.027   7.348   9.840  0.1804  0.2072 -0.1844
   28loPI   GL2  438  10.047   7.021   9.775 -0.4014 -0.1201 -0.3866
   28loPI   C1A  439   9.754   7.462   9.588 -0.1110 -0.0427  0.0802
   28loPI   C2A  440   9.798   7.382   9.143  0.3310 -0.2295 -0.0959
   28loPI   C3A  441   9.864   7.096   8.767 -0.0975 -0.1258 -0.1940
   28loPI   C4A  442  10.086   7.009   8.389  0.1626  0.0578 -0.0639
   28loPI   C5A  443  10.173   7.041   8.043  0.1093  0.2887  0.3342
   28loPI   C6A  444  10.120   6.991   7.656 -0.3853 -0.3415  0.1816
   28loPI   C1B  445   9.970   6.852   9.412 -0.1893 -0.1379  0.1814
   28loPI   C2B  446   9.950   6.699   9.040  0.0450  0.1616 -0.1698
   28loPI   C3B  447  10.098   6.589   8.706 -0.4091  0.0365  0.1012
   28loPI   C4B  448  10.263   6.523   8.276 -0.1894  0.1146  0.2742
   29loPI    C1  449   6.295  15.364  10.125  0.1570 -0.1942 -0.0612
   29loPI    C2  450   6.381  15.701  10.323 -0.0146 -0.1322 -0.0901
   29loPI    C3  451   6.155  15.419  10.496 -0.2931 -0.0111 -0.2515
   29loPI   PO4  452   6.265  15.503   9.886  0.1954  0.0989 -0.1441
   29loPI   GL1  453   6.213  15.800   9.467 -0.1098 -0.1083 -0.0762
   29loPI   GL2  454   6.508  16.039   9.432 -0.1449  0.1703 -0.0703
   29loPI   C1A  455   6.202  15.919   9.059 -0.1386 -0.1557 -0.1205
   29loPI   C2A  456   6.424  15.655   8.619  0.0098  0.2532  0.4881
   29loPI   C3A  457   6.334  15.698   8.156 -0.0230  0.1441 -0.1865
   29loPI   C4A  458   6.296  15.744   7.717 -0.3358  0.1729  0.0950
   29loPI   C5A  459   6.155  16.098   7.440 -0.0682  0.0022  0.1112
   29loPI   C6A  460   6.129  16.508   7.338  0.3898  0.2448  0.1158
   29loPI   C1B  461   6.505  16.338   9.079  0.0010 -0.1920  0.0700
   29loPI   C2B  462   6.419  16.144   8.718 -0.0682 -0.0325  0.2197
   29loPI   C3B  463   6.596  16.116   8.425  0.0178  0.2414  0.1264
   29loPI   C4B  464   6.679  16.024   8.019  0.2834 -0.2577 -0.0116
   30loPI    C1  465  10.577  11.003  10.119 -0.1214  0.0947 -0.0247
   30loPI    C2  466  10.433  10.702  10.338  0.0388  0.0379  0.0036
   30loPI    C3  467  10.331  10.735   9.953 -0.1239  0.0524  0.0473
   30loPI   PO4  468  10.789  11.032  10.136 -0.1634 -0.2168  0.2787
   30loPI   GL1  469  11.086  11.033   9.727  0.1818 -0.1201  0.5488
   30loPI   GL2  470  11.319  11.094   9.685 -0.0489  0.0776 -0.0481
   30loPI   C1A  471  10.979  11.090   9.284  0.1345  0.3958  0.1987
   30loPI   C2A  472  10.930  11.226   8.815  0.0631 -0.2608 -0.0119
   30loPI   C3A  473  10.771  11.510   8.322 -0.1610  0.0271  0.1020
   30loPI   C4A  474  10.519  11.971   8.137  0.1090 -0.0332  0.2561
   30loPI   C5A  475  10.440  12.212   7.743  0.0236  0.1048 -0.1891
   30loPI   C6A  476  10.381  12.557   7.551 -0.1331  0.6487  0.1594
   30loPI   C1B  477  11.458  10.943   9.383 -0.2332  0.0722  0.1428
   30loPI   C2B  478  11.707  10.749   9.089 -0.1350 -0.1965 -0.3154
   30loPI   C3B  479  11.797  10.699   8.667  0.0709  0.0538 -0.5459
   30loPI   C4B  480  11.435  10.431   8.450  0.1255 -0.1014  0.1556
   31loPI    C1  481   2.417   9.830  10.361 -0.2856  0.1234  0.1371
   31loPI    C2  482   2.665  10.144  10.369  0.0124 -0.0905 -0.2872
   31loPI    C3  483   2.627   9.911  10.692  0.0403  0.1869 -0.0797
   31loPI   PO4  484   2.529   9.661  10.154  0.3177 -0.0328 -0.0698
   31loPI   GL1  485   2.760   9.789   9.860  0.1907  0.1285  0.0334
   31loPI   GL2  486   2.610   9.684   9.535 -0.2112 -0.2331  0.0613
   31loPI   C1A  487   2.880  10.148   9.570 -0.1612  0.0443 -0.0673
   31loPI   C2A  488   2.874  10.534   9.311 -0.2416 -0.0643  0.0990
   31loPI   C3A  489   2.597  10.849   8.972  0.0395  0.4334  0.1525
   31loPI   C4A  490   2.524  10.850   8.506 -0.0862 -0.1394 -0.0886
   31loPI   C5A  491   2.387  10.704   8.087 -0.0150 -0.1159  0.2386
   31loPI   C6A  492   2.376  10.467   7.877  0.4400 -0.0954 -0.0283
   31loPI   C1B  493   2.848   9.589   9.165 -0.1967 -0.0353 -0.1902
   31loPI   C2B  494   2.956   9.671   8.726  0.0428 -0.1602  0.0047
   31loPI   C3B  495   2.766   9.898   8.388  0.4149  0.1140  0.1244
   31loPI   C4B  496   2.491   9.956   8.065  0.1753  0.0010  0.0659
   32loPI    C1  497  17.547   8.041  10.536  0.0111  0.0888  0.3282
   32loPI    C2  498  17.580   8.310  10.241  0.1079 -0.0893  0.1741
   32loPI    C3  499  17.402   8.410  10.585  0.0581  0.1419  0.0824
   32loPI   PO4  500  17.402   7.839  10.379  0.0219  0.5508  0.1303
   32loPI   GL1  501  17.248   7.827  10.036 -0.0844 -0.0982 -0.0981
   32loPI   GL2  502  17.083   8.142  10.189  0.1277  0.2571  0.0451
   32loPI   C1A  503  17.170   7.682   9.659  0.1239  0.0924 -0.0883
   32loPI   C2A  504  17.273   7.639   9.222 -0.3696 -0.2152  0.0896
   32loPI   C3A  505  17.187   7.644   8.785 -0.1981 -0.0649  0.1418
   32loPI   C4A  506  17.290   7.892   8.462 -0.2472 -0.0112 -0.2347
   32loPI   C5A  507  17.461   8.254   8.271 -0.1929 -0.0897 -0.1929
   32loPI   C6A  508  17.399   8.696   8.107 -0.0492 -0.1313 -0.0539
   32loPI   C1B  509  17.148   8.205   9.701  0.1056 -0.2121 -0.1336
   32loPI   C2B  510  16.943   8.063   9.287 -0.2970  0.3487  0.2300
   32loPI   C3B  511  16.967   8.015   8.907  0.2014  0.3501 -0.1437
   32loPI   C4B  512  17.005   8.314   8.518 -0.2101  0.0081 -0.1956
   33loPI    C1  513  12.533   3.324  10.344 -0.0549  0.1628  0.0219
   33loPI    C2  514  12.275   3.127  10.110  0.1518 -0.0870  0.0004
   33loPI    C3  515  12.141   3.334  10.424 -0.0746 -0.2177 -0.0078
   33loPI   PO4  516  12.813   3.465  10.152 -0.2131  0.1372  0.1399
   33loPI   GL1  517  12.968   3.682   9.843 -0.1876  0.2215  0.0649
   33loPI   GL2  518  12.701   3.729   9.753  0.0742 -0.0532  0.4708
   33loPI   C1A  519  13.137   3.491   9.543  0.0288 -0.0188 -0.1617
   33loPI   C2A  520  13.061   3.490   9.202  0.0313 -0.2077 -0.4619
   33loPI   C3A  521  13.372   3.445   9.003  0.1163 -0.1678 -0.2387
   33loPI   C4A  522  13.641   3.417   8.698 -0.2339 -0.0679 -0.0091
   33loPI   C5A  523  13.733   3.318   8.155  0.1437  0.1388 -0.0333
   33loPI   C6A  524  13.401   3.144   7.944 -0.4000 -0.2444 -0.1646
   33loPI   C1B  525  12.809   3.985   9.385 -0.0461 -0.0182  0.1065
   33loPI   C2B  526  12.865   3.871   8.859  0.0165  0.1085  0.1443
   33loPI   C3B  527  13.118   3.607   8.599  0.1647 -0.0524 -0.0805
   33loPI   C4B  528  13.440   3.763   8.387 -0.4074  0.2388  0.0996
   34loPI    C1  529   6.049  16.024   9.886 -0.0556 -0.1167  0.2903
   34loPI    C2  530   5.670  16.055  10.010 -0.1211 -0.0376  0.0752
   34loPI    C3  531   5.906  15.769  10.158 -0.3628 -0.2979 -0.0319
   34loPI   PO4  532   6.094  16.302   9.763 -0.0365 -0.1833 -0.3496
   34loPI   GL1  533   6.004  16.634   9.474  0.1391  0.0389  0.0717
   34loPI   GL2  534   6.045  16.340   9.245 -0.1482 -0.0363  0.1648
   34loPI   C1A  535   6.233  16.755   9.048 -0.2122  0.1651  0.1406
   34loPI   C2A  536   6.504  16.639   8.667  0.1472  0.0453 -0.0044
   34loPI   C3A  537   6.384  16.621   8.323 -0.2442 -0.0751  0.2509
   34loPI   C4A  538   6.278  16.613   7.904 -0.0393 -0.0002 -0.1319
   34loPI   C5A  539   6.536  16.408   7.582 -0.1078  0.0751 -0.2031
   34loPI   C6A  540   6.655  16.027   7.441 -0.0944  0.2260  0.3757
   34loPI   C1B  541   5.921  16.436   8.800 -0.3233  0.2071  0.2828
   34loPI   C2B  542   5.864  16.533   8.324 -0.2674  0.1538  0.2902
   34loPI   C3B  543   5.746  16.543   7.912 -0.0538 -0.1349 -0.0282
   34loPI   C4B  544   5.655  16.545   7.510  0.0230  0.1310  0.1526
   35loPI    C1  545   5.121   6.140  10.524  0.2406  0.1185 -0.0332
   35loPI    C2  546   5.071   6.401  10.823 -0.2368  0.0361 -0.0327
   35loPI    C3  547   5.304   6.080  10.874 -0.1229  0.1487  0.1668
   35loPI   PO4  548   5.082   6.293  10.297  0.2461  0.0892  0.1788
   35loPI   GL1  549   5.082   6.158   9.806 -0.2329  0.0167 -0.2425
   35loPI   GL2  550   4.778   6.297   9.763 -0.4361 -0.1475 -0.0597
   35loPI   C1A  551   5.177   6.153   9.426 -0.2054  0.0779 -0.0736
   35loPI   C2A  552   5.210   6.099   8.980 -0.0565 -0.0010 -0.2355
   35loPI   C3A  553   5.367   6.137   8.599 -0.1776 -0.0150  0.2956
   35loPI   C4A  554   5.227   6.407   8.291 -0.6501  0.3432 -0.0555
   35loPI   C5A  555   4.935   6.567   8.228  0.0769 -0.1149  0.2284
   35loPI   C6A  556   4.734   7.014   8.131  0.1029 -0.0173  0.1713
   35loPI   C1B  557   4.699   5.978   9.515  0.5952 -0.0287 -0.2533
   35loPI   C2B  558   4.373   5.707   9.270  0.1934 -0.0041 -0.1014
   35loPI   C3B  559   4.122   5.495   9.031 -0.1459  0.1320 -0.0338
   35loPI   C4B  560   3.698   5.328   8.810  0.1098  0.0218 -0.0276
   36loPI    C1  561   8.939   6.424   9.957  0.0683 -0.0580 -0.0419
   36loPI    C2  562   9.323   6.315   9.945  0.1310  0.1474  0.0483
   36loPI    C3  563   9.044   6.050  10.052  0.2308 -0.0391 -0.1431
   36loPI   PO4  564   9.007   6.636  10.170  0.0195  0.1241 -0.1163
   36loPI   GL1  565   9.299   6.850   9.894  0.0511  0.0495  0.0196
   36loPI   GL2  566   9.563   7.100   9.896 -0.0492  0.0177 -0.2406
   36loPI   C1A  567   9.217   6.650   9.534  0.0951  0.0500 -0.0444
   36loPI   C2A  568   9.032   6.721   9.207  0.0748 -0.0076 -0.1812
   36loPI   C3A  569   8.866   6.864   8.836 -0.1167  0.1645 -0.4201
   36loPI   C4A  570   8.685   6.624   8.465  0.0562 -0.1662 -0.1106
   36loPI   C5A  571   8.585   6.331   8.125  0.0373  0.2223  0.0354
   36loPI   C6A  572   8.301   6.241   8.018 -0.1054  0.3110  0.2043
   36loPI   C1B  573   9.485   7.010   9.406  0.0152  0.2204  0.2338
   36loPI   C2B  574   9.357   6.992   8.919  0.1014  0.2870  0.0559
   36loPI   C3B  575   9.162   7.015   8.472 -0.1655 -0.1793  0.1849
   36loPI   C4B  576   9.192   7.140   8.028  0.0072  0.1625  0.0033
   37loPI    C1  577  17.514  14.445  10.253  0.1029  0.0621  0.1705
   37loPI    C2  578  17.263  14.633  10.501  0.1344  0.3651 -0.0212
   37loPI    C3  579  17.641  14.567  10.612 -0.0391 -0.1596  0.2985
   37loPI   PO4  580  17.416  14.508  10.022 -0.1949  0.2043 -0.3478
   37loPI   GL1  581  17.260  14.613   9.554 -0.2840  0.1588 -0.0899
   37loPI   GL2  582  17.427  14.356   9.511  0.0913 -0.0615  0.0309
   37loPI   C1A  583  16.984  14.780   9.222  0.1732  0.1881 -0.1987
   37loPI   C2A  584  16.829  15.064   9.020  0.0986  0.1983  0.1538
   37loPI   C3A  585  16.540  15.032   8.708  0.0488 -0.0590  0.4172
   37loPI   C4A  586  16.621  15.207   8.342  0.1292  0.1243 -0.2393
   37loPI   C5A  587  16.673  15.570   8.134 -0.0706 -0.1607 -0.1031
   37loPI   C6A  588  16.699  15.519   7.710 -0.1749  0.2684  0.0193
   37loPI   C1B  589  17.531  14.645   9.153  0.0262  0.3945  0.0382
   37loPI   C2B  590  17.376  14.616   8.709 -0.2240 -0.1432 -0.1205
   37loPI   C3B  591  17.163  14.374   8.325  0.2355  0.0898  0.1668
   37loPI   C4B  592  17.133  14.134   7.965 -0.1693  0.0349 -0.1370
   38loPI    C1  593   9.310   2.068  10.274  0.0162  0.1108 -0.2649
   38loPI    C2  594   9.057   2.377  10.292  0.0662  0.1338  0.1526
   38loPI    C3  595   9.410   2.396  10.480  0.1136 -0.1382  0.0944
   38loPI   PO4  596   9.252   1.909  10.013 -0.2345  0.2718 -0.2942
   38loPI   GL1  597   9.132   1.717   9.557  0.2928  0.0829  0.1743
   38loPI   GL2  598   8.858   1.854   9.624  0.0772  0.1420 -0.0882
   38loPI   C1A  599   9.330   1.621   9.209 -0.0163  0.3743 -0.2904
   38loPI   C2A  600   9.365   1.651   8.771 -0.2025 -0.1955  0.2798
   38loPI   C3A  601   9.456   1.567   8.392 -0.1178 -0.0508 -0.1892
   38loPI   C4A  602   9.488   1.660   7.956  0.1924  0.0013 -0.0616
   38loPI   C5A  603   9.435   1.891   7.567  0.0554 -0.0232  0.3227
   38loPI   C6A  604   9.493   2.054   7.257 -0.0622  0.1252 -0.3056
   38loPI   C1B  605   8.949   2.100   9.348  0.0996 -0.1561  0.1935
   38loPI   C2B  606   9.248   2.111   9.095 -0.3338  0.0587  0.1473
   38loPI   C3B  607   9.618   2.378   9.004 -0.1111  0.0393 -0.2193
   38loPI   C4B  608   9.594   2.820   9.032 -0.0153 -0.2375  0.1399
   39loPI    C1  609   4.000  14.722  10.555 -0.0082 -0.2949  0.0115
   39loPI    C2  610   3.682  14.943  10.454  0.2030 -0.0549 -0.1426
   39loPI    C3  611   3.735  14.830  10.834  0.1521  0.2595 -0.0398
   39loPI   PO4  612   4.287  14.765  10.273  0.2122 -0.2365  0.2286
   39loPI   GL1  613   4.386  15.056   9.878  0.1464 -0.0983  0.1078
   39loPI   GL2  614   4.685  15.257   9.701  0.0394 -0.1272  0.2387
   39loPI   C1A  615   4.322  14.879   9.466  0.1590 -0.0024  0.1809
   39loPI   C2A  616   4.376  14.781   9.029  0.2670 -0.2379 -0.3821
   39loPI   C3A  617   4.400  14.606   8.565 -0.0211  0.1538  0.1188
   39loPI   C4A  618   4.650  14.546   8.251 -0.0237  0.2072  0.0889
   39loPI   C5A  619   4.816  14.469   7.906 -0.5189 -0.1412  0.1318
   39loPI   C6A  620   4.963  14.085   7.611 -0.1862  0.0676 -0.2885
   39loPI   C1B  621   4.511  15.333   9.334  0.0801  0.2894  0.0687
   39loPI   C2B  622   4.409  15.256   8.886 -0.2126  0.1811  0.0138
   39loPI   C3B  623   4.348  15.111   8.603  0.1051  0.0535 -0.1036
   39loPI   C4B  624   4.269  14.891   8.213 -0.2791  0.1259 -0.4703
   40loPI    C1  625  10.955   6.270   9.877 -0.0961 -0.1770 -0.0260
   40loPI    C2  626  10.850   6.151  10.244 -0.1392 -0.0073  0.0174
   40loPI    C3  627  10.883   5.883   9.949 -0.0497 -0.1522  0.1575
   40loPI   PO4  628  11.230   6.382   9.863 -0.2687 -0.4919  0.2586
   40loPI   GL1  629  11.544   6.652   9.820 -0.1175 -0.0610  0.2274
   40loPI   GL2  630  11.853   6.542   9.796 -0.2401  0.0909 -0.2282
   40loPI   C1A  631  11.537   6.721   9.435 -0.0096  0.1396 -0.0657
   40loPI   C2A  632  11.587   6.665   9.003  0.1295 -0.4693 -0.0872
   40loPI   C3A  633  11.772   6.436   8.666  0.0783  0.1867  0.2424
   40loPI   C4A  634  11.929   6.690   8.359  0.3353 -0.0873 -0.1753
   40loPI   C5A  635  12.265   7.011   8.257 -0.1568 -0.0058 -0.0930
   40loPI   C6A  636  12.719   7.186   8.094 -0.0482 -0.0924 -0.0383
   40loPI   C1B  637  12.006   6.662   9.398 -0.3473 -0.0948  0.1277
   40loPI   C2B  638  12.343   6.645   9.079 -0.4595  0.2148 -0.0677
   40loPI   C3B  639  12.319   6.540   8.710  0.0697 -0.1324  0.0826
   40loPI   C4B  640  12.621   6.436   8.357 -0.2374  0.2729 -0.0690
   41loPI    C1  641   4.754   9.370  10.191 -0.0224  0.0837 -0.0733
   41loPI    C2  642   4.827   9.381   9.798 -0.0009 -0.1817 -0.0786
   41loPI    C3  643   5.088   9.543  10.054 -0.0908  0.1319 -0.1804
   41loPI   PO4  644   4.522   9.579  10.154 -0.2084 -0.1791 -0.1540
   41loPI   GL1  645   4.307   9.521   9.782 -0.1350 -0.1098  0.1620
   41loPI   GL2  646   4.041   9.643   9.649  0.0468 -0.0670 -0.0698
   41loPI   C1A  647   4.458   9.353   9.380  0.1749 -0.3624 -0.0652
   41loPI   C2A  648   4.389   9.308   8.941 -0.1655 -0.6769 -0.1792
   41loPI   C3A  649   4.388   9.170   8.523 -0.3025 -0.3727 -0.0213
   41loPI   C4A  650   4.464   8.848   8.291 -0.0728  0.1703 -0.2229
   41loPI   C5A  651   4.779   8.611   7.988 -0.0822  0.1029  0.1039
   41loPI   C6A  652   5.047   8.243   8.017  0.1198  0.1354  0.2366
   41loPI   C1B  653   4.135   9.691   9.134  0.3257 -0.1727 -0.0708
   41loPI   C2B  654   4.032   9.777   8.626  0.0526  0.0132  0.0017
   41loPI   C3B  655   4.288   9.878   8.324 -0.1182 -0.2690  0.1521
   41loPI   C4B  656   4.461   9.799   7.920 -0.2667  0.0611  0.0788
   42loPI    C1  657  13.129   8.656  10.078  0.2952 -0.1078 -0.1249
   42loPI    C2  658  13.140   8.381  10.367 -0.0667 -0.0080 -0.0114
   42loPI    C3  659  12.887   8.690  10.394  0.2409  0.2665 -0.2009
   42loPI   PO4  660  13.350   8.777  10.109 -0.0468  0.1766 -0.0579
   42loPI   GL1  661  13.793   8.669   9.810 -0.4120  0.1967 -0.5068
   42loPI   GL2  662  14.036   8.428   9.940 -0.0467 -0.3242 -0.1624
   42loPI   C1A  663  13.692   8.810   9.409 -0.0034  0.1795 -0.0892
   42loPI   C2A  664  13.609   9.152   9.269  0.3460  0.0533  0.1009
   42loPI   C3A  665  13.290   9.207   8.839  0.0495  0.2393 -0.2411
   42loPI   C4A  666  13.335   9.154   8.482 -0.2213 -0.0106 -0.3951
   42loPI   C5A  667  13.501   9.303   8.114 -0.1024  0.2536 -0.0347
   42loPI   C6A  668  13.716   9.041   7.995  0.1636 -0.0405  0.4883
   42loPI   C1B  669  14.187   8.587   9.536  0.0174 -0.4121 -0.3169
   42loPI   C2B  670  14.154   8.601   9.218  0.1518 -0.0300 -0.1885
   42loPI   C3B  671  13.968   8.822   8.844  0.0638 -0.0664 -0.1918
   42loPI   C4B  672  13.772   9.147   8.738  0.2018 -0.1360 -0.1593
   43loPI    C1  673   0.156  15.432  10.300  0.1119  0.0065 -0.1191
   43loPI    C2  674   0.282  15.089  10.464  0.2431 -0.0917 -0.4175
   43loPI    C3  675   0.482  15.429  10.532  0.0392 -0.0456 -0.0169
   43loPI   PO4  676   0.134  15.382  10.040  0.1798  0.0367 -0.1964
   43loPI   GL1  677   0.297  15.336   9.714  0.0712  0.4577  0.2191
   43loPI   GL2  678   0.394  15.645   9.718 -0.2184  0.2071  0.0817
   43loPI   C1A  679   0.318  15.002   9.409  0.1576 -0.4830  0.2113
   43loPI   C2A  680   0.517  14.856   9.005  0.1711 -0.0614  0.2808
   43loPI   C3A  681   0.795  14.955   8.690  0.0090 -0.3863 -0.2073
   43loPI   C4A  682   0.964  14.703   8.386  0.0685  0.0111  0.4306
   43loPI   C5A  683   1.268  14.516   8.202 -0.1379  0.0928  0.0965
   43loPI   C6A  684   1.616  14.857   8.000  0.0203  0.4959  0.0791
   43loPI   C1B  685   0.189  15.767   9.322  0.0219 -0.2361 -0.0201
   43loPI   C2B  686   0.119  15.793   8.949  0.3169  0.0147 -0.4821
   43loPI   C3B  687   0.164  15.745   8.531  0.0276  0.0249 -0.0494
   43loPI   C4B  688   0.074  15.774   8.071 -0.2365 -0.0018 -0.1549
   44loPI    C1  689  17.871   3.177  10.814  0.1264  0.1324  0.3305
   44loPI    C2  690  17.632   2.904  10.982 -0.2230  0.0929 -0.2064
   44loPI    C3  691  17.565   3.294  11.042  0.2006  0.0797  0.4577
   44loPI   PO4  692  18.087   3.067  10.565  0.0591  0.1351 -0.3386
   44loPI   GL1  693  17.844   3.017  10.127  0.2248  0.1740 -0.2278
   44loPI   GL2  694  17.539   3.052  10.055 -0.1261 -0.3438  0.1158
   44loPI   C1A  695  17.937   3.150   9.714  0.0781  0.1847  0.1226
   44loPI   C2A  696  17.876   3.366   9.322 -0.0601 -0.0330  0.1060
   44loPI   C3A  697  17.925   3.242   8.986 -0.1102  0.3504 -0.0699
   44loPI   C4A  698  18.054   3.314   8.642  0.1474  0.2874  0.0379
   44loPI   C5A  699  18.424   3.524   8.465  0.0088 -0.0983  0.3688
   44loPI   C6A  700  18.630   3.885   8.517  0.1837  0.2557 -0.1926
   44loPI   C1B  701  17.376   2.882   9.699 -0.0043 -0.2607 -0.0788
   44loPI   C2B  702  17.460   2.960   9.334 -0.0880 -0.0591  0.0966
   44loPI   C3B  703  17.449   3.240   9.041 -0.1527 -0.1799  0.1227
   44loPI   C4B  704  17.284   3.506   8.797  0.2164  0.0080 -0.2448
   45loPI    C1  705   4.218   8.354  10.387 -0.3547 -0.1526 -0.0515
   45loPI    C2  706   4.085   8.454  10.750  0.0798 -0.0686  0.0904
   45loPI    C3  707   4.351   8.159  10.709 -0.1265 -0.2214 -0.1852
   45loPI   PO4  708   4.281   8.610  10.279  0.1554 -0.0085  0.7903
   45loPI   GL1  709   4.222   8.638   9.866  0.0067  0.0444  0.2087
   45loPI   GL2  710   4.536   8.874   9.768  0.1522  0.2012  0.0699
   45loPI   C1A  711   3.953   8.682   9.506 -0.3748  0.0729  0.0360
   45loPI   C2A  712   3.950   8.705   9.071  0.3394 -0.0304 -0.1869
   45loPI   C3A  713   4.009   8.724   8.578 -0.0641  0.1873 -0.0447
   45loPI   C4A  714   3.911   9.004   8.323 -0.0365 -0.1659 -0.0719
   45loPI   C5A  715   3.980   9.448   8.283 -0.1801  0.1278 -0.2718
   45loPI   C6A  716   3.746   9.822   8.119 -0.2860 -0.3602  0.1382
   45loPI   C1B  717   4.407   8.857   9.411 -0.3108  0.0032  0.0822
   45loPI   C2B  718   4.412   8.783   9.023 -0.3708 -0.2444 -0.3254
   45loPI   C3B  719   4.549   8.567   8.683 -0.0550  0.0398 -0.0081
   45loPI   C4B  720   4.777   8.215   8.462  0.1225  0.0995  0.2478
   46loPI    C1  721   5.942   6.453  10.470 -0.3575  0.1826 -0.2169
   46loPI    C2  722   5.702   6.135  10.508 -0.2364  0.0938 -0.1891
   46loPI    C3  723   5.584   6.492  10.645 -0.2212 -0.0153  0.1162
   46loPI   PO4  724   6.050   6.491  10.181 -0.1616  0.0186  0.0219
   46loPI   GL1  725   5.999   6.553   9.745  0.0174  0.1752  0.1884
   46loPI   GL2  726   6.169   6.502   9.624 -0.0450  0.1779  0.1190
   46loPI   C1A  727   5.816   6.802   9.460  0.0863  0.0849 -0.0773
   46loPI   C2A  728   5.843   6.839   9.011  0.1090 -0.0422  0.1465
   46loPI   C3A  729   5.797   6.912   8.615  0.0256 -0.0153 -0.0480
   46loPI   C4A  730   5.648   6.680   8.204  0.1747 -0.2973 -0.1570
   46loPI   C5A  731   5.706   6.278   8.162  0.1148  0.1885  0.1077
   46loPI   C6A  732   5.911   5.934   8.250 -0.1152  0.0242  0.3460
   46loPI   C1B  733   6.239   6.123   9.687  0.1164  0.1825 -0.1517
   46loPI   C2B  734   5.978   5.738   9.499  0.2027 -0.1823 -0.1416
   46loPI   C3B  735   5.951   5.736   9.074 -0.0886  0.0519  0.0437
   46loPI   C4B  736   5.804   5.887   8.703  0.0734  0.1204  0.0240
   47loPI    C1  737  12.650   8.138  10.858  0.0215  0.0485 -0.0704
   47loPI    C2  738  13.010   8.313  10.856  0.0883 -0.0850  0.0942
   47loPI    C3  739  12.961   7.956  11.031 -0.0911 -0.1393 -0.0628
   47loPI   PO4  740  12.573   8.226  10.566  0.1087 -0.2390  0.0590
   47loPI   GL1  741  12.607   8.208  10.212  0.0348  0.1345  0.0580
   47loPI   GL2  742  12.494   7.816  10.273  0.2072 -0.1586  0.2728
   47loPI   C1A  743  12.848   8.251   9.943 -0.1197 -0.1348 -0.0361
   47loPI   C2A  744  12.910   8.187   9.472  0.1019 -0.2561 -0.0276
   47loPI   C3A  745  13.046   8.226   9.142  0.1066  0.2590  0.2357
   47loPI   C4A  746  13.076   8.414   8.814  0.1058  0.1396  0.0851
   47loPI   C5A  747  12.644   8.514   8.530  0.0543 -0.0390 -0.0400
   47loPI   C6A  748  12.362   8.912   8.488  0.2359 -0.1010 -0.0777
   47loPI   C1B  749  12.475   7.842   9.848 -0.2401  0.0965 -0.4371
   47loPI   C2B  750  12.655   7.780   9.521 -0.3195  0.1317 -0.1109
   47loPI   C3B  751  12.813   7.809   9.111  0.2858 -0.0538 -0.2372
   47loPI   C4B  752  12.831   8.013   8.728 -0.0236  0.0209  0.1845
   48loPI    C1  753  11.122  17.699   9.981  0.0874 -0.0314  0.1205
   48loPI    C2  754  10.738  17.625   9.895  0.0804  0.0636  0.0682
   48loPI    C3  755  10.912  17.444  10.207  0.0350 -0.0928  0.0035
   48loPI   PO4  756  11.132  18.026   9.872 -0.2809  0.1164  0.2669
   48loPI   GL1  757  11.176  18.073   9.433  0.1067  0.3129  0.1073
   48loPI   GL2  758  11.362  18.367   9.227  0.0808 -0.0656 -0.0955
   48loPI   C1A  759  11.142  17.947   9.048 -0.0332  0.1074  0.2275
   48loPI   C2A  760  11.217  17.789   8.685  0.1080 -0.0172  0.5099
   48loPI   C3A  761  11.123  17.608   8.277  0.0348  0.1372  0.0346
   48loPI   C4A  762  11.059  17.562   7.911  0.3424 -0.3702 -0.3422
   48loPI   C5A  763  10.919  17.278   7.633  0.0763 -0.1408  0.0201
   48loPI   C6A  764  10.521  17.046   7.431  0.1608 -0.0197 -0.3132
   48loPI   C1B  765  11.365  18.635   8.971  0.1626 -0.1548  0.2397
   48loPI   C2B  766  11.480  18.733   8.522  0.0448  0.0431 -0.1385
   48loPI   C3B  767  11.565  18.879   8.136  0.1982  0.0794 -0.2724
   48loPI   C4B  768  11.733  18.761   7.801  0.0867  0.0369  0.0142
   49loPI    C1  769  15.499  18.382  10.630 -0.2471  0.2182 -0.2211
   49loPI    C2  770  15.727  18.587  10.374  0.1330 -0.1632 -0.1997
   49loPI    C3  771  15.820  18.579  10.763 -0.1881  0.0530 -0.1147
   49loPI   PO4  772  15.452  18.171  10.450  0.3760  0.1262 -0.1562
   49loPI   GL1  773  15.585  18.246  10.024  0.0031  0.0878  0.0486
   49loPI   GL2  774  15.514  18.145   9.707 -0.0112  0.0024 -0.0371
   49loPI   C1A  775  15.888  18.489   9.626 -0.0510 -0.0298  0.0517
   49loPI   C2A  776  16.029  18.646   9.270 -0.0385 -0.2163 -0.3499
   49loPI   C3A  777  16.251  18.838   8.913  0.2558  0.2566 -0.0338
   49loPI   C4A  778  16.491  19.219   8.711  0.1118 -0.1597  0.1642
   49loPI   C5A  779  16.567  19.349   8.336  0.0817  0.1982 -0.3034
   49loPI   C6A  780  16.495  19.131   7.961  0.0946 -0.2396  0.1643
   49loPI   C1B  781  15.565  17.803   9.347  0.1689  0.0235 -0.1123
   49loPI   C2B  782  15.766  17.852   8.960 -0.2240  0.2843  0.0742
   49loPI   C3B  783  15.886  17.924   8.792  0.2143  0.1417 -0.1197
   49loPI   C4B  784  15.748  17.663   8.351  0.0225 -0.2562 -0.0657
   50loPI    C1  785   5.578   4.742  10.501  0.0584  0.1767  0.2638
   50loPI    C2  786   5.699   4.385  10.366 -0.1193  0.1554  0.1585
   50loPI    C3  787   5.444   4.407  10.674  0.0085  0.1958  0.2624
   50loPI   PO4  788   5.554   4.869  10.278  0.0184  0.1411  0.4319
   50loPI   GL1  789   5.599   4.832   9.859  0.1151  0.0193 -0.5063
   50loPI   GL2  790   5.758   4.525   9.895 -0.0071 -0.0652 -0.0394
   50loPI   C1A  791   5.625   4.846   9.412 -0.1691 -0.2702 -0.5111
   50loPI   C2A  792   5.824   4.616   9.089 -0.0198  0.0760  0.1661
   50loPI   C3A  793   5.790   4.468   8.706  0.1363  0.0183  0.1688
   50loPI   C4A  794   5.790   4.288   8.378 -0.1711 -0.0330  0.0910
   50loPI   C5A  795   5.740   4.039   8.051 -0.1019  0.1340 -0.0392
   50loPI   C6A  796   5.514   4.051   7.710  0.0772 -0.0136 -0.1710
   50loPI   C1B  797   5.803   4.300   9.484 -0.0155  0.0487  0.0432
   50loPI   C2B  798   5.786   3.955   9.422 -0.0785  0.0911 -0.1952
   50loPI   C3B  799   5.891   3.573   9.491 -0.1148  0.3075  0.1978
   50loPI   C4B  800   6.285   3.345   9.359 -0.1304 -0.0845 -0.0211
   51loPI    C1  801  16.008  16.580  10.391  0.0394 -0.0806 -0.1430
   51loPI    C2  802  15.749  16.316  10.543  0.0339  0.1539  0.2700
   51loPI    C3  803  16.135  16.303  10.650  0.1690 -0.0926 -0.2184
   51loPI   PO4  804  15.949  16.615  10.113  0.1502  0.1043 -0.1651
   51loPI   GL1  805  16.075  16.415   9.722 -0.4963 -0.0075  0.2700
   51loPI   GL2  806  16.180  16.630   9.583 -0.2286  0.1215 -0.3054
   51loPI   C1A  807  15.888  16.334   9.319 -0.0527 -0.1317 -0.0734
   51loPI   C2A  808  15.813  16.413   8.903 -0.0423 -0.1476 -0.2947
   51loPI   C3A  809  15.818  16.395   8.507  0.0285  0.3670  0.0686
   51loPI   C4A  810  15.753  16.464   8.071  0.2730  0.0034  0.1078
   51loPI   C5A  811  15.799  16.887   7.920 -0.0566 -0.0562  0.2514
   51loPI   C6A  812  15.729  17.202   8.183  0.3334 -0.2046  0.2850
   51loPI   C1B  813  16.280  16.475   9.146 -0.1312  0.0128  0.2716
   51loPI   C2B  814  16.424  16.585   8.723  0.0974 -0.2996 -0.0776
   51loPI   C3B  815  16.646  16.570   8.344 -0.2628  0.0729  0.1286
   51loPI   C4B  816  16.707  16.541   7.863  0.0756 -0.0583  0.1106
   52loPI    C1  817  12.015  13.480   9.870  0.1075  0.0368  0.0954
   52loPI    C2  818  12.274  13.192   9.769  0.1877  0.0442  0.2766
   52loPI    C3  819  12.390  13.575   9.767  0.0233  0.0969 -0.1632
   52loPI   PO4  820  11.841  13.407   9.712 -0.0751 -0.1691 -0.2706
   52loPI   GL1  821  11.998  13.285   9.224  0.2493  0.2679 -0.0887
   52loPI   GL2  822  12.167  13.637   9.323  0.0754  0.1613 -0.1072
   52loPI   C1A  823  12.066  13.396   8.856  0.0123  0.3665  0.0917
   52loPI   C2A  824  12.112  13.188   8.460  0.1676  0.0964  0.2545
   52loPI   C3A  825  12.032  13.372   8.037  0.1500 -0.1632 -0.3110
   52loPI   C4A  826  11.790  13.603   7.725  0.1807 -0.2011  0.3738
   52loPI   C5A  827  11.688  13.624   7.295 -0.3710 -0.2617 -0.0317
   52loPI   C6A  828  11.946  13.681   6.967  0.0707  0.0720 -0.1318
   52loPI   C1B  829  12.516  13.736   8.955 -0.1507  0.1186 -0.0787
   52loPI   C2B  830  12.580  13.815   8.542  0.1821  0.0629  0.1457
   52loPI   C3B  831  12.350  13.731   8.217  0.1192 -0.2418  0.2016
   52loPI   C4B  832  12.313  13.673   7.783 -0.0455  0.0130  0.1812
   53loPI    C1  833   4.534   3.015   9.947  0.0981 -0.0524  0.3867
   53loPI    C2  834   4.852   2.888   9.740 -0.0182  0.1312  0.0878
   53loPI    C3  835   4.903   3.122  10.060  0.1573 -0.0432  0.1898
   53loPI   PO4  836   4.446   2.619   9.975 -0.0553  0.0070  0.0056
   53loPI   GL1  837   4.362   2.319   9.596  0.0642  0.2597  0.3855
   53loPI   GL2  838   4.150   2.075   9.567 -0.2064 -0.3998 -0.3172
   53loPI   C1A  839   4.296   2.225   9.121 -0.0633 -0.2380  0.0363
   53loPI   C2A  840   4.420   2.082   8.692 -0.1974 -0.1219 -0.0435
   53loPI   C3A  841   4.782   1.815   8.492 -0.0614 -0.3357  0.2178
   53loPI   C4A  842   4.895   1.785   8.055  0.0654  0.0842 -0.1001
   53loPI   C5A  843   4.710   1.447   7.727 -0.4071 -0.3306 -0.0764
   53loPI   C6A  844   4.219   1.537   7.628  0.2091  0.0462  0.1317
   53loPI   C1B  845   4.484   1.799   9.313  0.1035  0.0513 -0.0955
   53loPI   C2B  846   4.636   1.657   8.989  0.1910 -0.1633 -0.2047
   53loPI   C3B  847   4.491   1.424   8.638  0.0664  0.1745  0.0529
   53loPI   C4B  848   4.350   1.373   8.141 -0.0695  0.2879  0.0505
   54loPI    C1  849  13.632   3.855  10.575  0.0373 -0.1725  0.0681
   54loPI    C2  850  13.628   3.918  10.970 -0.2726  0.4700 -0.0240
   54loPI    C3  851  13.291   3.812  10.780 -0.1194  0.1393 -0.1192
   54loPI   PO4  852  13.660   4.028  10.438 -0.1434  0.3407 -0.0943
   54loPI   GL1  853  13.700   4.184  10.077 -0.1465  0.2034 -0.1353
   54loPI   GL2  854  13.931   4.419  10.144  0.2363 -0.0737 -0.0041
   54loPI   C1A  855  13.512   3.943   9.750  0.0307  0.2808 -0.0164
   54loPI   C2A  856  13.517   3.844   9.303  0.0202 -0.1559  0.1201
   54loPI   C3A  857  13.386   3.951   8.886  0.0111 -0.0959 -0.0760
   54loPI   C4A  858  13.177   4.180   8.430 -0.1333 -0.0195  0.0641
   54loPI   C5A  859  12.951   4.433   8.082 -0.1190  0.1064 -0.0618
   54loPI   C6A  860  12.804   4.549   7.751 -0.1631  0.4925  0.2149
   54loPI   C1B  861  13.833   4.437   9.671  0.1085  0.0349 -0.2004
   54loPI   C2B  862  13.845   4.284   9.222 -0.1167 -0.1234  0.0815
   54loPI   C3B  863  13.755   4.283   8.712  0.1320 -0.1134 -0.1215
   54loPI   C4B  864  13.900   4.328   8.280  0.1378  0.1750  0.0613
   55loPI    C1  865  14.715  18.215  10.022  0.0313  0.0026 -0.0502
   55loPI    C2  866  14.916  18.125  10.356  0.1744  0.2126 -0.0772
   55loPI    C3  867  15.087  18.354  10.076  0.0135  0.1297 -0.2450
   55loPI   PO4  868  14.534  18.294  10.094 -0.1285  0.2125  0.1528
   55loPI   GL1  869  14.155  18.370   9.891  0.1439 -0.0131 -0.0298
   55loPI   GL2  870  13.898  18.494   9.693  0.2026  0.1493 -0.3671
   55loPI   C1A  871  14.290  18.255   9.440 -0.0698  0.0265 -0.0906
   55loPI   C2A  872  14.410  18.604   9.193 -0.0934  0.0006 -0.2041
   55loPI   C3A  873  14.558  18.567   8.813 -0.1292  0.2972 -0.2652
   55loPI   C4A  874  14.755  18.722   8.448 -0.1125  0.2635 -0.2210
   55loPI   C5A  875  14.705  18.765   8.008  0.0961 -0.1598 -0.1117
   55loPI   C6A  876  14.953  18.945   7.649 -0.1707  0.1343 -0.2700
   55loPI   C1B  877  13.908  18.556   9.219  0.2091  0.0186  0.0289
   55loPI   C2B  878  13.947  18.737   8.917 -0.0293 -0.1828  0.3575
   55loPI   C3B  879  14.135  18.641   8.491 -0.4867 -0.0726  0.1217
   55loPI   C4B  880  14.160  18.707   8.059  0.3699  0.1209  0.2433
   56loPI    C1  881  12.224   7.480  10.602  0.3228 -0.0305 -0.0418
   56loPI    C2  882  12.246   7.847  10.761 -0.2617  0.0204 -0.0544
   56loPI    C3  883  12.290   7.525  10.994 -0.0945  0.0958  0.0196
   56loPI   PO4  884  12.110   7.510  10.329  0.2782  0.1243  0.1269
   56loPI   GL1  885  11.832   7.776  10.060 -0.5265  0.0906  0.1333
   56loPI   GL2  886  11.953   7.580   9.892  0.1495  0.0852 -0.3496
   56loPI   C1A  887  11.923   8.037   9.719 -0.0546  0.1044  0.2242
   56loPI   C2A  888  11.942   8.030   9.294  0.0340  0.1702  0.1573
   56loPI   C3A  889  11.984   7.857   8.851  0.3377 -0.2093 -0.0689
   56loPI   C4A  890  11.913   7.871   8.464 -0.1343  0.0252 -0.3320
   56loPI   C5A  891  11.903   7.464   8.106  0.1902  0.1673 -0.0337
   56loPI   C6A  892  11.641   7.055   8.131 -0.2692 -0.0467  0.1416
   56loPI   C1B  893  12.097   7.643   9.435 -0.0285  0.0827 -0.1326
   56loPI   C2B  894  12.315   7.599   9.169 -0.1708  0.0467  0.2412
   56loPI   C3B  895  12.422   7.670   8.819 -0.0637 -0.2606  0.4937
   56loPI   C4B  896  12.713   7.490   8.535  0.0824 -0.1927  0.2662
   57loPI    C1  897   3.346   9.155  10.299  0.2131  0.2348  0.0822
   57loPI    C2  898   3.511   9.051  10.648  0.0881  0.1343  0.1121
   57loPI    C3  899   3.393   9.428  10.587  0.0834  0.1455  0.1897
   57loPI   PO4  900   3.278   8.831  10.207  0.3182  0.0505  0.1621
   57loPI   GL1  901   3.517   8.736   9.779 -0.2035 -0.2868 -0.0767
   57loPI   GL2  902   3.597   8.405   9.874  0.0819 -0.1188 -0.1786
   57loPI   C1A  903   3.517   8.891   9.386 -0.0412  0.0486  0.0988
   57loPI   C2A  904   3.481   8.866   8.934  0.0980 -0.2827 -0.2306
   57loPI   C3A  905   3.535   8.775   8.568 -0.0705 -0.0145  0.2517
   57loPI   C4A  906   3.553   8.633   8.170 -0.1338 -0.0717 -0.1823
   57loPI   C5A  907   3.533   8.238   8.042 -0.0769  0.2146  0.1473
   57loPI   C6A  908   3.519   7.837   7.888  0.1124  0.0351 -0.3674
   57loPI   C1B  909   3.575   8.018   9.654 -0.1872  0.0323 -0.5178
   57loPI   C2B  910   3.623   7.909   9.140  0.3430  0.1290 -0.0222
   57loPI   C3B  911   3.787   7.838   8.776 -0.0098 -0.0582 -0.2844
   57loPI   C4B  912   3.998   7.800   8.300  0.0014 -0.0857 -0.1824
   58loPI    C1  913   3.969  10.764  10.116  0.0937  0.0450  0.0477
   58loPI    C2  914   4.194  10.481   9.944  0.0286  0.0243 -0.0041
   58loPI    C3  915   4.352  10.720  10.224  0.0827 -0.0658  0.0427
   58loPI   PO4  916   3.831  10.816   9.857  0.0629 -0.0336 -0.2203
   58loPI   GL1  917   3.582  10.630   9.527  0.1315  0.0593 -0.0186
   58loPI   GL2  918   3.431  10.421   9.552 -0.0225 -0.2501 -0.0398
   58loPI   C1A  919   3.597  10.974   9.135 -0.2346  0.1603 -0.0142
   58loPI   C2A  920   3.584  10.949   8.632 -0.0890  0.2373  0.1971
   58loPI   C3A  921   3.360  10.729   8.164 -0.2364  0.0662  0.0444
   58loPI   C4A  922   3.024  10.780   7.711  0.0472  0.0289  0.1478
   58loPI   C5A  923   2.618  10.887   7.550  0.1537  0.1071 -0.2907
   58loPI   C6A  924   2.150  10.793   7.454 -0.0372 -0.0179 -0.2996
   58loPI   C1B  925   3.530  10.427   9.051 -0.2366 -0.1621 -0.1110
   58loPI   C2B  926   3.275  10.637   8.782 -0.0826  0.2188  0.1387
   58loPI   C3B  927   2.864  10.520   8.778  0.0739 -0.0404  0.0639
   58loPI   C4B  928   2.687  10.097   8.806  0.0453 -0.0176 -0.0790
   59loPI    C1  929   9.947   9.864  10.542 -0.2833  0.0583  0.0067
   59loPI    C2  930   9.686  10.161  10.485 -0.0789  0.1845 -0.2972
   59loPI    C3  931   9.936  10.172  10.796 -0.2111  0.2266 -0.1913
   59loPI   PO4  932  10.012   9.802  10.344 -0.2649 -0.1909  0.1891
   59loPI   GL1  933  10.102   9.840   9.842 -0.3740  0.1845 -0.3576
   59loPI   GL2  934  10.263   9.621   9.917 -0.2429  0.0804  0.0439
   59loPI   C1A  935  10.082   9.921   9.386  0.1092  0.3490 -0.0153
   59loPI   C2A  936  10.154   9.871   8.838 -0.1221 -0.0047 -0.2676
   59loPI   C3A  937  10.352   9.582   8.532  0.3123 -0.0583  0.1224
   59loPI   C4A  938  10.290   9.277   8.237  0.2283 -0.2284 -0.3743
   59loPI   C5A  939   9.847   9.338   7.937  0.0760 -0.1014 -0.2153
   59loPI   C6A  940   9.735   8.952   7.867 -0.1384  0.2785 -0.0297
   59loPI   C1B  941  10.426   9.539   9.508  0.1791 -0.0912 -0.0023
   59loPI   C2B  942  10.631   9.630   9.078 -0.0162  0.0670 -0.2463
   59loPI   C3B  943  10.612  10.015   8.819  0.0819  0.2858  0.0896
   59loPI   C4B  944  10.512  10.114   8.389 -0.0051  0.2634 -0.0442
   60loPI    C1  945   7.767  13.570   9.647 -0.0960 -0.0714 -0.1639
   60loPI    C2  946   7.795  13.381   9.998 -0.0051  0.0757 -0.0906
   60loPI    C3  947   7.590  13.723   9.971 -0.0408  0.0470 -0.1890
   60loPI   PO4  948   7.754  13.321   9.403 -0.0948  0.1392 -0.0632
   60loPI   GL1  949   8.157  13.202   9.138 -0.0363 -0.1433 -0.3452
   60loPI   GL2  950   8.195  13.001   9.392 -0.0279 -0.0539 -0.2631
   60loPI   C1A  951   8.110  13.152   8.712  0.2678 -0.0636 -0.2083
   60loPI   C2A  952   8.174  13.112   8.337  0.1784 -0.0651 -0.4557
   60loPI   C3A  953   8.021  13.271   8.064 -0.0409  0.0381 -0.1663
   60loPI   C4A  954   8.202  13.409   7.655 -0.1012  0.0694 -0.0952
   60loPI   C5A  955   8.618  13.562   7.663 -0.0006 -0.1290 -0.3708
   60loPI   C6A  956   9.014  13.823   7.596  0.0796 -0.0148 -0.0710
   60loPI   C1B  957   8.424  12.807   9.031  0.1233  0.0670  0.3816
   60loPI   C2B  958   8.498  12.842   8.579 -0.0733  0.1365  0.1370
   60loPI   C3B  959   8.625  12.615   8.183  0.1606  0.1591  0.0121
   60loPI   C4B  960   8.588  12.597   7.751 -0.1053  0.1583 -0.1487
   61loPI    C1  961  15.199   6.549  10.900  0.0557 -0.1311  0.1464
   61loPI    C2  962  15.017   6.833  11.113  0.2593  0.0607  0.0689
   61loPI    C3  963  15.275   6.585  11.291  0.0816 -0.0781  0.1365
   61loPI   PO4  964  14.858   6.383  10.780 -0.0779 -0.0162 -0.1218
   61loPI   GL1  965  14.825   6.395  10.227  0.0927 -0.0093 -0.0983
   61loPI   GL2  966  14.563   6.685  10.270 -0.0471 -0.1247 -0.3674
   61loPI   C1A  967  14.683   6.327   9.758 -0.4739 -0.1064  0.2871
   61loPI   C2A  968  14.445   6.392   9.353  0.0839  0.0727 -0.1011
   61loPI   C3A  969  14.583   6.717   9.208  0.0247  0.0686  0.1196
   61loPI   C4A  970  14.831   6.876   9.013  0.4409  0.0703 -0.0254
   61loPI   C5A  971  15.216   7.133   9.173 -0.0753  0.1973  0.1981
   61loPI   C6A  972  15.299   7.607   9.287  0.1822  0.0057 -0.0746
   61loPI   C1B  973  14.524   6.774   9.780  0.1753  0.1260 -0.2332
   61loPI   C2B  974  14.299   7.057   9.451  0.3588  0.2172  0.2398
   61loPI   C3B  975  14.371   7.156   9.036 -0.0359 -0.1446 -0.0028
   61loPI   C4B  976  14.575   7.200   8.669  0.1661  0.0267 -0.0829
   62loPI    C1  977   8.914   4.019  10.273 -0.1100 -0.1217  0.0995
   62loPI    C2  978   9.094   4.352  10.401  0.0514 -0.1360 -0.0845
   62loPI    C3  979   9.297   4.008  10.390 -0.0300 -0.1818 -0.1613
   62loPI   PO4  980   8.741   4.133  10.083  0.0542  0.3425 -0.0211
   62loPI   GL1  981   8.755   3.878   9.659  0.1913 -0.0019 -0.1136
   62loPI   GL2  982   8.679   4.182   9.623 -0.0083 -0.0190 -0.1453
   62loPI   C1A  983   8.818   3.737   9.296  0.0634  0.2055 -0.0372
   62loPI   C2A  984   8.937   3.934   8.845 -0.0384 -0.0670  0.0445
   62loPI   C3A  985   9.140   4.244   8.614  0.0391  0.1589 -0.4710
   62loPI   C4A  986   8.945   4.563   8.302 -0.1931  0.0251 -0.0232
   62loPI   C5A  987   8.632   4.535   7.990 -0.1411 -0.0010 -0.2563
   62loPI   C6A  988   8.195   4.316   7.901 -0.2229  0.3767  0.0933
   62loPI   C1B  989   8.796   4.239   9.201  0.1922 -0.4084  0.0951
   62loPI   C2B  990   8.555   4.336   8.769 -0.0100  0.1636  0.2920
   62loPI   C3B  991   8.534   4.159   8.273  0.1693 -0.1584 -0.0429
   62loPI   C4B  992   8.360   3.828   7.983  0.0954 -0.0627  0.0044
   63loPI    C1  993  12.914  15.636   9.677 -0.2316  0.1704 -0.3369
   63loPI    C2  994  12.639  15.577   9.962  0.1603 -0.1200 -0.0061
   63loPI    C3  995  12.761  15.948   9.875 -0.0468 -0.0204  0.1208
   63loPI   PO4  996  12.813  15.565   9.435 -0.1983  0.1456  0.1260
   63loPI   GL1  997  12.906  15.228   9.180 -0.0623  0.3786 -0.0549
   63loPI   GL2  998  13.185  15.080   9.151  0.0578 -0.0552 -0.1071
   63loPI   C1A  999  12.802  15.188   8.697 -0.0506 -0.0439 -0.1433
   63loPI   C2A 1000  12.936  15.335   8.323  0.1165 -0.1227 -0.0974
   63loPI   C3A 1001  13.094  15.399   7.993  0.0033 -0.0840 -0.1059
   63loPI   C4A 1002  13.014  15.662   7.663  0.1222 -0.0207 -0.2329
   63loPI   C5A 1003  12.700  15.729   7.270 -0.1037 -0.4570 -0.0666
   63loPI   C6A 1004  12.311  15.616   7.158 -0.1106  0.0602  0.0968
   63loPI   C1B 1005  13.302  15.108   8.708  0.2327 -0.3343  0.1812
   63loPI   C2B 1006  13.301  15.001   8.288  0.1755  0.0779  0.0749
   63loPI   C3B 1007  13.453  15.032   7.899 -0.1743 -0.2156  0.1073
   63loPI   C4B 1008  13.725  15.369   8.024 -0.2341 -0.2650  0.0068
   64loPI    C1 1009   2.650   2.544  10.682 -0.1241 -0.2223 -0.0217
   64loPI    C2 1010   2.994   2.362  10.587  0.0856  0.3599 -0.4405
   64loPI    C3 1011   2.982   2.621  10.892 -0.1235 -0.0585 -0.0813
   64loPI   PO4 1012   2.663   2.776  10.409 -0.0452 -0.2508 -0.2891
   64loPI   GL1 1013   2.907   3.026  10.001 -0.1456  0.0343  0.2770
   64loPI   GL2 1014   2.651   3.119   9.883  0.4690  0.0992 -0.0723
   64loPI   C1A 1015   3.084   2.869   9.744 -0.2317 -0.0791 -0.0241
   64loPI   C2A 1016   2.994   2.610   9.458 -0.1186  0.2552 -0.2916
   64loPI   C3A 1017   3.131   2.452   9.072 -0.1479  0.0373 -0.4301
   64loPI   C4A 1018   3.303   2.232   8.718  0.1569  0.2234  0.4272
   64loPI   C5A 1019   3.457   2.240   8.313 -0.0161 -0.0212 -0.0789
   64loPI   C6A 1020   3.548   2.639   8.148 -0.5032  0.0457 -0.0957
   64loPI   C1B 1021   2.668   3.080   9.425  0.2790 -0.2201 -0.0511
   64loPI   C2B 1022   2.669   2.691   9.128  0.1782  0.3387 -0.0088
   64loPI   C3B 1023   2.694   2.356   8.817 -0.0613  0.0986  0.1142
   64loPI   C4B 1024   2.534   2.098   8.621  0.4563  0.0084 -0.0215
   65loPI    C1 1025   8.078   6.639  10.371  0.0476  0.3771  0.0648
   65loPI    C2 1026   8.464   6.673  10.470  0.1472 -0.2718 -0.0582
   65loPI    C3 1027   8.191   6.598  10.752  0.1678 -0.2262 -0.0262
   65loPI   PO4 1028   8.083   6.887  10.096  0.1921  0.0422  0.3172
   65loPI   GL1 1029   8.200   6.775   9.678 -0.1041 -0.3389  0.0554
   65loPI   GL2 1030   7.869   6.627   9.681 -0.0772 -0.2251 -0.1892
   65loPI   C1A 1031   8.247   6.739   9.261 -0.0480 -0.1391 -0.1479
   65loPI   C2A 1032   8.187   6.668   8.812 -0.1574 -0.3032 -0.1739
   65loPI   C3A 1033   8.077   6.643   8.399  0.2465 -0.0455  0.0141
   65loPI   C4A 1034   7.890   6.618   7.941  0.1777  0.1847 -0.2641
   65loPI   C5A 1035   7.555   6.341   7.707  0.2601 -0.1438  0.0061
   65loPI   C6A 1036   7.304   6.133   7.378  0.0677 -0.1031 -0.1610
   65loPI   C1B 1037   7.749   6.576   9.301 -0.0509  0.1520  0.2600
   65loPI   C2B 1038   7.718   6.574   8.892  0.1052 -0.0151  0.1953
   65loPI   C3B 1039   7.642   6.716   8.564 -0.2424  0.3123 -0.0508
   65loPI   C4B 1040   7.444   6.720   8.198 -0.0274  0.0460 -0.1364
   66loPI    C1 1041   8.451   9.160  10.128  0.0833  0.3115  0.0914
   66loPI    C2 1042   8.396   9.367  10.466  0.0093 -0.0491  0.3060
   66loPI    C3 1043   8.130   9.089  10.356  0.0857 -0.0054  0.0008
   66loPI   PO4 1044   8.804   9.199  10.245  0.1803 -0.4141  0.3540
   66loPI   GL1 1045   9.081   9.082   9.937  0.0952 -0.1883 -0.2434
   66loPI   GL2 1046   9.224   9.223   9.638  0.0615 -0.2275  0.1399
   66loPI   C1A 1047   8.921   8.792   9.655  0.0009  0.1189 -0.0660
   66loPI   C2A 1048   8.744   8.665   9.285 -0.6229 -0.0597 -0.2290
   66loPI   C3A 1049   8.596   8.584   8.913  0.1173  0.1015 -0.0366
   66loPI   C4A 1050   8.620   8.538   8.520 -0.5147  0.1849 -0.0174
   66loPI   C5A 1051   8.821   8.345   8.079 -0.1657 -0.1221 -0.0905
   66loPI   C6A 1052   9.137   8.178   8.091 -0.1228  0.1544  0.0672
   66loPI   C1B 1053   9.405   9.211   9.210  0.1477 -0.1996 -0.1433
   66loPI   C2B 1054   9.440   9.222   8.819  0.3210  0.2280 -0.0764
   66loPI   C3B 1055   9.232   9.365   8.503 -0.2823 -0.1073  0.2600
   66loPI   C4B 1056   9.020   9.226   8.125 -0.0196 -0.0402 -0.2661
   67loPI    C1 1057  16.878   6.375  10.919 -0.0384 -0.2253  0.0347
   67loPI    C2 1058  16.916   6.214  11.284  0.0529  0.2404  0.2380
   67loPI    C3 1059  17.059   6.581  11.211 -0.1443  0.2341 -0.2139
   67loPI   PO4 1060  16.978   6.183  10.746 -0.1131 -0.0017 -0.0927
   67loPI   GL1 1061  17.469   6.106  10.568 -0.1050  0.2667  0.0056
   67loPI   GL2 1062  17.245   6.335  10.346  0.1342  0.3181 -0.3636
   67loPI   C1A 1063  17.672   5.921  10.133  0.3439  0.1119 -0.1177
   67loPI   C2A 1064  17.675   5.998   9.627 -0.1797  0.0701 -0.1239
   67loPI   C3A 1065  17.539   5.895   9.196 -0.2770 -0.0157 -0.0974
   67loPI   C4A 1066  17.607   5.542   8.851 -0.1577  0.3725 -0.2142
   67loPI   C5A 1067  17.785   5.614   8.498  0.0264  0.1885  0.0588
   67loPI   C6A 1068  17.720   5.723   8.040 -0.0675  0.0729 -0.0030
   67loPI   C1B 1069  17.335   6.259   9.868 -0.1235  0.2769 -0.3108
   67loPI   C2B 1070  17.220   6.271   9.469 -0.0876 -0.3124 -0.0192
   67loPI   C3B 1071  17.081   6.173   9.062 -0.0104 -0.0885 -0.0205
   67loPI   C4B 1072  16.909   6.225   8.654 -0.0661  0.1300  0.1247
   68loPI    C1 1073  10.954  16.723   9.764  0.3334 -0.2408  0.2877
   68loPI    C2 1074  10.705  16.962   9.967 -0.1096 -0.2379 -0.2344
   68loPI    C3 1075  10.702  16.568  10.033  0.1605 -0.1788  0.1641
   68loPI   PO4 1076  10.903  16.745   9.456 -0.0636  0.0030 -0.0943
   68loPI   GL1 1077  11.038  16.753   9.104  0.0697 -0.0898 -0.1118
   68loPI   GL2 1078  11.328  16.845   9.100 -0.0459 -0.1978 -0.1465
   68loPI   C1A 1079  10.888  16.671   8.756 -0.2847 -0.1033  0.0669
   68loPI   C2A 1080  11.004  16.520   8.349  0.1115 -0.0721  0.0729
   68loPI   C3A 1081  11.174  16.475   7.889 -0.1232 -0.1024  0.1235
   68loPI   C4A 1082  11.328  16.499   7.460  0.1088  0.0505 -0.0380
   68loPI   C5A 1083  11.582  16.524   7.219 -0.2380  0.1046 -0.3400
   68loPI   C6A 1084  12.019  16.479   7.179  0.4025  0.0536 -0.2451
   68loPI   C1B 1085  11.347  16.823   8.714  0.3002 -0.3159 -0.3544
   68loPI   C2B 1086  11.319  16.908   8.199  0.0318 -0.0867 -0.0750
   68loPI   C3B 1087  11.437  16.943   7.797  0.0538 -0.1835  0.1507
   68loPI   C4B 1088  11.398  17.171   7.471 -0.0544 -0.3609 -0.1831
   69loPI    C1 1089  17.118   5.541  10.734 -0.0109  0.0789 -0.0807
   69loPI    C2 1090  17.009   5.765  11.047  0.0218 -0.1693  0.1113
   69loPI    C3 1091  16.852   5.401  10.997  0.0454 -0.1466 -0.1418
   69loPI   PO4 1092  17.134   5.727  10.506 -0.2031 -0.1698 -0.0323
   69loPI   GL1 1093  17.013   5.860  10.180  0.0550  0.2064 -0.2188
   69loPI   GL2 1094  16.620   5.867   9.996  0.0802  0.0536  0.0078
   69loPI   C1A 1095  17.095   5.789   9.766  0.1418 -0.0378  0.0795
   69loPI   C2A 1096  16.857   5.646   9.465  0.3774 -0.0193 -0.2302
   69loPI   C3A 1097  16.665   5.777   9.183  0.1060  0.3297  0.2291
   69loPI   C4A 1098  16.623   5.848   8.731 -0.5606 -0.1780 -0.0104
   69loPI   C5A 1099  16.667   5.779   8.306 -0.0807 -0.1286  0.1167
   69loPI   C6A 1100  16.472   5.662   7.798 -0.0965 -0.2152 -0.0271
   69loPI   C1B 1101  16.346   6.099   9.881 -0.1411  0.1738  0.1961
   69loPI   C2B 1102  16.111   6.368   9.558  0.1379 -0.1347 -0.0748
   69loPI   C3B 1103  16.035   6.401   9.174  0.2736 -0.1840 -0.2963
   69loPI   C4B 1104  15.619   6.301   8.915 -0.1188  0.1544 -0.0122
   70loPI    C1 1105  16.319  17.390  10.522 -0.5006  0.1678 -0.2063
   70loPI    C2 1106  16.288  17.783  10.592 -0.0873  0.2074 -0.2201
   70loPI    C3 1107  16.618  17.586  10.701 -0.3141 -0.1503 -0.1629
   70loPI   PO4 1108  16.340  17.339  10.278 -0.0018 -0.2718  0.0719
   70loPI   GL1 1109  16.081  17.200   9.884 -0.4486  0.1724 -0.0984
   70loPI   GL2 1110  16.247  17.360   9.723 -0.4109 -0.2307  0.0612
   70loPI   C1A 1111  15.754  17.249   9.615 -0.3839  0.1219 -0.0486
   70loPI   C2A 1112  15.794  17.373   9.199  0.0814 -0.0128 -0.0782
   70loPI   C3A 1113  15.814  17.321   8.778  0.3950 -0.1720 -0.2515
   70loPI   C4A 1114  15.893  16.908   8.545 -0.2832 -0.0300 -0.2444
   70loPI   C5A 1115  16.138  16.753   8.260  0.0923 -0.2033 -0.2834
   70loPI   C6A 1116  16.254  16.703   7.881  0.0222 -0.1603  0.3466
   70loPI   C1B 1117  16.331  17.362   9.352 -0.1128 -0.0294 -0.0805
   70loPI   C2B 1118  16.222  17.551   8.997 -0.1296 -0.1490 -0.3868
   70loPI   C3B 1119  16.300  17.756   8.570  0.0682 -0.2261 -0.0883
   70loPI   C4B 1120  16.554  17.980   8.417  0.2890  0.3172  0.2673
   71loPI    C1 1121  15.113  14.231  10.460 -0.0689  0.1062 -0.0136
   71loPI    C2 1122  15.177  14.580  10.644  0.1727  0.1245 -0.1285
   71loPI    C3 1123  15.468  14.307  10.628 -0.0587 -0.1407  0.0809
   71loPI   PO4 1124  15.027  14.247  10.214 -0.3073 -0.2068  0.0338
   71loPI   GL1 1125  14.822  14.062   9.856 -0.4484  0.2330 -0.2140
   71loPI   GL2 1126  14.857  13.746   9.965 -0.1829  0.0759 -0.0462
   71loPI   C1A 1127  14.978  13.826   9.523  0.4756 -0.0421  0.1110
   71loPI   C2A 1128  15.094  13.806   9.066 -0.0446  0.1057 -0.0115
   71loPI   C3A 1129  15.019  13.922   8.533 -0.2013 -0.1062  0.0623
   71loPI   C4A 1130  14.691  13.840   8.225 -0.1105 -0.2406  0.0500
   71loPI   C5A 1131  14.484  13.466   7.981 -0.2595 -0.1704  0.2712
   71loPI   C6A 1132  14.530  13.022   7.768  0.3563  0.1321 -0.1116
   71loPI   C1B 1133  14.787  13.393   9.644  0.1480  0.0625 -0.0310
   71loPI   C2B 1134  15.019  13.363   9.285 -0.1969 -0.1498  0.0726
   71loPI   C3B 1135  15.140  13.276   8.865  0.1854 -0.3557  0.1438
   71loPI   C4B 1136  15.443  13.413   8.595 -0.0659  0.1193  0.2152
   72loPI    C1 1137   0.269   4.068  10.878 -0.0148 -0.0167 -0.1636
   72loPI    C2 1138   0.466   4.362  10.692  0.3623 -0.0309  0.1981
   72loPI    C3 1139   0.260   4.440  11.026 -0.0702 -0.0610 -0.0541
   72loPI   PO4 1140   0.337   3.876  10.674 -0.1261  0.1891 -0.2457
   72loPI   GL1 1141   0.689   3.814  10.241  0.0748 -0.3837 -0.2627
   72loPI   GL2 1142   1.055   3.782  10.371  0.3194  0.0884  0.1421
   72loPI   C1A 1143   0.722   3.643   9.895  0.0487 -0.1754 -0.0540
   72loPI   C2A 1144   0.921   3.598   9.533 -0.1017 -0.2236 -0.2971
   72loPI   C3A 1145   1.350   3.827   9.425 -0.1586  0.0605  0.2648
   72loPI   C4A 1146   1.436   3.936   9.162  0.0687  0.2225  0.0436
   72loPI   C5A 1147   1.386   3.875   8.674 -0.0723 -0.1161  0.1131
   72loPI   C6A 1148   0.942   3.678   8.519  0.0727  0.4644  0.1333
   72loPI   C1B 1149   1.200   3.806   9.922 -0.0955  0.0626 -0.0872
   72loPI   C2B 1150   1.119   4.150   9.694  0.1326 -0.1941 -0.0906
   72loPI   C3B 1151   1.168   4.306   9.332 -0.1957  0.2362  0.0633
   72loPI   C4B 1152   1.074   4.637   8.882  0.0090 -0.0838  0.0074
   73loPI    C1 1153   3.094   0.954  10.025  0.0379  0.4374  0.2214
   73loPI    C2 1154   3.198   0.840  10.394  0.1320 -0.4752 -0.0617
   73loPI    C3 1155   3.480   0.926  10.124  0.0674 -0.0786 -0.0098
   73loPI   PO4 1156   2.847   1.082  10.115  0.2431 -0.0820 -0.1968
   73loPI   GL1 1157   2.667   1.299   9.844  0.1639  0.0021 -0.2956
   73loPI   GL2 1158   2.778   1.628   9.915  0.1327 -0.0021 -0.0954
   73loPI   C1A 1159   2.392   1.223   9.468 -0.1586 -0.2199  0.2298
   73loPI   C2A 1160   2.117   1.483   9.198 -0.1363 -0.1700 -0.3586
   73loPI   C3A 1161   2.214   1.283   8.755 -0.0989  0.1682 -0.1111
   73loPI   C4A 1162   2.057   1.305   8.442  0.1872  0.0283  0.1907
   73loPI   C5A 1163   1.823   1.367   8.147  0.0847  0.0129 -0.0002
   73loPI   C6A 1164   1.784   1.533   7.894  0.0473 -0.1699  0.0246
   73loPI   C1B 1165   2.832   1.561   9.419 -0.0745 -0.4295 -0.2688
   73loPI   C2B 1166   2.617   1.546   9.038  0.0944 -0.0476  0.3219
   73loPI   C3B 1167   2.585   1.555   8.520 -0.2303  0.0103  0.0816
   73loPI   C4B 1168   2.421   1.764   8.206 -0.0014  0.0255 -0.1336
   74loPI    C1 1169   6.281   2.687  10.069 -0.0989 -0.0931 -0.0306
   74loPI    C2 1170   6.170   2.369   9.853 -0.0818  0.0057 -0.1864
   74loPI    C3 1171   6.536   2.384  10.015 -0.0603 -0.0260 -0.2317
   74loPI   PO4 1172   6.167   2.822  10.003  0.0020  0.2782 -0.1204
   74loPI   GL1 1173   5.912   2.993   9.631  0.1694  0.0612  0.1500
   74loPI   GL2 1174   5.982   2.735   9.551 -0.1117 -0.1232 -0.2517
   74loPI   C1A 1175   5.654   3.202   9.334  0.2784  0.1057  0.0965
   74loPI   C2A 1176   5.522   3.628   9.150  0.0335 -0.2187 -0.0471
   74loPI   C3A 1177   5.335   3.786   8.737 -0.1244  0.0806 -0.0591
   74loPI   C4A 1178   4.870   3.899   8.553 -0.2826  0.0786 -0.2611
   74loPI   C5A 1179   4.639   3.852   8.133 -0.0100  0.1469 -0.0569
   74loPI   C6A 1180   4.352   4.280   8.132  0.1308  0.1948  0.1165
   74loPI   C1B 1181   5.950   2.611   9.098 -0.0112 -0.2512 -0.1794
   74loPI   C2B 1182   5.803   2.645   8.743  0.1020 -0.0513  0.1704
   74loPI   C3B 1183   5.648   2.962   8.407 -0.1479 -0.2513  0.1104
   74loPI   C4B 1184   5.767   3.354   8.319  0.5326 -0.2571 -0.0906
   75loPI    C1 1185   5.574  10.354  10.269  0.0766  0.0580 -0.0466
   75loPI    C2 1186   5.288  10.300  10.544  0.1833 -0.1276  0.0297
   75loPI    C3 1187   5.586  10.559  10.612 -0.0631  0.2045 -0.1277
   75loPI   PO4 1188   5.425  10.388  10.020  0.0974 -0.2856  0.2709
   75loPI   GL1 1189   5.000  10.369   9.819  0.0295  0.2892 -0.1989
   75loPI   GL2 1190   4.672  10.557   9.861 -0.0243 -0.1320 -0.0847
   75loPI   C1A 1191   4.967  10.248   9.427  0.0408  0.1823  0.3356
   75loPI   C2A 1192   4.937  10.049   9.031  0.4149  0.0728 -0.1606
   75loPI   C3A 1193   5.005  10.013   8.576 -0.6586 -0.1382  0.2582
   75loPI   C4A 1194   4.757  10.067   8.247  0.1561 -0.2314 -0.1463
   75loPI   C5A 1195   4.586  10.351   8.017  0.1466  0.2895 -0.0633
   75loPI   C6A 1196   4.187  10.629   7.916 -0.1743 -0.1295  0.0424
   75loPI   C1B 1197   4.550  10.471   9.513  0.1560  0.0712  0.3493
   75loPI   C2B 1198   4.622  10.461   9.076  0.2418  0.1104  0.3294
   75loPI   C3B 1199   4.468  10.269   8.715 -0.4206  0.3371  0.1544
   75loPI   C4B 1200   4.189  10.324   8.341 -0.2113 -0.1390  0.1511
   76loPI    C1 1201   7.421   2.897  10.025 -0.1804 -0.0413  0.0724
   76loPI    C2 1202   7.580   3.172  10.268  0.2701 -0.1170 -0.1261
   76loPI    C3 1203   7.441   2.829  10.419  0.0634  0.0531  0.0784
   76loPI   PO4 1204   7.606   2.888   9.811 -0.0314  0.0052 -0.0058
   76loPI   GL1 1205   7.448   2.838   9.443  0.2553 -0.0823 -0.0809
   76loPI   GL2 1206   7.416   2.649   9.209  0.0242 -0.2428  0.0421
   76loPI   C1A 1207   7.181   3.115   9.180 -0.0706  0.0076  0.2192
   76loPI   C2A 1208   7.207   3.221   8.634 -0.1010 -0.0827 -0.0212
   76loPI   C3A 1209   6.853   3.226   8.384  0.1318  0.1603  0.1857
   76loPI   C4A 1210   6.546   2.904   8.090 -0.2393  0.2987  0.0072
   76loPI   C5A 1211   6.448   2.464   7.996  0.0670  0.0669 -0.1116
   76loPI   C6A 1212   6.560   2.094   8.082 -0.2900 -0.1053  0.3241
   76loPI   C1B 1213   7.311   2.786   8.834  0.3134  0.0833 -0.4348
   76loPI   C2B 1214   6.973   2.781   8.674  0.2131  0.2335  0.0908
   76loPI   C3B 1215   6.933   2.499   8.241 -0.0684  0.1210 -0.0114
   76loPI   C4B 1216   7.099   2.352   7.912  0.0211 -0.0287 -0.0327
   77loPI    C1 1217   5.044  11.659  10.144 -0.0009  0.0718 -0.1802
   77loPI    C2 1218   4.768  11.505   9.899  0.0345  0.0769 -0.2233
   77loPI    C3 1219   4.689  11.543  10.289  0.0897 -0.2157 -0.1817
   77loPI   PO4 1220   5.262  11.481  10.000 -0.1021  0.2009 -0.0549
   77loPI   GL1 1221   5.173  11.318   9.578 -0.2826  0.0721 -0.3782
   77loPI   GL2 1222   5.095  10.976   9.847  0.0715 -0.0266 -0.0215
   77loPI   C1A 1223   5.041  11.201   9.138  0.0295  0.0881  0.2175
   77loPI   C2A 1224   4.784  11.145   8.785  0.0004 -0.1364 -0.1670
   77loPI   C3A 1225   4.594  11.230   8.413 -0.4559  0.3181 -0.3295
   77loPI   C4A 1226   4.323  11.292   8.083  0.0427 -0.2597 -0.1281
   77loPI   C5A 1227   4.579  11.257   7.749  0.1770 -0.1198 -0.1824
   77loPI   C6A 1228   4.689  11.280   7.316  0.2664  0.0940 -0.3406
   77loPI   C1B 1229   4.846  10.892   9.433  0.2422 -0.5319  0.0360
   77loPI   C2B 1230   4.522  10.979   9.159 -0.1108  0.0275  0.1716
   77loPI   C3B 1231   4.364  10.820   8.711  0.0381 -0.1143 -0.1449
   77loPI   C4B 1232   4.553  10.727   8.345  0.2020  0.0377  0.2353
   78loPI    C1 1233   8.325  10.293  10.354  0.2802 -0.0040 -0.1852
   78loPI    C2 1234   8.616  10.302  10.628 -0.0788 -0.1786  0.2148
   78loPI    C3 1235   8.320  10.570  10.643 -0.0290 -0.1026 -0.0917
   78loPI   PO4 1236   8.290  10.331  10.063  0.1543 -0.2582  0.0099
   78loPI   GL1 1237   8.499  10.254   9.716  0.1251 -0.1579 -0.1198
   78loPI   GL2 1238   8.660   9.956   9.561  0.0381  0.3432  0.1205
   78loPI   C1A 1239   8.243  10.154   9.306  0.0258  0.0472  0.2839
   78loPI   C2A 1240   8.095   9.988   8.961 -0.1056  0.0764  0.1002
   78loPI   C3A 1241   8.074   9.998   8.569 -0.1420 -0.0595 -0.0848
   78loPI   C4A 1242   7.938  10.388   8.226  0.3408 -0.0952  0.2663
   78loPI   C5A 1243   7.863  10.458   7.866 -0.3694  0.0130 -0.2235
   78loPI   C6A 1244   7.564  10.799   7.689 -0.1358  0.0442  0.0275
   78loPI   C1B 1245   8.769  10.155   9.271  0.0923  0.1366  0.0700
   78loPI   C2B 1246   8.570  10.058   8.832 -0.1029 -0.0991 -0.1218
   78loPI   C3B 1247   8.525  10.170   8.405  0.0997  0.1299  0.2391
   78loPI   C4B 1248   8.389  10.471   8.048 -0.3654 -0.1876 -0.0863
   79loPI    C1 1249   1.755  15.323   9.994  0.3215 -0.3233  0.1860
   79loPI    C2 1250   1.798  15.350  10.390  0.0022  0.0272  0.2021
   79loPI    C3 1251   1.481  15.161  10.236  0.2510 -0.3232  0.1068
   79loPI   PO4 1252   1.975  15.382   9.888 -0.1269 -0.1697 -0.0051
   79loPI   GL1 1253   2.118  15.011   9.647  0.0484 -0.1132 -0.1818
   79loPI   GL2 1254   1.782  15.029   9.416 -0.0953  0.1403 -0.0110
   79loPI   C1A 1255   2.525  14.962   9.406  0.3365 -0.1363 -0.1960
   79loPI   C2A 1256   2.492  15.216   8.948  0.2652 -0.0042  0.0498
   79loPI   C3A 1257   2.694  15.146   8.558 -0.2343 -0.1035  0.1843
   79loPI   C4A 1258   2.471  14.863   8.202 -0.3583 -0.4286  0.4269
   79loPI   C5A 1259   2.201  14.554   8.138 -0.0775 -0.0728  0.2002
   79loPI   C6A 1260   1.776  14.511   8.285  0.1816 -0.0383  0.5982
   79loPI   C1B 1261   2.037  15.038   9.081 -0.2861 -0.1982 -0.2337
   79loPI   C2B 1262   2.086  15.316   8.702  0.3667  0.0187 -0.1017
   79loPI   C3B 1263   1.823  15.527   8.385  0.0976  0.1775 -0.0964
   79loPI   C4B 1264   1.642  15.932   8.128 -0.3240  0.0673 -0.0217
   80loPI    C1 1265   9.659  18.020   9.647 -0.0100  0.0812  0.2626
   80loPI    C2 1266   9.380  17.800   9.831 -0.0204  0.1010  0.2704
   80loPI    C3 1267   9.679  17.961  10.042 -0.0974  0.2215  0.2885
   80loPI   PO4 1268   9.578  18.183   9.542 -0.1302 -0.3007  0.2269
   80loPI   GL1 1269   9.611  18.192   9.022 -0.0345 -0.2827  0.0762
   80loPI   GL2 1270   9.548  17.899   9.095 -0.4141  0.3398  0.0136
   80loPI   C1A 1271   9.725  18.318   8.640 -0.0807 -0.1803  0.1557
   80loPI   C2A 1272  10.105  18.390   8.356 -0.0865  0.2829 -0.0656
   80loPI   C3A 1273  10.340  18.528   7.940 -0.1427 -0.1351  0.0951
   80loPI   C4A 1274  10.493  18.436   7.611  0.2754  0.5896  0.1531
   80loPI   C5A 1275  10.621  18.212   7.210  0.1587 -0.3655  0.1447
   80loPI   C6A 1276  10.409  17.957   7.035 -0.1800  0.1629 -0.0205
   80loPI   C1B 1277   9.640  17.842   8.654  0.1511  0.0582  0.0015
   80loPI   C2B 1278   9.742  17.995   8.254  0.2029  0.2203  0.2939
   80loPI   C3B 1279   9.819  18.353   7.952 -0.1429  0.0073 -0.1160
   80loPI   C4B 1280   9.873  18.786   7.826  0.2692 -0.2460  0.2388
   81loPI    C1 1281   0.141  16.361  10.499  0.1395 -0.2215  0.0843
   81loPI    C2 1282  -0.168  16.362  10.752  0.0145 -0.2149 -0.0674
   81loPI    C3 1283   0.199  16.445  10.885 -0.1311  0.3451  0.0115
   81loPI   PO4 1284   0.044  16.542  10.341  0.0417 -0.0217  0.2327
   81loPI   GL1 1285  -0.015  16.858  10.052  0.1875 -0.1410  0.0750
   81loPI   GL2 1286  -0.304  16.632  10.038 -0.2273  0.2323  0.0665
   81loPI   C1A 1287   0.036  16.579   9.634  0.1508 -0.1217 -0.0413
   81loPI   C2A 1288   0.036  16.635   9.183  0.0941  0.0004  0.4240
   81loPI   C3A 1289  -0.144  16.622   8.798 -0.1824  0.2098 -0.0712
   81loPI   C4A 1290  -0.051  16.552   8.514  0.0875 -0.0607  0.0020
   81loPI   C5A 1291  -0.003  16.637   8.118  0.3069  0.0224 -0.0704
   81loPI   C6A 1292   0.363  16.659   7.859 -0.0043  0.1884  0.0289
   81loPI   C1B 1293  -0.505  16.211   9.899 -0.0519 -0.1758  0.3783
   81loPI   C2B 1294  -0.683  16.162   9.399  0.0835 -0.1710 -0.2100
   81loPI   C3B 1295  -0.819  16.081   9.032 -0.1540 -0.1077  0.1785
   81loPI   C4B 1296  -0.811  16.062   8.526 -0.1682 -0.3707 -0.1955
   82loPI    C1 1297  15.829   9.692  10.153  0.3900 -0.1439 -0.1951
   82loPI    C2 1298  16.006   9.514  10.464  0.1713 -0.0244  0.0011
   82loPI    C3 1299  15.714   9.326  10.266  0.0850  0.0301  0.0756
   82loPI   PO4 1300  16.137   9.873  10.129 -0.0230 -0.0434 -0.0356
   82loPI   GL1 1301  16.120   9.994   9.734 -0.3396  0.2674  0.1149
   82loPI   GL2 1302  16.424   9.811   9.697 -0.3179 -0.1576  0.1794
   82loPI   C1A 1303  15.996   9.644   9.418  0.0385 -0.0531 -0.2739
   82loPI   C2A 1304  15.930   9.411   9.159 -0.0652 -0.1574  0.0768
   82loPI   C3A 1305  15.969   9.390   8.745 -0.0465  0.2454  0.1492
   82loPI   C4A 1306  16.183   9.465   8.383 -0.2875  0.0352 -0.0182
   82loPI   C5A 1307  16.389   9.326   7.929  0.0264  0.1322  0.0414
   82loPI   C6A 1308  16.273   9.603   7.509  0.1099 -0.0809  0.1138
   82loPI   C1B 1309  16.415  10.005   9.300  0.0002  0.0106  0.0297
   82loPI   C2B 1310  16.631  10.125   8.938  0.0376  0.0663 -0.0557
   82loPI   C3B 1311  16.865  10.310   8.779 -0.1949  0.0096 -0.1165
   82loPI   C4B 1312  17.032  10.726   8.550 -0.0344  0.1055  0.5313
   83loPI    C1 1313  17.755   8.849  10.764  0.1662  0.2032  0.0935
   83loPI    C2 1314  17.848   8.734  11.136 -0.0115 -0.1167  0.0431
   83loPI    C3 1315  17.468   8.724  11.013  0.0491 -0.0332 -0.1555
   83loPI   PO4 1316  17.943   8.667  10.573  0.3394 -0.0327  0.0537
   83loPI   GL1 1317  17.968   8.698  10.116 -0.0973 -0.1229 -0.0284
   83loPI   GL2 1318  18.000   8.909   9.873 -0.4091  0.3989 -0.1741
   83loPI   C1A 1319  18.366   8.530   9.836 -0.1973  0.1123 -0.1362
   83loPI   C2A 1320  18.788   8.500   9.535 -0.0168  0.0862  0.2385
   83loPI   C3A 1321  18.823   8.793   9.279 -0.1221  0.2380 -0.4253
   83loPI   C4A 1322  18.655   8.965   8.983 -0.1718  0.1484  0.1692
   83loPI   C5A 1323  18.551   8.784   8.624 -0.0679 -0.0827 -0.2300
   83loPI   C6A 1324  18.258   8.675   8.340 -0.0282  0.1032 -0.0571
   83loPI   C1B 1325  17.766   9.067   9.407 -0.2087  0.0549 -0.0080
   83loPI   C2B 1326  17.636   8.908   8.983 -0.1646  0.1502 -0.1292
   83loPI   C3B 1327  17.194   9.014   8.897  0.0461  0.0219  0.1620
   83loPI   C4B 1328  16.793   8.818   8.851  0.2961  0.0057 -0.0403
   84loPI    C1 1329   9.874   8.314  10.482  0.0194 -0.0722 -0.1694
   84loPI    C2 1330   9.586   8.137  10.695  0.1678 -0.0225  0.0773
   84loPI    C3 1331   9.562   8.527  10.613  0.1041 -0.0444 -0.0110
   84loPI   PO4 1332   9.982   8.107  10.286 -0.1110  0.0436  0.1455
   84loPI   GL1 1333  10.115   7.928   9.875 -0.1834  0.1447  0.2544
   84loPI   GL2 1334  10.327   8.210   9.799 -0.0009 -0.0378  0.0841
   84loPI   C1A 1335   9.987   7.851   9.472 -0.2503 -0.0094 -0.0257
   84loPI   C2A 1336  10.040   7.883   9.032  0.1458  0.3146 -0.2894
   84loPI   C3A 1337   9.859   7.797   8.623 -0.1556 -0.1055  0.3859
   84loPI   C4A 1338   9.917   7.840   8.140 -0.1130 -0.0801  0.2059
   84loPI   C5A 1339   9.684   8.101   7.878  0.0478  0.0566 -0.4273
   84loPI   C6A 1340   9.412   8.586   7.929 -0.1943 -0.0894  0.5861
   84loPI   C1B 1341  10.255   8.264   9.303  0.3352  0.0959  0.0174
   84loPI   C2B 1342  10.285   8.608   9.020  0.3576  0.6709 -0.0586
   84loPI   C3B 1343  10.057   8.862   8.729  0.0253  0.3420 -0.3577
   84loPI   C4B 1344   9.860   8.968   8.357 -0.1810 -0.1526 -0.1692
   85loPI    C1 1345  14.207   1.029  10.605  0.1876  0.2222  0.0278
   85loPI    C2 1346  14.093   1.304  10.872 -0.0703  0.0238  0.1269
   85loPI    C3 1347  13.936   0.937  10.885  0.1195 -0.0691 -0.1303
   85loPI   PO4 1348  14.185   1.156  10.378  0.0313  0.0532 -0.3483
   85loPI   GL1 1349  14.077   1.338   9.937  0.2582  0.0015 -0.1812
   85loPI   GL2 1350  14.388   1.493  10.037  0.0008  0.1297  0.2334
   85loPI   C1A 1351  13.993   1.093   9.651 -0.0345 -0.0393 -0.0710
   85loPI   C2A 1352  13.953   0.985   9.223 -0.2870  0.1501 -0.0433
   85loPI   C3A 1353  14.064   1.059   8.860 -0.5253 -0.0615  0.1018
   85loPI   C4A 1354  14.285   1.432   8.624 -0.0349  0.0454 -0.4808
   85loPI   C5A 1355  14.731   1.545   8.548  0.0697 -0.0780 -0.3512
   85loPI   C6A 1356  15.048   1.660   8.335 -0.1189 -0.1211  0.3552
   85loPI   C1B 1357  14.564   1.581   9.569  0.2189  0.2172 -0.5163
   85loPI   C2B 1358  14.388   2.019   9.421  0.0945 -0.0758 -0.2980
   85loPI   C3B 1359  14.337   2.410   9.214  0.1833 -0.0367 -0.0584
   85loPI   C4B 1360  14.111   2.784   9.390  0.3986  0.0391  0.4260
   86loPI    C1 1361   2.452  17.163  10.288  0.1555 -0.0067 -0.0409
   86loPI    C2 1362   2.422  16.906  10.594 -0.0647 -0.2708 -0.2792
   86loPI    C3 1363   2.439  17.299  10.664 -0.4293 -0.3097  0.0604
   86loPI   PO4 1364   2.246  17.049  10.152  0.3484  0.1343 -0.1309
   86loPI   GL1 1365   2.265  17.053   9.679  0.3461 -0.0567 -0.0162
   86loPI   GL2 1366   2.407  17.085   9.434 -0.2961 -0.1458  0.0960
   86loPI   C1A 1367   1.957  17.321   9.304  0.0413  0.1674 -0.1023
   86loPI   C2A 1368   1.919  17.348   8.783  0.2800 -0.4883  0.0007
   86loPI   C3A 1369   1.912  17.388   8.405 -0.1405  0.0497 -0.0213
   86loPI   C4A 1370   1.911  17.368   8.025 -0.0011 -0.1608 -0.0338
   86loPI   C5A 1371   1.635  17.106   7.752  0.0566  0.0152 -0.2869
   86loPI   C6A 1372   1.832  16.805   7.677  0.0164 -0.1471 -0.0987
   86loPI   C1B 1373   2.386  17.114   8.951 -0.1577 -0.1020  0.0879
   86loPI   C2B 1374   2.160  16.950   8.579 -0.2901 -0.2780 -0.1756
   86loPI   C3B 1375   2.006  16.893   8.168  0.1576 -0.1147 -0.1777
   86loPI   C4B 1376   1.525  16.694   8.073 -0.0712  0.1430 -0.0134
   87loPI    C1 1377   6.454  17.424  10.372  0.0196  0.1927  0.0480
   87loPI    C2 1378   6.077  17.437  10.507  0.0758 -0.2547  0.2661
   87loPI    C3 1379   6.344  17.708  10.632 -0.1953  0.1385  0.0181
   87loPI   PO4 1380   6.438  17.388  10.028 -0.2208 -0.0707 -0.0290
   87loPI   GL1 1381   6.479  17.320   9.547 -0.3250  0.2825  0.1434
   87loPI   GL2 1382   6.196  17.465   9.608 -0.0092 -0.0113  0.3243
   87loPI   C1A 1383   6.488  17.207   9.120 -0.2547 -0.2831  0.1852
   87loPI   C2A 1384   6.332  17.182   8.790  0.0767  0.1856  0.0721
   87loPI   C3A 1385   6.204  17.277   8.357  0.1097  0.1360  0.0307
   87loPI   C4A 1386   6.116  16.998   8.075  0.0731 -0.0468  0.0473
   87loPI   C5A 1387   6.034  16.908   7.582  0.0780  0.1168 -0.0112
   87loPI   C6A 1388   5.893  17.043   7.202  0.0802 -0.1754  0.6624
   87loPI   C1B 1389   6.002  17.366   9.206 -0.2075 -0.1571  0.0879
   87loPI   C2B 1390   5.866  17.447   8.883 -0.1673 -0.1429  0.0503
   87loPI   C3B 1391   5.854  17.688   8.459  0.2780  0.2817 -0.1839
   87loPI   C4B 1392   5.935  17.907   8.172  0.2902 -0.1200  0.3001
   88loPI    C1 1393  17.092   0.188  10.841 -0.0295 -0.0453 -0.1391
   88loPI    C2 1394  16.733   0.347  10.767 -0.0759 -0.0988 -0.0327
   88loPI    C3 1395  16.953   0.483  11.072 -0.1428 -0.2798  0.0977
   88loPI   PO4 1396  17.291   0.021  10.531 -0.3376  0.1635  0.2257
   88loPI   GL1 1397  17.151  -0.335  10.161  0.1810  0.2096 -0.2896
   88loPI   GL2 1398  17.353  -0.174  10.105  0.2931 -0.0895  0.3452
   88loPI   C1A 1399  16.862  -0.122   9.899  0.0481 -0.0372 -0.3435
   88loPI   C2A 1400  16.855  -0.146   9.413 -0.0002  0.2274 -0.0837
   88loPI   C3A 1401  16.751   0.097   9.058  0.2772  0.0532  0.4575
   88loPI   C4A 1402  16.794   0.221   8.551 -0.0273 -0.1017  0.2508
   88loPI   C5A 1403  16.366   0.173   8.426  0.0240  0.1492  0.1498
   88loPI   C6A 1404  15.938   0.060   8.540 -0.1279 -0.0214 -0.1571
   88loPI   C1B 1405  17.259  -0.290   9.672 -0.0789 -0.4081  0.0541
   88loPI   C2B 1406  17.366  -0.362   9.277  0.1412  0.1871  0.1771
   88loPI   C3B 1407  17.125  -0.308   8.957  0.1293  0.0040 -0.0613
   88loPI   C4B 1408  16.648  -0.360   8.840  0.1175  0.2576  0.0487
   89loPI    C1 1409  12.749  11.029  10.547  0.0762 -0.0479 -0.1019
   89loPI    C2 1410  12.921  11.367  10.419  0.0913 -0.0762 -0.1569
   89loPI    C3 1411  12.761  11.350  10.786  0.0789 -0.0055 -0.1587
   89loPI   PO4 1412  12.695  10.943  10.278  0.0991  0.0477 -0.3244
   89loPI   GL1 1413  12.492  10.961   9.958  0.4572 -0.1277  0.1092
   89loPI   GL2 1414  12.296  10.695   9.929  0.1623  0.1336  0.3574
   89loPI   C1A 1415  12.756  10.946   9.569  0.0958 -0.2628 -0.4131
   89loPI   C2A 1416  12.939  10.793   9.253 -0.1330  0.1347  0.1079
   89loPI   C3A 1417  13.160  10.441   8.922 -0.0614 -0.1553  0.1997
   89loPI   C4A 1418  12.880  10.172   8.768  0.3485  0.2675  0.1993
   89loPI   C5A 1419  12.681   9.797   8.563  0.0375 -0.3724  0.1074
   89loPI   C6A 1420  12.749   9.798   8.106 -0.0762 -0.1253 -0.0497
   89loPI   C1B 1421  12.268  10.294   9.874  0.0157  0.0316 -0.0165
   89loPI   C2B 1422  12.505   9.962   9.657 -0.1467 -0.0224 -0.1270
   89loPI   C3B 1423  12.813   9.678   9.470  0.0138  0.0754  0.0024
   89loPI   C4B 1424  12.794   9.265   9.656 -0.1350  0.0108  0.0413
   90loPI    C1 1425   6.681   1.899   9.971  0.1287 -0.0713  0.0909
   90loPI    C2 1426   6.792   2.115   9.653  0.1618  0.0816  0.2055
   90loPI    C3 1427   7.028   2.099   9.976  0.0256  0.1068  0.3069
   90loPI   PO4 1428   6.445   1.758   9.854  0.4001 -0.0054  0.4047
   90loPI   GL1 1429   6.507   1.539   9.345  0.0666  0.3244 -0.0497
   90loPI   GL2 1430   6.776   1.642   9.449 -0.0478 -0.1354 -0.0590
   90loPI   C1A 1431   6.168   1.635   9.056  0.2964 -0.0723 -0.0594
   90loPI   C2A 1432   5.872   1.759   8.715 -0.0921  0.6113 -0.0241
   90loPI   C3A 1433   5.833   1.873   8.272 -0.0570 -0.0419  0.1040
   90loPI   C4A 1434   5.986   2.143   8.103 -0.1189  0.0507  0.1273
   90loPI   C5A 1435   6.021   2.574   8.260  0.0086 -0.0902 -0.5998
   90loPI   C6A 1436   6.027   2.994   8.006 -0.3255 -0.2069  0.4304
   90loPI   C1B 1437   6.706   1.901   9.087  0.1343 -0.4887 -0.0472
   90loPI   C2B 1438   6.743   2.002   8.708  0.1078 -0.0182 -0.1290
   90loPI   C3B 1439   6.560   2.350   8.501  0.0024 -0.0251  0.1165
   90loPI   C4B 1440   6.441   2.752   8.561 -0.1312  0.4513  0.0708
   91loPI    C1 1441   6.390   5.574  10.458  0.4705 -0.2199 -0.0659
   91loPI    C2 1442   6.101   5.303  10.408  0.3003 -0.0261 -0.1460
   91loPI    C3 1443   6.298   5.323  10.755  0.0450  0.0046 -0.0004
   91loPI   PO4 1444   6.547   5.603  10.223  0.1192 -0.1741 -0.2986
   91loPI   GL1 1445   6.456   5.716   9.832 -0.0136 -0.1372 -0.0338
   91loPI   GL2 1446   6.806   5.651   9.711  0.2479  0.1297 -0.5814
   91loPI   C1A 1447   6.496   5.838   9.347 -0.2124  0.1523  0.2193
   91loPI   C2A 1448   6.268   6.193   9.114  0.1106  0.0227  0.0287
   91loPI   C3A 1449   6.225   6.595   8.926 -0.1906 -0.2319 -0.2733
   91loPI   C4A 1450   6.316   6.626   8.572 -0.3095 -0.0883 -0.3078
   91loPI   C5A 1451   6.456   6.695   8.214 -0.0570  0.0465 -0.0132
   91loPI   C6A 1452   6.676   6.318   7.953 -0.1415 -0.2469  0.0237
   91loPI   C1B 1453   6.822   5.450   9.268  0.2246 -0.0294  0.1854
   91loPI   C2B 1454   6.829   5.415   8.785 -0.2615 -0.3416  0.3526
   91loPI   C3B 1455   6.777   5.330   8.375  0.2112  0.0710 -0.0159
   91loPI   C4B 1456   6.865   5.034   8.041  0.0071 -0.0024  0.0425
   92loPI    C1 1457  12.444  11.808  10.045  0.4172 -0.2341 -0.1456
   92loPI    C2 1458  12.468  12.036   9.717 -0.1341 -0.0228 -0.0501
   92loPI    C3 1459  12.584  12.182  10.070 -0.2692  0.0298 -0.0270
   92loPI   PO4 1460  12.498  11.535   9.922  0.0628 -0.0970 -0.1425
   92loPI   GL1 1461  12.576  11.351   9.460  0.2509  0.0473  0.2755
   92loPI   GL2 1462  12.851  11.468   9.547  0.2061  0.0648 -0.0472
   92loPI   C1A 1463  12.640  11.147   9.059  0.1173 -0.0430  0.4881
   92loPI   C2A 1464  12.693  11.228   8.631 -0.1420 -0.0489 -0.2428
   92loPI   C3A 1465  12.747  11.522   8.260 -0.0425  0.3222  0.2643
   92loPI   C4A 1466  13.007  11.710   8.094 -0.4236 -0.1453 -0.1011
   92loPI   C5A 1467  13.186  11.961   7.821 -0.1559  0.1177  0.2642
   92loPI   C6A 1468  13.301  11.972   7.449 -0.1691 -0.0761 -0.0881
   92loPI   C1B 1469  12.973  11.511   8.999  0.0924 -0.1421  0.1969
   92loPI   C2B 1470  12.931  11.865   8.649  0.0456 -0.1676  0.2117
   92loPI   C3B 1471  13.102  12.159   8.316  0.3410 -0.2327 -0.0988
   92loPI   C4B 1472  13.482  12.341   8.027 -0.0493  0.1064 -0.1965
   93loPI    C1 1473   5.986  12.425  10.143 -0.1220 -0.1235 -0.0617
   93loPI    C2 1474   6.343  12.247  10.173  0.0251  0.0903 -0.4638
   93loPI    C3 1475   6.242  12.537  10.430  0.0365 -0.1370 -0.1967
   93loPI   PO4 1476   5.881  12.307   9.852  0.0702  0.0350  0.3706
   93loPI   GL1 1477   5.881  11.987   9.454  0.0455  0.0537 -0.2765
   93loPI   GL2 1478   6.080  11.650   9.459  0.0595  0.0949  0.1217
   93loPI   C1A 1479   5.590  12.145   9.201 -0.0110 -0.1467 -0.0096
   93loPI   C2A 1480   5.466  12.067   8.780  0.0771 -0.0807 -0.0968
   93loPI   C3A 1481   5.392  11.827   8.426  0.0436 -0.1560 -0.0675
   93loPI   C4A 1482   5.276  11.859   7.974 -0.0865  0.0667  0.2125
   93loPI   C5A 1483   5.119  12.043   7.644  0.0958  0.2260  0.0390
   93loPI   C6A 1484   4.972  11.849   7.254  0.0962 -0.0253 -0.0446
   93loPI   C1B 1485   5.728  11.464   9.450  0.0934  0.1122  0.0432
   93loPI   C2B 1486   5.537  11.216   9.159 -0.1132 -0.1256  0.0763
   93loPI   C3B 1487   5.356  11.006   8.876  0.1080 -0.2205  0.1410
   93loPI   C4B 1488   5.307  10.976   8.403 -0.1079  0.0870  0.1339
   94loPI    C1 1489  16.266   1.342  10.654 -0.0643 -0.1334 -0.0182
   94loPI    C2 1490  15.924   1.510  10.775 -0.0407 -0.0888 -0.0137
   94loPI    C3 1491  16.239   1.740  10.688  0.0189 -0.1356  0.0775
   94loPI   PO4 1492  16.174   1.044  10.471 -0.0303  0.1212  0.0293
   94loPI   GL1 1493  15.869   1.058  10.026 -0.1986 -0.0549 -0.2487
   94loPI   GL2 1494  15.887   0.745   9.852 -0.0686  0.1077  0.1777
   94loPI   C1A 1495  15.817   1.343   9.763 -0.0786  0.2672 -0.0745
   94loPI   C2A 1496  15.827   1.669   9.473  0.2892  0.1927 -0.0734
   94loPI   C3A 1497  15.916   1.856   9.065 -0.2321  0.2445  0.0062
   94loPI   C4A 1498  16.112   1.839   8.642  0.0595 -0.2182 -0.2443
   94loPI   C5A 1499  16.262   2.005   8.298 -0.0790  0.0101  0.0811
   94loPI   C6A 1500  16.239   2.399   8.059  0.2861  0.2254 -0.0665
   94loPI   C1B 1501  15.706   0.941   9.496 -0.0933 -0.0229  0.0563
   94loPI   C2B 1502  15.727   1.243   9.191  0.1871 -0.0041  0.0870
   94loPI   C3B 1503  15.705   1.505   8.782  0.2526  0.0040 -0.0079
   94loPI   C4B 1504  15.581   1.612   8.379 -0.2734 -0.0146 -0.0500
   95loPI    C1 1505  17.368  15.383  10.262 -0.1139 -0.1212 -0.0293
   95loPI    C2 1506  17.401  15.003  10.139 -0.3681 -0.1546  0.0002
   95loPI    C3 1507  17.442  15.093  10.527  0.1566 -0.0863 -0.0635
   95loPI   PO4 1508  17.371  15.419   9.888  0.3953 -0.1428 -0.0210
   95loPI   GL1 1509  17.292  15.522   9.540 -0.1778  0.1018  0.0348
   95loPI   GL2 1510  17.564  15.798   9.504 -0.0703 -0.2812 -0.0817
   95loPI   C1A 1511  17.060  15.521   9.145 -0.1594 -0.0726 -0.0913
   95loPI   C2A 1512  16.847  15.512   8.696 -0.0701 -0.1185  0.2065
   95loPI   C3A 1513  16.763  15.910   8.467 -0.1650  0.2821 -0.1915
   95loPI   C4A 1514  16.624  16.077   8.226  0.2899 -0.1072  0.2224
   95loPI   C5A 1515  16.504  15.955   7.884 -0.1627 -0.0526  0.1126
   95loPI   C6A 1516  16.220  15.722   7.568 -0.1729  0.0159 -0.0787
   95loPI   C1B 1517  17.611  15.620   9.052 -0.2359 -0.0405 -0.3567
   95loPI   C2B 1518  17.592  15.480   8.598 -0.2657 -0.2628 -0.0968
   95loPI   C3B 1519  17.323  15.413   8.280  0.3616 -0.0526 -0.0553
   95loPI   C4B 1520  17.273  15.613   7.801 -0.2997  0.1448  0.0667
   96loPI    C1 1521  12.264   1.436  10.169  0.1072 -0.2328  0.1521
   96loPI    C2 1522  11.884   1.326  10.227  0.0922 -0.2852 -0.0403
   96loPI    C3 1523  12.071   1.548  10.501 -0.0487 -0.3337  0.0968
   96loPI   PO4 1524  12.196   1.629   9.890  0.1353  0.0425  0.2439
   96loPI   GL1 1525  12.044   1.801   9.449  0.0598  0.0586 -0.1580
   96loPI   GL2 1526  12.040   2.078   9.470 -0.1462 -0.2042 -0.0630
   96loPI   C1A 1527  11.975   1.681   9.105 -0.0036  0.1204 -0.0037
   96loPI   C2A 1528  11.986   1.379   8.762 -0.2299 -0.0756  0.1351
   96loPI   C3A 1529  11.878   1.263   8.377 -0.0963 -0.0677 -0.0327
   96loPI   C4A 1530  11.904   1.258   7.954 -0.2677 -0.0614 -0.1511
   96loPI   C5A 1531  11.899   1.531   7.588 -0.2133  0.1424 -0.3903
   96loPI   C6A 1532  12.099   1.310   7.245  0.0902  0.1414  0.2824
   96loPI   C1B 1533  11.953   2.215   9.041 -0.1824 -0.2112 -0.0852
   96loPI   C2B 1534  11.920   2.088   8.518 -0.0512  0.0136 -0.1935
   96loPI   C3B 1535  11.928   1.897   8.126 -0.1529 -0.0081  0.0619
   96loPI   C4B 1536  11.605   1.832   7.889  0.0931 -0.0301  0.5115
   97loPI    C1 1537   9.965   4.108  10.545  0.0263 -0.1213 -0.0305
   97loPI    C2 1538   9.711   3.842  10.701 -0.0358 -0.0709 -0.0452
   97loPI    C3 1539   9.668   4.231  10.784  0.1316 -0.0779  0.0795
   97loPI   PO4 1540   9.984   4.023  10.329  0.3305 -0.1253 -0.0987
   97loPI   GL1 1541   9.865   4.101   9.924  0.0677  0.0646 -0.3354
   97loPI   GL2 1542  10.006   3.863   9.803  0.2114 -0.4611 -0.1549
   97loPI   C1A 1543   9.833   4.450   9.576 -0.1339  0.2167 -0.0013
   97loPI   C2A 1544   9.682   4.556   9.194 -0.1769 -0.0330 -0.0747
   97loPI   C3A 1545   9.638   4.878   8.959 -0.3232  0.0663 -0.1760
   97loPI   C4A 1546   9.635   5.062   8.515  0.1075 -0.1581  0.0802
   97loPI   C5A 1547   9.858   5.394   8.215 -0.0928  0.6100 -0.1184
   97loPI   C6A 1548  10.274   5.573   7.914  0.1409  0.2231  0.4833
   97loPI   C1B 1549   9.920   3.983   9.422 -0.2552 -0.1901  0.0045
   97loPI   C2B 1550  10.048   4.186   9.067  0.0090  0.1007 -0.1386
   97loPI   C3B 1551  10.116   4.169   8.718  0.2217 -0.1322 -0.0547
   97loPI   C4B 1552  10.371   4.243   8.231 -0.2187  0.0395  0.2296
   98loPI    C1 1553   8.377   8.678  10.411  0.0509 -0.1380 -0.0423
   98loPI    C2 1554   8.433   8.338  10.615  0.1627 -0.0473  0.0800
   98loPI    C3 1555   8.332   8.673  10.809  0.0226 -0.0172 -0.0437
   98loPI   PO4 1556   8.255   8.585  10.191 -0.0973  0.3546  0.4390
   98loPI   GL1 1557   8.464   8.598   9.773  0.1025  0.2183 -0.2962
   98loPI   GL2 1558   8.205   8.862   9.805 -0.2028 -0.0891 -0.1098
   98loPI   C1A 1559   8.113   8.644   9.382  0.1312  0.1708 -0.1129
   98loPI   C2A 1560   8.062   8.431   8.997 -0.2198 -0.0558  0.0073
   98loPI   C3A 1561   8.057   8.531   8.676 -0.0598  0.5626 -0.1784
   98loPI   C4A 1562   8.211   8.356   8.287 -0.2522  0.1713 -0.0900
   98loPI   C5A 1563   8.369   8.568   7.927  0.1582 -0.0733 -0.0552
   98loPI   C6A 1564   8.137   8.909   7.749  0.1116 -0.1051  0.1431
   98loPI   C1B 1565   8.461   9.070   9.580  0.1685 -0.0255  0.2562
   98loPI   C2B 1566   8.461   9.066   9.090  0.2501 -0.1139  0.0538
   98loPI   C3B 1567   8.245   8.998   8.619 -0.1135  0.0710 -0.1505
   98loPI   C4B 1568   8.143   8.839   8.287 -0.4272  0.4698 -0.0729
   99loPI    C1 1569   6.630   1.269   9.838  0.1203  0.2361  0.0536
   99loPI    C2 1570   6.574   0.947  10.068 -0.0801  0.1700 -0.0853
   99loPI    C3 1571   6.667   1.298  10.235 -0.2804  0.1357  0.1025
   99loPI   PO4 1572   6.412   1.161   9.649 -0.3241 -0.0864  0.1382
   99loPI   GL1 1573   6.631   1.110   9.254 -0.2573 -0.2615  0.3158
   99loPI   GL2 1574   6.426   0.849   9.232 -0.1145 -0.0271  0.0217
   99loPI   C1A 1575   6.575   1.448   8.883 -0.1871 -0.0833 -0.0894
   99loPI   C2A 1576   6.661   1.349   8.493 -0.1098 -0.0676 -0.1926
   99loPI   C3A 1577   6.739   1.380   8.092 -0.0727 -0.1176  0.0158
   99loPI   C4A 1578   7.153   1.296   7.806  0.1162 -0.0986 -0.2679
   99loPI   C5A 1579   7.652   1.177   7.699 -0.0339 -0.1135 -0.0483
   99loPI   C6A 1580   7.925   0.963   7.404  0.0897  0.0246 -0.0711
   99loPI   C1B 1581   6.489   0.965   8.760  0.1060  0.1081 -0.1986
   99loPI   C2B 1582   6.753   0.854   8.419  0.3199 -0.2508 -0.2143
   99loPI   C3B 1583   7.087   0.879   8.126 -0.0757 -0.0773 -0.3021
   99loPI   C4B 1584   7.175   0.779   7.689 -0.2546 -0.0520 -0.0289
  100loPI    C1 1585  16.589  15.084  10.228  0.1700  0.1758  0.1509
  100loPI    C2 1586  16.910  15.273  10.082  0.2673 -0.0349  0.0889
  100loPI    C3 1587  16.946  15.038  10.404  0.2135 -0.2037 -0.0272
  100loPI   PO4 1588  16.490  15.041  10.007  0.0245 -0.1795 -0.1445
  100loPI   GL1 1589  16.541  15.291   9.718  0.2529  0.1989 -0.1218
  100loPI   GL2 1590  16.198  15.364   9.707  0.1206  0.1097 -0.2812
  100loPI   C1A 1591  16.558  15.404   9.342  0.2105  0.0416 -0.0215
  100loPI   C2A 1592  16.380  15.446   8.914 -0.0453 -0.1552 -0.1763
  100loPI   C3A 1593  16.291  15.641   8.522  0.0505 -0.1281 -0.1242
  100loPI   C4A 1594  16.202  15.584   8.122  0.0688  0.1541  0.0202
  100loPI   C5A 1595  15.829  15.655   7.895  0.0580  0.0747  0.2122
  100loPI   C6A 1596  15.343  15.624   7.751  0.0502 -0.2004  0.1282
  100loPI   C1B 1597  16.021  15.461   9.322 -0.2274 -0.0984 -0.1989
  100loPI   C2B 1598  15.910  15.400   8.779  0.0299 -0.0182  0.1029
  100loPI   C3B 1599  15.734  15.429   8.403 -0.1848  0.1682  0.0191
  100loPI   C4B 1600  15.392  15.560   8.212  0.1462 -0.2292 -0.4430
  101loPI    C1 1601   6.159   7.607  10.112 -0.2668 -0.1905  0.0330
  101loPI    C2 1602   6.281   7.373  10.413 -0.0772  0.3467  0.3890
  101loPI    C3 1603   5.894   7.385  10.313 -0.0298 -0.4921  0.0206
  101loPI   PO4 1604   6.368   7.831  10.180  0.1285  0.0225 -0.0496
  101loPI   GL1 1605   6.388   8.116   9.978  0.0611 -0.1683 -0.2814
  101loPI   GL2 1606   6.357   8.490   9.990  0.1674 -0.2744 -0.1192
  101loPI   C1A 1607   6.278   8.234   9.550  0.0439 -0.0905  0.1788
  101loPI   C2A 1608   6.579   8.179   9.195  0.1193 -0.2685 -0.3416
  101loPI   C3A 1609   7.000   8.252   8.938 -0.1287 -0.0856 -0.1498
  101loPI   C4A 1610   7.275   7.914   8.694 -0.1333 -0.0197  0.2726
  101loPI   C5A 1611   7.147   7.557   8.619  0.3110  0.2194  0.0309
  101loPI   C6A 1612   6.827   7.467   8.492 -0.0613 -0.4269 -0.2493
  101loPI   C1B 1613   6.729   8.374   9.694 -0.3933  0.2215  0.1761
  101loPI   C2B 1614   7.030   8.159   9.466 -0.0218  0.0127 -0.0374
  101loPI   C3B 1615   7.463   7.946   9.311 -0.3496 -0.0578 -0.3955
  101loPI   C4B 1616   7.770   7.618   9.408 -0.1262  0.1294  0.0756
  102loPI    C1 1617   8.871  12.950   9.982 -0.1560 -0.1295 -0.0976
  102loPI    C2 1618   8.496  12.889   9.856 -0.2242 -0.0147  0.0468
  102loPI    C3 1619   8.635  12.690  10.174 -0.1514 -0.0807 -0.0258
  102loPI   PO4 1620   8.991  12.888   9.777 -0.0632  0.1227  0.1835
  102loPI   GL1 1621   9.134  12.899   9.480 -0.1096 -0.1821 -0.2403
  102loPI   GL2 1622   9.124  13.129   9.206 -0.2807 -0.1630  0.1101
  102loPI   C1A 1623   9.422  12.710   9.125  0.1803 -0.3483  0.1437
  102loPI   C2A 1624   9.567  12.749   8.642  0.0951 -0.2279 -0.2205
  102loPI   C3A 1625   9.556  12.897   8.232  0.2579 -0.1457 -0.2138
  102loPI   C4A 1626   9.576  13.217   7.792 -0.0634  0.0367 -0.1425
  102loPI   C5A 1627   9.439  13.697   7.835  0.2535  0.2976 -0.0964
  102loPI   C6A 1628   9.427  14.101   7.570  0.1243  0.2131 -0.0214
  102loPI   C1B 1629   9.429  13.175   8.949 -0.1852 -0.1920  0.0268
  102loPI   C2B 1630   9.433  13.249   8.543  0.0095  0.1148  0.0661
  102loPI   C3B 1631   9.344  13.425   8.289  0.2968  0.0671  0.2548
  102loPI   C4B 1632   9.064  13.335   7.954 -0.1692 -0.1927  0.0903
  103loPI    C1 1633   3.907   7.943  10.468 -0.3545 -0.5509  0.1413
  103loPI    C2 1634   3.912   7.974  10.867 -0.0223 -0.1011  0.1103
  103loPI    C3 1635   3.597   8.106  10.660  0.0094  0.1122  0.1958
  103loPI   PO4 1636   3.983   7.736  10.439  0.1154  0.1677  0.1717
  103loPI   GL1 1637   4.107   7.571   9.975  0.2094  0.2404  0.0405
  103loPI   GL2 1638   4.373   7.657   9.740 -0.1411 -0.0768  0.2354
  103loPI   C1A 1639   3.854   7.595   9.579 -0.1190 -0.0744 -0.3821
  103loPI   C2A 1640   3.513   7.457   9.298  0.2556 -0.0451 -0.3684
  103loPI   C3A 1641   3.404   7.394   8.983 -0.1453  0.2568  0.0587
  103loPI   C4A 1642   3.472   7.412   8.508  0.0986  0.0811  0.0184
  103loPI   C5A 1643   3.666   7.420   8.078  0.1378 -0.1973 -0.1312
  103loPI   C6A 1644   3.448   7.362   7.618 -0.2010 -0.1094 -0.1806
  103loPI   C1B 1645   4.287   7.599   9.331 -0.1394  0.0357  0.1439
  103loPI   C2B 1646   4.299   7.661   8.908  0.1917 -0.0368  0.0925
  103loPI   C3B 1647   4.581   7.723   8.497  0.0037  0.0738  0.4147
  103loPI   C4B 1648   4.922   7.765   8.170 -0.0182  0.3842 -0.1443
  104loPI    C1 1649  12.799   2.335  10.262  0.1801  0.0174  0.0043
  104loPI    C2 1650  12.833   2.018  10.503 -0.0288  0.0853  0.1255
  104loPI    C3 1651  12.641   2.346  10.629 -0.2305  0.0843 -0.1679
  104loPI   PO4 1652  12.736   2.239   9.985  0.0263  0.0536  0.1227
  104loPI   GL1 1653  12.793   2.038   9.644  0.3337  0.3184  0.2283
  104loPI   GL2 1654  12.545   1.881   9.701 -0.1694  0.1298 -0.0535
  104loPI   C1A 1655  12.930   2.119   9.277 -0.1252  0.0185  0.1303
  104loPI   C2A 1656  12.838   1.941   8.861  0.0703 -0.3297  0.0644
  104loPI   C3A 1657  12.833   2.129   8.481  0.0151  0.0538 -0.1235
  104loPI   C4A 1658  12.892   2.355   8.103 -0.4079  0.2656 -0.2911
  104loPI   C5A 1659  12.987   2.010   7.748  0.0878  0.2557  0.0136
  104loPI   C6A 1660  12.836   1.854   7.458  0.0363 -0.0093 -0.1120
  104loPI   C1B 1661  12.480   1.826   9.198  0.0682 -0.1362  0.2796
  104loPI   C2B 1662  12.323   1.817   8.763 -0.2246 -0.2019 -0.0438
  104loPI   C3B 1663  12.237   1.683   8.410  0.0288 -0.0704 -0.2402
  104loPI   C4B 1664  12.387   1.502   8.107  0.1444 -0.1158  0.0473
  105loPI    C1 1665   4.907   4.053  10.338  0.0901  0.1534  0.3345
  105loPI    C2 1666   5.041   3.716  10.507 -0.2386 -0.0949  0.1122
  105loPI    C3 1667   5.300   3.992  10.378  0.0396 -0.3282  0.1622
  105loPI   PO4 1668   4.799   3.987  10.082  0.1079 -0.2366 -0.1142
  105loPI   GL1 1669   4.946   4.165   9.732  0.1397 -0.0174 -0.0669
  105loPI   GL2 1670   4.780   3.961   9.588  0.0036 -0.2658  0.1186
  105loPI   C1A 1671   5.257   4.157   9.368 -0.1872 -0.3919 -0.0785
  105loPI   C2A 1672   5.545   4.179   9.004 -0.1423 -0.0833  0.2636
  105loPI   C3A 1673   5.945   4.013   8.901 -0.1098  0.0184  0.1248
  105loPI   C4A 1674   6.237   4.134   8.560 -0.2310  0.0314 -0.1685
  105loPI   C5A 1675   6.380   4.101   8.157  0.2834 -0.2862  0.0813
  105loPI   C6A 1676   6.155   3.997   7.769  0.1208  0.0198  0.1597
  105loPI   C1B 1677   4.539   4.130   9.222  0.1033  0.1181  0.2134
  105loPI   C2B 1678   4.119   4.249   9.128 -0.0065 -0.0324 -0.1505
  105loPI   C3B 1679   3.876   4.631   9.234  0.1477 -0.0762 -0.0395
  105loPI   C4B 1680   3.892   5.038   9.212  0.0851  0.0599 -0.3238
  106loPI    C1 1681  10.855  13.413   9.965  0.0129 -0.1431  0.4181
  106loPI    C2 1682  11.046  13.764   9.989  0.0403 -0.1345  0.1090
  106loPI    C3 1683  10.674  13.728  10.132 -0.0433  0.0805 -0.0477
  106loPI   PO4 1684  10.858  13.347   9.743 -0.0044  0.1826 -0.2947
  106loPI   GL1 1685  11.158  12.949   9.457  0.1573 -0.0815 -0.0111
  106loPI   GL2 1686  11.354  12.680   9.450  0.0833  0.0888 -0.1692
  106loPI   C1A 1687  10.860  12.905   9.079  0.2415 -0.0460  0.2997
  106loPI   C2A 1688  10.747  12.886   8.534 -0.0572  0.2777  0.3071
  106loPI   C3A 1689  10.687  12.854   8.043 -0.0840 -0.1745 -0.1306
  106loPI   C4A 1690  10.557  13.094   7.712 -0.2356 -0.0323  0.2172
  106loPI   C5A 1691  10.854  13.352   7.428 -0.0619 -0.4807  0.2510
  106loPI   C6A 1692  11.267  13.174   7.273  0.3098 -0.0521  0.1434
  106loPI   C1B 1693  11.285  12.511   8.992 -0.0409  0.1402  0.0188
  106loPI   C2B 1694  11.191  12.453   8.549  0.2660  0.1663 -0.1102
  106loPI   C3B 1695  10.899  12.390   8.141 -0.1705 -0.0800  0.0034
  106loPI   C4B 1696  10.992  12.630   7.718 -0.3007 -0.0213  0.1190
  107loPI    C1 1697  15.465  11.085  10.651  0.0882  0.2725 -0.2288
  107loPI    C2 1698  15.845  11.025  10.760  0.0479  0.1748 -0.1404
  107loPI    C3 1699  15.548  10.856  10.968 -0.0439  0.2461 -0.2125
  107loPI   PO4 1700  15.367  11.041  10.323 -0.2307  0.1474  0.0303
  107loPI   GL1 1701  15.481  10.886   9.891  0.0224 -0.0887  0.0923
  107loPI   GL2 1702  15.521  11.162   9.872 -0.0609 -0.1766 -0.0275
  107loPI   C1A 1703  15.508  10.913   9.411 -0.4830  0.1974  0.5602
  107loPI   C2A 1704  15.574  10.734   8.995  0.2247  0.0029 -0.0877
  107loPI   C3A 1705  15.428  10.632   8.635 -0.1561 -0.0116  0.3596
  107loPI   C4A 1706  15.308  10.237   8.456  0.0586 -0.2961  0.0073
  107loPI   C5A 1707  14.967  10.077   8.339  0.0865  0.1553  0.0454
  107loPI   C6A 1708  14.847   9.752   8.155  0.0291  0.2026 -0.3474
  107loPI   C1B 1709  15.945  11.151   9.522 -0.2036 -0.0445 -0.2129
  107loPI   C2B 1710  16.066  11.492   9.171 -0.1504 -0.0894 -0.1175
  107loPI   C3B 1711  15.866  11.684   8.788  0.1145 -0.0606 -0.3635
  107loPI   C4B 1712  15.665  11.567   8.439 -0.0830 -0.5298  0.0936
  108loPI    C1 1713   5.226  15.077   9.993  0.0155  0.1294 -0.1538
  108loPI    C2 1714   5.351  15.189  10.356 -0.1942 -0.1561  0.0105
  108loPI    C3 1715   5.502  14.860  10.185  0.0380  0.0780 -0.2437
  108loPI   PO4 1716   5.243  15.306   9.837 -0.1778 -0.0121  0.0785
  108loPI   GL1 1717   5.236  15.386   9.379 -0.4038  0.2149  0.0032
  108loPI   GL2 1718   4.953  15.488   9.394 -0.0347  0.2746 -0.3554
  108loPI   C1A 1719   5.502  15.789   9.052 -0.3125 -0.0313 -0.2106
  108loPI   C2A 1720   5.711  16.019   8.788 -0.1820  0.2470  0.0944
  108loPI   C3A 1721   6.003  15.933   8.512  0.1551  0.3233  0.2676
  108loPI   C4A 1722   6.002  16.095   8.085  0.1290  0.0999  0.3305
  108loPI   C5A 1723   5.671  16.046   7.741  0.0799 -0.1497  0.3003
  108loPI   C6A 1724   5.430  15.885   7.454  0.2936  0.3718  0.0989
  108loPI   C1B 1725   4.886  15.500   8.941 -0.1755 -0.0870  0.0013
  108loPI   C2B 1726   4.737  15.636   8.546  0.1787 -0.0802  0.1147
  108loPI   C3B 1727   4.569  15.542   8.198 -0.3966  0.2165  0.1004
  108loPI   C4B 1728   4.397  15.846   7.900 -0.0017  0.0771 -0.0692
  109loPI    C1 1729  17.297   4.974  10.629  0.0182  0.0678  0.0483
  109loPI    C2 1730  16.978   4.930  10.865  0.0679 -0.2166  0.0661
  109loPI    C3 1731  17.296   5.135  10.995 -0.1877  0.2569 -0.0337
  109loPI   PO4 1732  17.224   4.836  10.396  0.1737 -0.1733  0.1762
  109loPI   GL1 1733  17.313   4.531  10.076  0.0212  0.0053 -0.0221
  109loPI   GL2 1734  17.594   4.540  10.248 -0.0386  0.1238 -0.1779
  109loPI   C1A 1735  17.240   4.421   9.672 -0.2370  0.2703 -0.2523
  109loPI   C2A 1736  17.435   4.505   9.215 -0.2860  0.0095  0.1146
  109loPI   C3A 1737  17.535   4.675   8.868  0.2378 -0.2079  0.1976
  109loPI   C4A 1738  17.433   5.073   8.723  0.0425  0.1031  0.0214
  109loPI   C5A 1739  17.143   5.235   8.431 -0.0230  0.2595  0.0899
  109loPI   C6A 1740  16.712   4.971   8.291  0.0462  0.5005  0.1633
  109loPI   C1B 1741  17.813   4.477   9.800 -0.0617  0.0635  0.1307
  109loPI   C2B 1742  17.877   4.658   9.424  0.1352 -0.1612  0.1698
  109loPI   C3B 1743  18.004   4.564   8.938  0.0135 -0.0979 -0.2465
  109loPI   C4B 1744  18.224   4.681   8.597 -0.0053 -0.2677  0.0389
  110loPI    C1 1745   2.327   0.242  10.074 -0.2090  0.0127 -0.0396
  110loPI    C2 1746   2.599  -0.030  10.183  0.2363  0.4642  0.0091
  110loPI    C3 1747   2.294   0.057  10.427  0.0151 -0.0747 -0.0629
  110loPI   PO4 1748   2.424   0.418  10.034 -0.0707  0.0118  0.1087
  110loPI   GL1 1749   2.572   0.762   9.807  0.3104  0.1728 -0.0838
  110loPI   GL2 1750   2.788   0.946   9.570 -0.0890 -0.0488  0.0493
  110loPI   C1A 1751   2.357   0.604   9.409 -0.2277  0.1161  0.0777
  110loPI   C2A 1752   2.296   0.766   9.065  0.1713 -0.0548 -0.3520
  110loPI   C3A 1753   2.149   0.786   8.786  0.0167  0.0856  0.1858
  110loPI   C4A 1754   2.269   0.858   8.412 -0.1133  0.0307  0.1235
  110loPI   C5A 1755   2.005   0.849   8.107  0.1319 -0.0383 -0.1004
  110loPI   C6A 1756   1.784   1.000   7.697  0.2020 -0.0611 -0.0358
  110loPI   C1B 1757   2.689   1.022   9.156 -0.1181 -0.0071 -0.2030
  110loPI   C2B 1758   2.647   1.048   8.744 -0.0250  0.1874  0.0305
  110loPI   C3B 1759   2.754   1.129   8.298 -0.2060  0.1140  0.0543
  110loPI   C4B 1760   2.796   1.370   8.016  0.1053  0.0163 -0.1667
  111loPI    C1 1761   4.327  17.207  10.216 -0.3289  0.3283  0.2866
  111loPI    C2 1762   4.710  17.222  10.332 -0.1648 -0.0422 -0.1722
  111loPI    C3 1763   4.418  17.293  10.596  0.2063 -0.1763  0.2879
  111loPI   PO4 1764   4.314  17.201   9.971 -0.2317  0.0935  0.0487
  111loPI   GL1 1765   4.257  17.064   9.516  0.0675 -0.1285 -0.0641
  111loPI   GL2 1766   4.024  16.836   9.585  0.0610  0.1030 -0.0445
  111loPI   C1A 1767   4.013  17.066   9.094 -0.2842  0.0994  0.1322
  111loPI   C2A 1768   3.865  17.101   8.707  0.2823  0.1173  0.0145
  111loPI   C3A 1769   3.822  17.076   8.347 -0.0015 -0.3435  0.0567
  111loPI   C4A 1770   3.570  17.080   8.073  0.0092 -0.1981  0.1398
  111loPI   C5A 1771   3.264  16.849   7.770 -0.1066 -0.3410 -0.1829
  111loPI   C6A 1772   2.781  16.909   7.683  0.1765  0.2784  0.1267
  111loPI   C1B 1773   3.830  16.638   9.199 -0.1029 -0.0746 -0.0862
  111loPI   C2B 1774   3.634  16.697   8.722  0.1604  0.0619 -0.0873
  111loPI   C3B 1775   3.497  16.638   8.374 -0.0757 -0.0685 -0.1576
  111loPI   C4B 1776   3.403  16.388   7.988  0.0203  0.1093  0.2096
  112loPI    C1 1777  17.979   7.822  10.743  0.1020 -0.4064  0.1085
  112loPI    C2 1778  18.202   8.135  10.856 -0.2354 -0.1474  0.0748
  112loPI    C3 1779  18.098   7.856  11.124 -0.2426 -0.0353  0.1895
  112loPI   PO4 1780  18.133   7.656  10.498  0.3343 -0.1034 -0.0554
  112loPI   GL1 1781  18.311   7.280  10.326  0.1988  0.2006  0.1375
  112loPI   GL2 1782  18.174   7.302  10.076  0.4077 -0.0771 -0.0797
  112loPI   C1A 1783  18.550   7.541   9.975 -0.1623  0.4286  0.2215
  112loPI   C2A 1784  18.558   7.549   9.518  0.3344 -0.2758  0.0655
  112loPI   C3A 1785  18.604   7.540   9.052  0.0421 -0.0558  0.4657
  112loPI   C4A 1786  18.533   7.645   8.598 -0.2724 -0.3735  0.1614
  112loPI   C5A 1787  18.186   7.880   8.476  0.1262  0.3807  0.3734
  112loPI   C6A 1788  18.004   8.312   8.218  0.0266  0.1396 -0.2997
  112loPI   C1B 1789  18.169   7.266   9.632 -0.0968  0.1727 -0.1448
  112loPI   C2B 1790  18.252   7.186   9.142  0.4284 -0.0394  0.2394
  112loPI   C3B 1791  18.135   7.326   8.705 -0.0931 -0.3314 -0.0462
  112loPI   C4B 1792  18.025   7.441   8.207  0.2615 -0.4368 -0.2451
  113loPI    C1 1793  13.009   4.223  10.638  0.3640  0.1851 -0.3814
  113loPI    C2 1794  13.176   4.285  10.996 -0.2810 -0.3605  0.0384
  113loPI    C3 1795  12.891   4.533  10.863 -0.0866 -0.1948 -0.0752
  113loPI   PO4 1796  13.176   4.152  10.318  0.0060 -0.4246 -0.0453
  113loPI   GL1 1797  13.075   4.341   9.917  0.1319 -0.1144  0.0495
  113loPI   GL2 1798  13.348   4.502   9.997  0.4371  0.0269 -0.1191
  113loPI   C1A 1799  13.293   4.324   9.539 -0.4145  0.2040 -0.0252
  113loPI   C2A 1800  13.278   4.390   9.067  0.3394  0.1320 -0.0713
  113loPI   C3A 1801  13.167   4.727   8.761 -0.0277  0.1112 -0.3682
  113loPI   C4A 1802  13.368   4.726   8.359  0.1914  0.1589 -0.0766
  113loPI   C5A 1803  13.214   4.819   7.950  0.1195 -0.0192  0.0066
  113loPI   C6A 1804  12.875   5.046   7.687  0.3478 -0.1607 -0.2086
  113loPI   C1B 1805  13.638   4.859   9.999  0.1364 -0.0583  0.2454
  113loPI   C2B 1806  13.997   5.030   9.609 -0.2984 -0.3672 -0.0944
  113loPI   C3B 1807  14.239   4.803   9.306 -0.1715 -0.3713 -0.0247
  113loPI   C4B 1808  14.094   4.606   8.980  0.2292  0.1980 -0.1815
  114loPI    C1 1809   0.145   2.996  10.597 -0.3834 -0.0774  0.0164
  114loPI    C2 1810   0.079   2.630  10.745 -0.0634 -0.1105  0.0835
  114loPI    C3 1811   0.115   2.942  10.993 -0.0427 -0.0818  0.0445
  114loPI   PO4 1812   0.008   3.031  10.405  0.0664 -0.0623 -0.0188
  114loPI   GL1 1813  -0.219   3.226  10.134 -0.0284 -0.2202 -0.1045
  114loPI   GL2 1814  -0.404   3.464  10.238  0.5133 -0.0073 -0.0866
  114loPI   C1A 1815  -0.100   3.369   9.869  0.1804 -0.2515  0.2582
  114loPI   C2A 1816  -0.165   3.520   9.428  0.1411  0.0262 -0.1710
  114loPI   C3A 1817  -0.332   3.762   9.120  0.2009  0.2393 -0.0592
  114loPI   C4A 1818  -0.394   3.915   8.819 -0.0674  0.2352 -0.0050
  114loPI   C5A 1819  -0.534   3.808   8.442 -0.2059  0.1415  0.2274
  114loPI   C6A 1820  -0.552   3.455   8.142  0.0974 -0.2689  0.0821
  114loPI   C1B 1821  -0.123   3.777  10.193 -0.2606  0.0329 -0.1200
  114loPI   C2B 1822   0.068   4.004  10.014 -0.1886  0.1049 -0.2711
  114loPI   C3B 1823   0.246   4.211   9.687  0.1101 -0.3755  0.0004
  114loPI   C4B 1824   0.292   4.378   9.274 -0.0923 -0.0968  0.3210
  115loPI    C1 1825   6.786   6.001  10.330 -0.2638 -0.0610 -0.1110
  115loPI    C2 1826   6.856   5.733  10.618 -0.3420  0.1516  0.1098
  115loPI    C3 1827   6.580   6.017  10.672 -0.1598  0.3652 -0.0625
  115loPI   PO4 1828   6.912   5.982  10.106 -0.1121  0.2654 -0.0414
  115loPI   GL1 1829   6.729   6.162   9.672  0.1939 -0.0254 -0.0340
  115loPI   GL2 1830   6.846   6.480   9.628  0.1225  0.2496 -0.1036
  115loPI   C1A 1831   6.886   6.160   9.188 -0.1937  0.3396  0.2226
  115loPI   C2A 1832   6.681   5.950   8.837 -0.2359  0.1578 -0.2616
  115loPI   C3A 1833   6.298   6.142   8.606  0.3651 -0.1528  0.1082
  115loPI   C4A 1834   6.238   6.256   8.232 -0.1965 -0.1279 -0.2826
  115loPI   C5A 1835   6.262   6.073   7.907  0.0185 -0.0743  0.1975
  115loPI   C6A 1836   6.675   5.794   7.776 -0.3154  0.0239 -0.0675
  115loPI   C1B 1837   6.563   6.511   9.358 -0.0563  0.2107 -0.0443
  115loPI   C2B 1838   6.731   6.604   8.903  0.0115  0.2135  0.0315
  115loPI   C3B 1839   6.718   6.363   8.523 -0.2193  0.2785  0.5965
  115loPI   C4B 1840   6.705   5.985   8.324  0.0491 -0.1209 -0.0202
  116loPI    C1 1841  14.628   4.749  10.765  0.0377  0.0883  0.1625
  116loPI    C2 1842  14.301   4.618  10.576 -0.0183  0.0474  0.2871
  116loPI    C3 1843  14.388   4.483  10.942  0.1748  0.0069  0.2274
  116loPI   PO4 1844  14.879   4.650  10.563  0.3297  0.2249  0.2633
  116loPI   GL1 1845  15.112   4.663  10.080 -0.0842 -0.0124  0.1674
  116loPI   GL2 1846  14.868   4.830   9.768 -0.2842 -0.2629 -0.1958
  116loPI   C1A 1847  15.380   4.899   9.727 -0.1452 -0.1790  0.1622
  116loPI   C2A 1848  15.274   4.910   9.349  0.2391  0.0213 -0.3949
  116loPI   C3A 1849  15.302   4.969   8.879 -0.0041 -0.4017  0.2646
  116loPI   C4A 1850  15.564   5.202   8.628  0.1010  0.0377  0.2084
  116loPI   C5A 1851  15.881   5.425   8.285  0.3937 -0.0605  0.2267
  116loPI   C6A 1852  16.327   5.287   8.110 -0.2578 -0.1402  0.3000
  116loPI   C1B 1853  14.720   4.693   9.427 -0.0252  0.2546  0.1478
  116loPI   C2B 1854  14.571   4.555   9.040  0.2006 -0.1027 -0.2632
  116loPI   C3B 1855  14.650   4.669   8.732  0.3075 -0.1742 -0.3170
  116loPI   C4B 1856  14.342   4.763   8.385 -0.0648  0.0599  0.1626
  117loPI    C1 1857   7.974   2.925  10.134 -0.0143 -0.0671 -0.0624
  117loPI    C2 1858   8.326   2.905  10.323 -0.1775 -0.1580  0.2376
  117loPI    C3 1859   8.001   3.035  10.517 -0.2950  0.0044 -0.0606
  117loPI   PO4 1860   8.085   3.006   9.846  0.1857  0.3675 -0.1986
  117loPI   GL1 1861   8.166   3.273   9.566 -0.2942  0.0283 -0.0093
  117loPI   GL2 1862   8.388   3.472   9.661 -0.1283 -0.0177 -0.2393
  117loPI   C1A 1863   8.356   2.984   9.305 -0.0987  0.2094  0.0884
  117loPI   C2A 1864   8.675   2.902   8.933  0.4608  0.1138  0.1448
  117loPI   C3A 1865   8.831   2.958   8.579  0.1936 -0.0799  0.2410
  117loPI   C4A 1866   9.008   2.931   8.092  0.2233  0.2331 -0.3272
  117loPI   C5A 1867   9.484   3.004   7.939 -0.1700  0.0715  0.1946
  117loPI   C6A 1868   9.852   3.257   7.990  0.0998 -0.1584  0.1132
  117loPI   C1B 1869   8.274   3.481   9.139 -0.1594 -0.3661  0.0634
  117loPI   C2B 1870   8.294   3.189   8.705 -0.1089 -0.0091  0.0646
  117loPI   C3B 1871   8.139   2.968   8.342 -0.1438  0.0407  0.1890
  117loPI   C4B 1872   7.963   2.806   7.905 -0.0385  0.1317 -0.0236
  118loPI    C1 1873   9.815   2.341  10.177  0.1378  0.1142 -0.0080
  118loPI    C2 1874   9.857   2.043  10.439 -0.0008  0.1278  0.0302
  118loPI    C3 1875   9.928   2.420  10.552  0.0976  0.1176  0.0035
  118loPI   PO4 1876   9.701   2.113   9.952  0.0161 -0.3354  0.3167
  118loPI   GL1 1877   9.458   2.137   9.531 -0.2286  0.0619  0.2295
  118loPI   GL2 1878   9.719   2.212   9.475 -0.1122 -0.1301  0.3742
  118loPI   C1A 1879   9.325   2.558   9.468  0.1240 -0.4346 -0.3081
  118loPI   C2A 1880   9.150   2.959   9.325 -0.2605  0.1066 -0.0239
  118loPI   C3A 1881   9.166   3.071   8.922 -0.0074 -0.0747 -0.0794
  118loPI   C4A 1882   9.266   3.205   8.403 -0.1726  0.1617  0.0731
  118loPI   C5A 1883   9.148   3.508   8.118  0.2627  0.1628  0.0652
  118loPI   C6A 1884   9.407   3.560   7.835 -0.4183  0.0678  0.4628
  118loPI   C1B 1885  10.129   2.113   9.313  0.2671  0.0874 -0.1947
  118loPI   C2B 1886  10.074   2.227   8.827  0.0897  0.0371 -0.1350
  118loPI   C3B 1887  10.094   2.145   8.455  0.2538 -0.1914  0.1545
  118loPI   C4B 1888  10.258   2.346   8.154 -0.0714 -0.0420  0.1680
  119loPI    C1 1889  11.909  15.790   9.985 -0.1499  0.4328 -0.1256
  119loPI    C2 1890  12.267  15.937  10.084 -0.0578  0.1429 -0.0184
  119loPI    C3 1891  11.949  16.016  10.313  0.0514 -0.0781  0.2154
  119loPI   PO4 1892  11.864  15.815   9.718 -0.1527  0.2005  0.1427
  119loPI   GL1 1893  12.035  15.984   9.298  0.3620 -0.2675 -0.2218
  119loPI   GL2 1894  11.840  15.941   9.156 -0.0742  0.3520  0.0473
  119loPI   C1A 1895  12.039  16.352   9.075 -0.1413 -0.0932 -0.2609
  119loPI   C2A 1896  12.096  16.471   8.677  0.1015 -0.0970 -0.0812
  119loPI   C3A 1897  12.111  16.407   8.231 -0.2175 -0.0992 -0.1034
  119loPI   C4A 1898  12.160  16.587   7.827 -0.0315 -0.0221  0.2928
  119loPI   C5A 1899  11.832  16.890   7.580 -0.1007  0.0697  0.0972
  119loPI   C6A 1900  11.782  16.980   7.150 -0.2187  0.5325  0.0350
  119loPI   C1B 1901  11.877  15.918   8.743  0.0004  0.4475  0.0978
  119loPI   C2B 1902  11.818  15.924   8.330  0.0517  0.0929 -0.0005
  119loPI   C3B 1903  11.848  15.968   7.940 -0.1467 -0.0552  0.1764
  119loPI   C4B 1904  11.911  16.094   7.510 -0.0190  0.2846 -0.0111
  120loPI    C1 1905   5.095  13.163   9.906 -0.0268 -0.0504 -0.1712
  120loPI    C2 1906   4.890  12.975  10.193  0.0762 -0.1025 -0.1309
  120loPI    C3 1907   5.171  12.778   9.987  0.4631  0.1095  0.1806
  120loPI   PO4 1908   4.943  13.346   9.736  0.0111 -0.2772  0.1326
  120loPI   GL1 1909   4.850  13.392   9.401 -0.1521 -0.1889  0.0790
  120loPI   GL2 1910   5.124  13.316   9.245  0.0764 -0.1054  0.6191
  120loPI   C1A 1911   4.645  13.559   9.128 -0.1020  0.4998 -0.1254
  120loPI   C2A 1912   4.547  13.578   8.711 -0.0404 -0.0149 -0.2160
  120loPI   C3A 1913   4.324  13.607   8.347 -0.0678 -0.0740 -0.2560
  120loPI   C4A 1914   4.253  13.426   7.974  0.0954  0.2335 -0.1599
  120loPI   C5A 1915   4.048  13.363   7.614 -0.1466 -0.0532 -0.1741
  120loPI   C6A 1916   3.742  13.254   7.306 -0.0140 -0.1037  0.0035
  120loPI   C1B 1917   4.958  13.241   8.828 -0.1976 -0.2404  0.3358
  120loPI   C2B 1918   4.786  13.443   8.330 -0.0352  0.1513 -0.6792
  120loPI   C3B 1919   4.837  13.245   7.986  0.0058 -0.1600 -0.2209
  120loPI   C4B 1920   4.652  13.171   7.629 -0.1054 -0.0733  0.0744
  121loPI    C1 1921   0.069  15.935  10.274 -0.0857  0.0045  0.0484
  121loPI    C2 1922  -0.279  16.129  10.305 -0.1452 -0.1269  0.2208
  121loPI    C3 1923  -0.162  15.881  10.596  0.0402 -0.1695  0.1115
  121loPI   PO4 1924   0.087  15.937  10.009 -0.1871  0.2182 -0.0254
  121loPI   GL1 1925  -0.098  15.889   9.681 -0.0645 -0.0837  0.2030
  121loPI   GL2 1926  -0.400  15.790   9.627 -0.1711  0.4627 -0.4502
  121loPI   C1A 1927  -0.169  16.171   9.342  0.2420 -0.2213  0.0399
  121loPI   C2A 1928  -0.295  16.111   8.960 -0.3751 -0.2721 -0.0310
  121loPI   C3A 1929  -0.221  16.118   8.550 -0.0536  0.3482  0.2944
  121loPI   C4A 1930  -0.230  16.131   8.148  0.0452  0.0853  0.2020
  121loPI   C5A 1931  -0.313  15.979   7.773 -0.1700  0.0222 -0.0350
  121loPI   C6A 1932  -0.296  15.794   7.351  0.0431 -0.2225 -0.1034
  121loPI   C1B 1933  -0.424  15.723   9.175 -0.3099 -0.1695  0.1805
  121loPI   C2B 1934  -0.524  15.638   8.770  0.2824  0.2569 -0.0012
  121loPI   C3B 1935  -0.367  15.554   8.285  0.0037 -0.2268  0.1872
  121loPI   C4B 1936  -0.213  15.512   7.825  0.0581 -0.2734 -0.0630
  122loPI    C1 1937   4.533  15.417  10.221 -0.0541 -0.1435 -0.1765
  122loPI    C2 1938   4.933  15.428  10.218 -0.0556 -0.0026  0.0001
  122loPI    C3 1939   4.743  15.080  10.271  0.0466 -0.0360  0.1528
  122loPI   PO4 1940   4.372  15.556   9.901  0.0974 -0.0084  0.1018
  122loPI   GL1 1941   4.157  15.898   9.617 -0.1393  0.0570 -0.0665
  122loPI   GL2 1942   4.430  15.823   9.431 -0.0429  0.0205 -0.1568
  122loPI   C1A 1943   4.016  16.102   9.188  0.0134 -0.1290 -0.0773
  122loPI   C2A 1944   4.027  16.216   8.724 -0.1606  0.2326  0.1178
  122loPI   C3A 1945   3.882  16.376   8.301  0.3218  0.1524 -0.0980
  122loPI   C4A 1946   3.813  16.638   7.929 -0.1086 -0.1648  0.1599
  122loPI   C5A 1947   3.979  16.746   7.530  0.1837 -0.1906  0.2528
  122loPI   C6A 1948   4.360  16.684   7.260  0.4018  0.0616  0.1490
  122loPI   C1B 1949   4.381  15.743   8.992 -0.1186 -0.1894  0.0723
  122loPI   C2B 1950   4.234  15.777   8.516  0.0835 -0.1439  0.3842
  122loPI   C3B 1951   3.935  15.785   8.172  0.0770  0.0986 -0.0493
  122loPI   C4B 1952   3.810  16.115   7.799  0.1783 -0.0335 -0.0597
  123loPI    C1 1953   4.853   5.775  10.590 -0.0713 -0.0801 -0.1310
  123loPI    C2 1954   4.476   5.875  10.680 -0.0336  0.0573 -0.1236
  123loPI    C3 1955   4.773   5.967  10.932 -0.0038 -0.1175 -0.0940
  123loPI   PO4 1956   4.793   5.551  10.511 -0.0649 -0.1025 -0.4053
  123loPI   GL1 1957   4.965   5.552  10.129 -0.0432 -0.0421 -0.2410
  123loPI   GL2 1958   4.783   5.461   9.878  0.1934 -0.1521 -0.1826
  123loPI   C1A 1959   5.298   5.677   9.759 -0.1589  0.0058  0.3343
  123loPI   C2A 1960   5.399   5.690   9.273 -0.1792 -0.0342  0.1515
  123loPI   C3A 1961   5.321   5.656   8.851 -0.0783  0.0401  0.3137
  123loPI   C4A 1962   5.350   5.654   8.433  0.1014 -0.1028  0.0036
  123loPI   C5A 1963   5.436   5.780   8.094 -0.0852  0.2290  0.1501
  123loPI   C6A 1964   5.460   5.489   7.663 -0.1328  0.1524  0.4676
  123loPI   C1B 1965   4.837   5.521   9.506 -0.4286 -0.2035 -0.3897
  123loPI   C2B 1966   4.927   5.726   9.120 -0.1675  0.1929 -0.1491
  123loPI   C3B 1967   4.940   5.826   8.638 -0.1158 -0.0499  0.0082
  123loPI   C4B 1968   4.952   6.015   8.159 -0.1469 -0.1642  0.0922
  124loPI    C1 1969   9.495  10.515  10.210 -0.1907  0.1730 -0.2439
  124loPI    C2 1970   9.217  10.417  10.481 -0.0910  0.1251 -0.1584
  124loPI    C3 1971   9.366  10.788  10.473 -0.1023  0.1296 -0.1550
  124loPI   PO4 1972   9.435  10.410   9.990 -0.0720 -0.2874 -0.1321
  124loPI   GL1 1973   9.477  10.637   9.517  0.2589 -0.1503 -0.2490
  124loPI   GL2 1974   9.640  10.890   9.467 -0.1438 -0.4056 -0.0903
  124loPI   C1A 1975   9.392  10.282   9.345  0.0178 -0.2285  0.1016
  124loPI   C2A 1976   9.140  10.196   8.975 -0.1767  0.1049 -0.1082
  124loPI   C3A 1977   9.071  10.006   8.616 -0.1606  0.0930 -0.1295
  124loPI   C4A 1978   9.093   9.812   8.259  0.4789  0.1402 -0.2610
  124loPI   C5A 1979   9.218   9.735   7.928 -0.3630  0.0398 -0.1577
  124loPI   C6A 1980   9.308   9.397   7.763  0.0579  0.2001  0.1947
  124loPI   C1B 1981   9.602  10.823   9.031 -0.1479 -0.5459  0.1845
  124loPI   C2B 1982   9.409  11.089   8.620 -0.0656  0.0688  0.1019
  124loPI   C3B 1983   9.427  10.957   8.255 -0.0459  0.0176 -0.0151
  124loPI   C4B 1984   9.577  11.191   7.962  0.2202 -0.2442 -0.0506
  125loPI    C1 1985  10.269   8.759  10.444 -0.1120 -0.0016  0.0283
  125loPI    C2 1986  10.427   8.815  10.808  0.0361 -0.0108 -0.0336
  125loPI    C3 1987  10.031   8.779  10.764  0.0067  0.1297  0.1097
  125loPI   PO4 1988  10.477   8.510  10.348  0.0929  0.0429 -0.3114
  125loPI   GL1 1989  10.790   8.435   9.968 -0.0589  0.3175  0.0806
  125loPI   GL2 1990  10.592   8.775   9.867 -0.0471 -0.1861  0.1009
  125loPI   C1A 1991  11.014   8.261   9.610 -0.1115 -0.1102  0.0992
  125loPI   C2A 1992  10.788   8.207   9.182 -0.1404 -0.0092  0.3718
  125loPI   C3A 1993  10.458   8.050   8.853  0.1228  0.0068 -0.1208
  125loPI   C4A 1994  10.259   8.023   8.481  0.3185  0.2845  0.2036
  125loPI   C5A 1995  10.419   8.200   8.082  0.0414 -0.0239  0.4200
  125loPI   C6A 1996  10.399   8.084   7.668  0.0018 -0.1931  0.0362
  125loPI   C1B 1997  10.671   8.563   9.526 -0.1878  0.0121 -0.3222
  125loPI   C2B 1998  10.715   8.708   9.156 -0.0129 -0.0995  0.0881
  125loPI   C3B 1999  10.799   8.636   8.650 -0.1549 -0.2633 -0.2492
  125loPI   C4B 2000  10.746   8.518   8.232  0.2433  0.1536 -0.1109
  126loPI    C1 2001  16.923   3.852  10.219  0.0793 -0.0617  0.0312
  126loPI    C2 2002  16.710   3.605   9.989 -0.4913  0.2850  0.1667
  126loPI    C3 2003  16.826   3.488  10.354  0.0077 -0.0918 -0.1002
  126loPI   PO4 2004  16.737   4.047  10.282  0.2408  0.0562  0.1775
  126loPI   GL1 2005  16.821   4.341   9.955 -0.0803  0.2072 -0.0858
  126loPI   GL2 2006  16.927   4.034   9.749  0.0050 -0.1899  0.0917
  126loPI   C1A 2007  16.768   4.487   9.504 -0.3103  0.1736 -0.1148
  126loPI   C2A 2008  16.826   4.394   9.039  0.0257 -0.1854  0.1744
  126loPI   C3A 2009  16.988   4.291   8.651 -0.0068  0.0158  0.5158
  126loPI   C4A 2010  17.356   4.198   8.451 -0.0652  0.2711 -0.2418
  126loPI   C5A 2011  17.574   3.808   8.464  0.1751  0.0948  0.0709
  126loPI   C6A 2012  17.613   3.416   8.473 -0.3476 -0.1785  0.0505
  126loPI   C1B 2013  17.017   4.043   9.382  0.0283 -0.1043  0.0025
  126loPI   C2B 2014  17.227   3.946   8.955 -0.4087 -0.0148  0.0272
  126loPI   C3B 2015  17.635   4.187   8.904  0.3701  0.1681  0.1152
  126loPI   C4B 2016  17.881   4.309   8.506 -0.0275  0.1235  0.1332
  127loPI    C1 2017   9.396  16.422   9.661 -0.1173  0.0375 -0.0339
  127loPI    C2 2018   9.267  16.329  10.028 -0.0586 -0.1694 -0.0642
  127loPI    C3 2019   9.596  16.553   9.982 -0.0559 -0.1581  0.0092
  127loPI   PO4 2020   9.455  16.159   9.553 -0.2428 -0.0810 -0.0349
  127loPI   GL1 2021   9.768  16.139   9.183 -0.2037 -0.0817  0.1262
  127loPI   GL2 2022   9.564  16.452   9.106 -0.0266  0.2738  0.0164
  127loPI   C1A 2023   9.704  15.891   8.824  0.0111  0.1828  0.2234
  127loPI   C2A 2024   9.857  15.582   8.564 -0.0753 -0.0462  0.0623
  127loPI   C3A 2025   9.736  15.435   8.230  0.0018  0.1210 -0.2904
  127loPI   C4A 2026   9.801  15.250   7.883 -0.0841 -0.0667 -0.0431
  127loPI   C5A 2027   9.787  14.890   7.621  0.0298 -0.3220 -0.0789
  127loPI   C6A 2028   9.652  14.537   7.455 -0.0899  0.1196  0.1562
  127loPI   C1B 2029   9.574  16.390   8.654  0.3415  0.0642  0.2388
  127loPI   C2B 2030   9.429  16.514   8.198 -0.1996  0.1598 -0.0610
  127loPI   C3B 2031   9.579  16.471   7.781  0.1523 -0.0350  0.5229
  127loPI   C4B 2032   9.893  16.244   7.659  0.0046 -0.2292 -0.0212
  128loPI    C1 2033   9.934  17.417   9.818 -0.0837  0.0111 -0.0427
  128loPI    C2 2034  10.258  17.274  10.004 -0.0912  0.1229  0.0574
  128loPI    C3 2035   9.969  17.452  10.215 -0.2184  0.0235 -0.0316
  128loPI   PO4 2036  10.073  17.526   9.596 -0.0238 -0.0891 -0.0152
  128loPI   GL1 2037  10.121  17.443   9.153  0.0916 -0.0063  0.0386
  128loPI   GL2 2038  10.397  17.375   9.041  0.0852 -0.0299  0.1647
  128loPI   C1A 2039   9.931  17.471   8.888 -0.2708  0.0469  0.2861
  128loPI   C2A 2040   9.547  17.355   8.530 -0.3845  0.1565 -0.1146
  128loPI   C3A 2041   9.578  17.513   8.107 -0.0131  0.0550  0.0290
  128loPI   C4A 2042   9.770  17.796   7.831 -0.2611 -0.0129  0.0017
  128loPI   C5A 2043   9.962  17.696   7.401  0.1414  0.0101  0.1745
  128loPI   C6A 2044  10.368  17.508   7.404 -0.0792  0.2990  0.0609
  128loPI   C1B 2045  10.407  17.366   8.641 -0.3366  0.1482  0.2474
  128loPI   C2B 2046  10.582  17.407   8.313  0.1794 -0.5894 -0.1472
  128loPI   C3B 2047  10.544  17.487   7.862  0.1540 -0.3578 -0.1577
  128loPI   C4B 2048  10.627  17.927   7.700 -0.2426  0.1101  0.0928
  129loPI    C1 2049  13.860   1.563  10.526 -0.0251  0.1512  0.1068
  129loPI    C2 2050  13.722   1.674  10.168  0.0613  0.3144  0.1230
  129loPI    C3 2051  13.493   1.720  10.493 -0.0282  0.1395  0.0862
  129loPI   PO4 2052  14.172   1.656  10.475 -0.0693  0.1486 -0.1317
  129loPI   GL1 2053  14.286   1.936  10.175 -0.0896  0.0881  0.0120
  129loPI   GL2 2054  14.171   2.171  10.035  0.1237  0.0314 -0.0638
  129loPI   C1A 2055  14.625   1.912  10.012 -0.1001 -0.0799 -0.1372
  129loPI   C2A 2056  14.892   2.028   9.657  0.0058  0.2560 -0.2214
  129loPI   C3A 2057  14.923   1.894   9.329  0.1158  0.1919  0.2818
  129loPI   C4A 2058  15.000   1.801   8.836 -0.1760 -0.3960 -0.0118
  129loPI   C5A 2059  14.731   2.043   8.500 -0.1331  0.2483  0.2133
  129loPI   C6A 2060  14.799   2.002   8.088 -0.0861  0.1787  0.2524
  129loPI   C1B 2061  14.312   2.422   9.756 -0.0558 -0.0829  0.1960
  129loPI   C2B 2062  14.587   2.797   9.501 -0.0058 -0.1819  0.2010
  129loPI   C3B 2063  14.599   2.921   9.077  0.3448  0.0720 -0.1178
  129loPI   C4B 2064  14.707   3.120   8.685 -0.2198  0.0621  0.0164
  130loPI    C1 2065   1.530   5.768  10.405  0.1582 -0.0317 -0.0557
  130loPI    C2 2066   1.675   5.893  10.756  0.2237  0.1523 -0.1473
  130loPI    C3 2067   1.289   5.949  10.668  0.1646 -0.0593 -0.0306
  130loPI   PO4 2068   1.608   5.433  10.395 -0.4570 -0.4928  0.1740
  130loPI   GL1 2069   1.794   5.388  10.051  0.0498  0.0165  0.2653
  130loPI   GL2 2070   2.043   5.501   9.872  0.0438 -0.1151 -0.0249
  130loPI   C1A 2071   1.495   5.227   9.668 -0.1245 -0.1589  0.1504
  130loPI   C2A 2072   0.997   5.279   9.592 -0.1169 -0.1784 -0.1120
  130loPI   C3A 2073   0.821   5.272   9.133 -0.1179 -0.1609  0.2980
  130loPI   C4A 2074   0.839   5.133   8.691  0.0208  0.0410  0.1097
  130loPI   C5A 2075   0.938   4.817   8.388  0.0084 -0.3675 -0.1492
  130loPI   C6A 2076   0.751   4.472   8.139  0.0158 -0.0373 -0.0830
  130loPI   C1B 2077   1.981   5.512   9.422  0.0390 -0.3191 -0.1077
  130loPI   C2B 2078   1.994   5.668   9.008  0.0569  0.2013 -0.3004
  130loPI   C3B 2079   1.834   5.917   8.685  0.1436 -0.1804  0.0313
  130loPI   C4B 2080   1.885   6.164   8.267  0.1677  0.1159  0.1931
  131loPI    C1 2081   4.405   0.673  10.303 -0.0546  0.0364  0.0509
  131loPI    C2 2082   4.803   0.644  10.337 -0.0383  0.2762  0.0846
  131loPI    C3 2083   4.580   0.724  10.659 -0.1363 -0.0692  0.1065
  131loPI   PO4 2084   4.359   0.598  10.030 -0.0693  0.1489 -0.2233
  131loPI   GL1 2085   4.253   0.610   9.648 -0.2769  0.0079  0.1313
  131loPI   GL2 2086   4.381   0.836   9.400  0.0534 -0.2071 -0.0966
  131loPI   C1A 2087   4.205   0.373   9.285  0.0193  0.1223  0.1772
  131loPI   C2A 2088   4.175   0.431   8.879 -0.0219 -0.0354  0.0034
  131loPI   C3A 2089   4.056   0.518   8.528  0.0943  0.2515 -0.1787
  131loPI   C4A 2090   4.077   0.468   8.052  0.0182  0.2178  0.2918
  131loPI   C5A 2091   4.220   0.168   7.745  0.2142 -0.1430 -0.3246
  131loPI   C6A 2092   4.148  -0.168   7.401 -0.2979 -0.0019 -0.0287
  131loPI   C1B 2093   4.426   0.879   8.949 -0.1599  0.0455  0.0267
  131loPI   C2B 2094   4.557   0.961   8.593  0.0477  0.1501  0.0178
  131loPI   C3B 2095   4.441   0.691   8.221 -0.1839  0.3933  0.1034
  131loPI   C4B 2096   4.464   0.615   7.739 -0.1784 -0.1216  0.1415
  132loPI    C1 2097   2.756   6.415  10.446  0.2430  0.2546  0.1257
  132loPI    C2 2098   2.925   6.516  10.795  0.1085  0.2357  0.1971
  132loPI    C3 2099   2.540   6.411  10.783  0.1559  0.0719  0.0687
  132loPI   PO4 2100   2.982   6.414  10.294 -0.2801  0.1478 -0.2465
  132loPI   GL1 2101   2.977   6.236   9.853  0.0576  0.2737 -0.0363
  132loPI   GL2 2102   2.919   5.956  10.034  0.0185  0.0180 -0.2532
  132loPI   C1A 2103   3.140   6.345   9.572 -0.1312  0.0779  0.3303
  132loPI   C2A 2104   3.184   6.462   9.080 -0.0105  0.1035 -0.1745
  132loPI   C3A 2105   3.348   6.418   8.735 -0.1816  0.2431  0.3125
  132loPI   C4A 2106   3.468   6.547   8.363 -0.1399 -0.2596 -0.3778
  132loPI   C5A 2107   3.778   6.537   8.044 -0.0855 -0.2178 -0.2660
  132loPI   C6A 2108   4.112   6.288   8.080 -0.2135 -0.2637  0.0561
  132loPI   C1B 2109   2.906   5.755   9.598  0.2118 -0.1256  0.0119
  132loPI   C2B 2110   2.856   5.484   9.284  0.0098  0.0224  0.0934
  132loPI   C3B 2111   2.766   5.398   8.873 -0.3422 -0.0230 -0.2287
  132loPI   C4B 2112   2.798   5.189   8.454 -0.0272  0.0866  0.2371
  133loPI    C1 2113   5.094  17.332  10.026 -0.3363 -0.1790  0.2639
  133loPI    C2 2114   5.157  17.465  10.398 -0.0369 -0.1358  0.2004
  133loPI    C3 2115   5.243  17.086  10.304  0.1657 -0.0674  0.1046
  133loPI   PO4 2116   5.211  17.465   9.862 -0.0281  0.1566  0.4276
  133loPI   GL1 2117   5.110  17.550   9.449  0.0502  0.3726 -0.1052
  133loPI   GL2 2118   4.752  17.502   9.267 -0.2607  0.2733  0.1547
  133loPI   C1A 2119   5.406  17.388   9.191 -0.3329  0.0241 -0.1445
  133loPI   C2A 2120   5.428  17.299   8.779  0.2207  0.1108  0.0777
  133loPI   C3A 2121   5.423  17.363   8.296  0.1023 -0.1244  0.2097
  133loPI   C4A 2122   5.782  17.360   8.091 -0.2003  0.0190 -0.0391
  133loPI   C5A 2123   6.169  17.529   7.906  0.2494  0.2341  0.0184
  133loPI   C6A 2124   6.475  17.724   7.815 -0.0907 -0.0053  0.1008
  133loPI   C1B 2125   4.966  17.426   8.965 -0.0445 -0.2570  0.2700
  133loPI   C2B 2126   5.025  17.518   8.498 -0.2010  0.1115  0.1925
  133loPI   C3B 2127   4.983  17.597   8.048 -0.0472  0.2755  0.0035
  133loPI   C4B 2128   4.997  17.836   7.813  0.5238  0.4034  0.0464
  134loPI    C1 2129   9.853  13.848   9.959 -0.0163 -0.0310 -0.0556
  134loPI    C2 2130   9.742  14.232   9.948  0.0993  0.0037 -0.0247
  134loPI    C3 2131   9.540  13.972  10.176  0.1546  0.0905  0.1246
  134loPI   PO4 2132  10.072  13.889   9.720 -0.1895 -0.1494 -0.4064
  134loPI   GL1 2133  10.167  13.746   9.240  0.2689  0.1097  0.1293
  134loPI   GL2 2134  10.119  14.101   9.277 -0.2573  0.0894  0.0045
  134loPI   C1A 2135  10.450  13.578   8.983 -0.0041  0.1556 -0.0217
  134loPI   C2A 2136  10.740  13.419   8.559 -0.0403 -0.2170 -0.4119
  134loPI   C3A 2137  10.984  13.406   8.146  0.0066  0.1720 -0.3564
  134loPI   C4A 2138  11.034  13.134   7.841 -0.0998 -0.1395 -0.3737
  134loPI   C5A 2139  11.450  12.880   7.705  0.0044 -0.1390  0.1141
  134loPI   C6A 2140  11.838  13.115   7.579 -0.2688 -0.0136  0.0127
  134loPI   C1B 2141  10.041  14.164   8.899  0.1591  0.1721  0.1592
  134loPI   C2B 2142   9.952  14.170   8.503  0.0592  0.1117  0.0732
  134loPI   C3B 2143  10.171  14.205   8.177  0.2531 -0.1950 -0.1085
  134loPI   C4B 2144  10.354  14.069   7.769  0.1320  0.0078 -0.1182
  135loPI    C1 2145   9.950  16.036   9.608 -0.0525 -0.0864 -0.0185
  135loPI    C2 2146   9.776  16.025   9.968 -0.0515  0.0793 -0.0120
  135loPI    C3 2147   9.719  15.726   9.708 -0.1383  0.0105  0.0855
  135loPI   PO4 2148  10.214  16.107   9.605  0.1551 -0.2359 -0.3655
  135loPI   GL1 2149  10.368  16.147   9.197 -0.0217  0.3360 -0.1214
  135loPI   GL2 2150  10.573  16.432   9.087 -0.1344  0.2427 -0.1794
  135loPI   C1A 2151  10.203  15.928   8.802  0.0624  0.1685 -0.0159
  135loPI   C2A 2152   9.969  16.004   8.395  0.1369  0.1360 -0.0761
  135loPI   C3A 2153   9.747  16.106   8.140  0.2560  0.1886 -0.2447
  135loPI   C4A 2154   9.710  15.798   7.808 -0.0141 -0.1145  0.1802
  135loPI   C5A 2155  10.069  15.593   7.503 -0.1548 -0.3040 -0.0962
  135loPI   C6A 2156  10.154  15.242   7.395  0.1414 -0.0617 -0.1961
  135loPI   C1B 2157  10.519  16.339   8.680  0.1518 -0.0449 -0.4534
  135loPI   C2B 2158  10.434  16.208   8.240  0.0097 -0.1750  0.1424
  135loPI   C3B 2159  10.359  16.211   7.888 -0.4055  0.2461 -0.2153
  135loPI   C4B 2160  10.488  15.901   7.627 -0.0142  0.0499  0.0027
  136loPI    C1 2161  10.666   7.393  10.448  0.0034  0.0672  0.1183
  136loPI    C2 2162  10.504   7.588  10.757 -0.2861  0.0870 -0.0417
  136loPI    C3 2163  10.796   7.322  10.819 -0.0972  0.3463  0.2098
  136loPI   PO4 2164  10.768   7.583  10.266 -0.1138  0.0698  0.3182
  136loPI   GL1 2165  10.606   7.638   9.970 -0.0356 -0.0781 -0.2302
  136loPI   GL2 2166  10.753   7.919   9.859 -0.0592 -0.1868 -0.0826
  136loPI   C1A 2167  10.470   7.280   9.652  0.1830 -0.0802 -0.2937
  136loPI   C2A 2168  10.246   7.204   9.296 -0.0728 -0.1572 -0.1384
  136loPI   C3A 2169  10.341   6.959   8.984  0.2188  0.0629 -0.2391
  136loPI   C4A 2170  10.502   6.866   8.581  0.1486 -0.3202  0.0633
  136loPI   C5A 2171  10.689   7.215   8.432  0.0232 -0.1372 -0.0696
  136loPI   C6A 2172  11.071   7.402   8.406  0.1316 -0.1096 -0.2741
  136loPI   C1B 2173  10.560   7.825   9.445  0.4338  0.0922  0.0724
  136loPI   C2B 2174  10.543   7.583   9.121  0.1348  0.0498 -0.0150
  136loPI   C3B 2175  10.285   7.470   8.793 -0.0411 -0.2229 -0.1738
  136loPI   C4B 2176  10.267   7.458   8.372  0.0009  0.0799  0.0209
  137loPI    C1 2177  17.549   5.569  11.027  0.1804 -0.0872 -0.0651
  137loPI    C2 2178  17.897   5.421  11.157  0.1470 -0.0627  0.0532
  137loPI    C3 2179  17.678   5.657  11.395  0.0509 -0.0754 -0.0218
  137loPI   PO4 2180  17.618   5.614  10.698 -0.0859  0.1753  0.1347
  137loPI   GL1 2181  17.627   5.422  10.357  0.0228  0.0263 -0.2356
  137loPI   GL2 2182  17.403   5.334  10.251 -0.2161 -0.0764 -0.2023
  137loPI   C1A 2183  17.802   5.466   9.936 -0.0638 -0.0887 -0.0903
  137loPI   C2A 2184  17.844   5.500   9.495 -0.2875 -0.1150  0.6043
  137loPI   C3A 2185  18.016   5.558   9.078  0.2231 -0.0698  0.2550
  137loPI   C4A 2186  18.107   5.900   8.784  0.0712 -0.0842 -0.0487
  137loPI   C5A 2187  17.996   6.137   8.373 -0.0487  0.0720 -0.0189
  137loPI   C6A 2188  17.917   6.527   8.244  0.2168 -0.3457 -0.0999
  137loPI   C1B 2189  17.253   5.330   9.854 -0.3470  0.0128  0.1685
  137loPI   C2B 2190  17.275   5.418   9.290  0.0433  0.0368 -0.0458
  137loPI   C3B 2191  17.141   5.686   8.798 -0.0621  0.1668 -0.0446
  137loPI   C4B 2192  17.189   5.765   8.471  0.1030  0.2373  0.0384
  138loPI    C1 2193   7.589  17.725  10.157 -0.1536 -0.1176  0.0716
  138loPI    C2 2194   7.966  17.813  10.057 -0.1406 -0.3268 -0.0707
  138loPI    C3 2195   7.763  18.054  10.304  0.1270 -0.2793  0.1069
  138loPI   PO4 2196   7.461  17.657   9.904 -0.0060  0.2252  0.0221
  138loPI   GL1 2197   7.208  17.739   9.600  0.1740  0.1382  0.0402
  138loPI   GL2 2198   7.008  18.026   9.508  0.0858  0.3419 -0.2038
  138loPI   C1A 2199   7.466  18.000   9.341 -0.3949  0.0827  0.1005
  138loPI   C2A 2200   7.676  17.976   8.935  0.0886 -0.0545 -0.0411
  138loPI   C3A 2201   7.719  17.992   8.442  0.2260  0.1012 -0.1260
  138loPI   C4A 2202   7.704  17.748   8.119 -0.1610  0.1887  0.3228
  138loPI   C5A 2203   7.421  17.838   7.790  0.0957 -0.0725 -0.1078
  138loPI   C6A 2204   7.380  17.833   7.342 -0.0796 -0.0115 -0.0058
  138loPI   C1B 2205   6.955  17.990   9.133  0.1676 -0.0003 -0.6682
  138loPI   C2B 2206   6.929  17.951   8.665 -0.2314  0.1823  0.1330
  138loPI   C3B 2207   6.885  17.961   8.227  0.1377  0.1890 -0.1290
  138loPI   C4B 2208   6.791  18.081   7.847 -0.0359 -0.1571  0.0425
  139loPI    C1 2209   7.554  14.355  10.089  0.0313 -0.0471 -0.0949
  139loPI    C2 2210   7.301  14.064  10.195  0.0009  0.0445  0.0881
  139loPI    C3 2211   7.194  14.447  10.238  0.1464  0.0835  0.1076
  139loPI   PO4 2212   7.737  14.172   9.920 -0.0177 -0.1670  0.1297
  139loPI   GL1 2213   7.659  14.228   9.447  0.1065 -0.0585  0.0292
  139loPI   GL2 2214   7.520  13.983   9.498  0.0392  0.1869 -0.0680
  139loPI   C1A 2215   7.498  14.333   9.123 -0.4168 -0.4323  0.0873
  139loPI   C2A 2216   7.529  14.336   8.680 -0.1766 -0.2513 -0.0258
  139loPI   C3A 2217   7.750  14.366   8.395 -0.0583 -0.0146  0.1698
  139loPI   C4A 2218   7.870  14.371   7.916  0.1654  0.1469  0.2332
  139loPI   C5A 2219   7.991  14.635   7.586 -0.1017  0.0229 -0.0797
  139loPI   C6A 2220   8.010  14.999   7.380  0.0030 -0.1027 -0.0282
  139loPI   C1B 2221   7.744  13.920   9.106  0.1730 -0.0725  0.1091
  139loPI   C2B 2222   7.839  13.926   8.565 -0.2113 -0.1663  0.1193
  139loPI   C3B 2223   7.876  13.747   8.118  0.3015 -0.0855 -0.1187
  139loPI   C4B 2224   7.990  13.836   7.793  0.0930  0.0971  0.2576
  140loPI    C1 2225  18.167   2.361  10.816  0.0329  0.0037  0.0022
  140loPI    C2 2226  18.193   2.747  10.919  0.1316 -0.0297  0.1046
  140loPI    C3 2227  18.190   2.464  11.202 -0.2664 -0.0891  0.0470
  140loPI   PO4 2228  18.316   2.332  10.602  0.1194  0.1386  0.1716
  140loPI   GL1 2229  18.530   2.594  10.214 -0.0060  0.2019  0.0748
  140loPI   GL2 2230  18.259   2.704  10.244  0.0840 -0.1898 -0.1328
  140loPI   C1A 2231  18.782   2.520   9.866  0.3754 -0.0238 -0.0472
  140loPI   C2A 2232  18.690   2.616   9.411  0.2356 -0.0567  0.1900
  140loPI   C3A 2233  18.618   2.700   9.005  0.2144  0.0827  0.1493
  140loPI   C4A 2234  18.768   2.373   8.581 -0.3149 -0.2279 -0.0658
  140loPI   C5A 2235  19.085   2.230   8.290  0.2652  0.1037  0.2061
  140loPI   C6A 2236  19.385   1.923   8.083  0.1533  0.2781 -0.2780
  140loPI   C1B 2237  18.362   2.816   9.858 -0.1352  0.3085  0.2844
  140loPI   C2B 2238  18.397   3.026   9.467  0.1712  0.2307 -0.1227
  140loPI   C3B 2239  18.479   3.162   9.071 -0.2476  0.0009 -0.0142
  140loPI   C4B 2240  18.665   3.502   8.896  0.0282 -0.0143  0.2104
  141loPI    C1 2241  12.114   0.008  10.002  0.1942 -0.0141 -0.1504
  141loPI    C2 2242  12.114   0.354  10.204  0.0438  0.0922 -0.3295
  141loPI    C3 2243  12.081   0.007  10.401  0.0549  0.1862 -0.1599
  141loPI   PO4 2244  12.020  -0.041   9.812 -0.2923 -0.0005  0.3574
  141loPI   GL1 2245  12.124  -0.258   9.539 -0.2011  0.0452 -0.0603
  141loPI   GL2 2246  12.192  -0.581   9.514 -0.2202 -0.1444  0.4721
  141loPI   C1A 2247  11.789  -0.527   9.294  0.1519 -0.0839  0.3791
  141loPI   C2A 2248  11.721  -0.664   8.902  0.1486  0.0572  0.2285
  141loPI   C3A 2249  11.744  -0.761   8.441 -0.1226 -0.5147 -0.1056
  141loPI   C4A 2250  11.518  -0.617   8.049 -0.2179  0.0929 -0.1606
  141loPI   C5A 2251  11.582  -0.464   7.653  0.1962  0.1832  0.2288
  141loPI   C6A 2252  12.004  -0.315   7.341 -0.2268 -0.1736 -0.2799
  141loPI   C1B 2253  12.257  -0.643   9.081  0.3987  0.3186 -0.0887
  141loPI   C2B 2254  12.215  -0.777   8.681  0.0487 -0.1438  0.1808
  141loPI   C3B 2255  12.273  -0.676   8.254 -0.0460 -0.3300  0.1293
  141loPI   C4B 2256  12.519  -0.716   7.895 -0.2055  0.2212  0.0378
  142loPI    C1 2257   1.865   8.472  10.255 -0.0996  0.1420 -0.0097
  142loPI    C2 2258   1.912   8.854  10.363 -0.1403  0.1362  0.0290
  142loPI    C3 2259   1.716   8.601  10.603 -0.1013  0.0876  0.0099
  142loPI   PO4 2260   1.928   8.508   9.945  0.0028 -0.1796  0.1141
  142loPI   GL1 2261   1.642   8.469   9.592 -0.1230  0.0872  0.1983
  142loPI   GL2 2262   1.735   8.138   9.500 -0.1236 -0.0774  0.0382
  142loPI   C1A 2263   1.701   8.585   9.184 -0.0113  0.0407 -0.0381
  142loPI   C2A 2264   1.927   8.541   8.818 -0.2560  0.1965 -0.2387
  142loPI   C3A 2265   2.240   8.370   8.548  0.1612  0.2042  0.2198
  142loPI   C4A 2266   2.285   7.950   8.285 -0.1168  0.0479  0.0144
  142loPI   C5A 2267   1.994   7.623   8.177 -0.0974  0.1727  0.1211
  142loPI   C6A 2268   1.828   7.226   8.058 -0.0289 -0.0821 -0.2350
  142loPI   C1B 2269   1.572   8.019   9.220 -0.3783 -0.0843 -0.0027
  142loPI   C2B 2270   1.568   7.645   8.989  0.0178 -0.3900 -0.0858
  142loPI   C3B 2271   1.175   7.533   8.762 -0.1126  0.3495  0.1073
  142loPI   C4B 2272   0.718   7.735   8.665 -0.0226  0.0298  0.1261
  143loPI    C1 2273   5.886   8.482  10.194 -0.1472  0.0854  0.1251
  143loPI    C2 2274   6.176   8.295  10.395  0.0973  0.1676 -0.1445
  143loPI    C3 2275   5.874   8.085  10.239 -0.1444  0.1122  0.3776
  143loPI   PO4 2276   5.773   8.700  10.296  0.2720  0.0098 -0.2082
  143loPI   GL1 2277   5.829   8.948   9.926 -0.0157 -0.0138 -0.1634
  143loPI   GL2 2278   5.524   8.805   9.879  0.0626 -0.2286 -0.0112
  143loPI   C1A 2279   5.933   9.104   9.574 -0.0570 -0.4703 -0.0036
  143loPI   C2A 2280   6.058   9.063   9.196 -0.0529 -0.3033  0.3060
  143loPI   C3A 2281   6.039   8.980   8.761  0.1665 -0.0578 -0.0928
  143loPI   C4A 2282   5.863   9.132   8.409  0.0338  0.2755 -0.1098
  143loPI   C5A 2283   5.877   9.361   8.019  0.1645  0.0481 -0.0491
  143loPI   C6A 2284   5.596   9.628   7.778 -0.1213 -0.3553  0.2518
  143loPI   C1B 2285   5.779   8.633   9.476  0.0692 -0.1691 -0.0461
  143loPI   C2B 2286   5.740   8.605   9.068  0.1161 -0.2274 -0.0432
  143loPI   C3B 2287   5.603   8.295   8.743  0.0250 -0.0758 -0.0324
  143loPI   C4B 2288   5.281   8.153   8.456  0.0895  0.0751 -0.2933
  144loPI    C1 2289   7.442  12.523   9.871  0.0443 -0.1751 -0.0656
  144loPI    C2 2290   7.690  12.662  10.153  0.1863 -0.1133 -0.2196
  144loPI    C3 2291   7.315  12.559  10.249  0.1864  0.0511 -0.0377
  144loPI   PO4 2292   7.627  12.330   9.695  0.3138 -0.2160 -0.0530
  144loPI   GL1 2293   7.754  12.312   9.320  0.4412  0.0122  0.0546
  144loPI   GL2 2294   7.972  12.144   9.273  0.0084 -0.1252  0.2072
  144loPI   C1A 2295   7.524  12.102   8.964  0.0172  0.2434  0.0892
  144loPI   C2A 2296   7.625  12.005   8.645 -0.0462  0.0476 -0.2882
  144loPI   C3A 2297   7.583  11.732   8.309 -0.0802  0.2106  0.1047
  144loPI   C4A 2298   7.799  11.481   8.181  0.0095  0.0556 -0.0111
  144loPI   C5A 2299   8.234  11.347   8.211 -0.0059 -0.0032  0.2896
  144loPI   C6A 2300   8.536  11.081   8.097  0.1708  0.0493  0.1055
  144loPI   C1B 2301   8.142  11.943   8.930 -0.3837 -0.0669 -0.0821
  144loPI   C2B 2302   8.442  11.988   8.618  0.4585  0.1079  0.0331
  144loPI   C3B 2303   8.607  12.133   8.208 -0.2758 -0.0752 -0.1020
  144loPI   C4B 2304   8.966  12.300   7.970 -0.0623  0.3296 -0.1828
  145loPI    C1 2305   3.777  16.317   9.933 -0.0045  0.1693  0.2153
  145loPI    C2 2306   3.584  16.536   9.660  0.0697  0.1920  0.1807
  145loPI    C3 2307   3.508  16.589  10.049 -0.0782  0.1193  0.1623
  145loPI   PO4 2308   4.067  16.394   9.777 -0.3311  0.0213 -0.0822
  145loPI   GL1 2309   4.323  16.449   9.406  0.1660  0.0270 -0.0946
  145loPI   GL2 2310   4.543  16.274   9.222  0.1131 -0.1126  0.1337
  145loPI   C1A 2311   4.275  16.589   9.036 -0.0641  0.1108  0.0174
  145loPI   C2A 2312   4.244  16.684   8.663  0.0390  0.1174 -0.1552
  145loPI   C3A 2313   4.391  16.834   8.305  0.1024  0.0816 -0.1004
  145loPI   C4A 2314   4.167  17.016   7.978  0.0544  0.3112  0.1278
  145loPI   C5A 2315   4.181  17.423   7.645 -0.0252  0.0696  0.0957
  145loPI   C6A 2316   4.010  17.576   7.296 -0.0632 -0.0877 -0.1993
  145loPI   C1B 2317   4.567  16.112   8.723  0.1041 -0.1657 -0.1709
  145loPI   C2B 2318   4.373  16.299   8.326  0.0702 -0.1875  0.0071
  145loPI   C3B 2319   4.341  16.375   7.891 -0.3117  0.2029  0.1260
  145loPI   C4B 2320   4.500  16.721   7.734 -0.1073 -0.1577  0.0030
  146loPI    C1 2321   5.349   2.207  10.321 -0.0646 -0.0096  0.1181
  146loPI    C2 2322   5.387   1.811  10.356 -0.0083 -0.0062  0.0981
  146loPI    C3 2323   5.087   2.000  10.541 -0.0934 -0.0705  0.0265
  146loPI   PO4 2324   5.346   2.195  10.029 -0.1593  0.0508 -0.1167
  146loPI   GL1 2325   5.329   2.382   9.619  0.2306 -0.0431  0.0859
  146loPI   GL2 2326   5.416   2.818   9.549 -0.0657 -0.0009  0.0022
  146loPI   C1A 2327   5.021   2.588   9.295 -0.1281  0.3080  0.0208
  146loPI   C2A 2328   4.657   2.706   9.278 -0.0097 -0.4056 -0.2210
  146loPI   C3A 2329   4.522   2.575   8.831 -0.0336  0.2896  0.0593
  146loPI   C4A 2330   4.444   2.385   8.356  0.2127  0.3168  0.0806
  146loPI   C5A 2331   4.396   1.983   8.082 -0.1911  0.3878  0.2341
  146loPI   C6A 2332   4.545   1.942   7.662 -0.1009  0.2341 -0.1519
  146loPI   C1B 2333   5.427   2.837   9.057  0.2112 -0.1043  0.3139
  146loPI   C2B 2334   5.269   2.654   8.648  0.3034  0.1294 -0.5025
  146loPI   C3B 2335   5.175   2.732   8.284  0.1261  0.1298  0.1982
  146loPI   C4B 2336   4.914   2.800   7.937 -0.1599 -0.0744  0.1843
  147loPI    C1 2337  12.501   1.009   9.867  0.0626  0.1249  0.2117
  147loPI    C2 2338  12.344   0.641   9.866  0.3139  0.0148 -0.0269
  147loPI    C3 2339  12.241   0.901  10.151 -0.1367 -0.1218 -0.0573
  147loPI   PO4 2340  12.813   1.063   9.912 -0.0642  0.1668 -0.0043
  147loPI   GL1 2341  13.029   1.310   9.749  0.4597 -0.0931 -0.0627
  147loPI   GL2 2342  13.127   1.029   9.527 -0.1916  0.1428  0.1599
  147loPI   C1A 2343  13.018   1.619   9.394 -0.1745 -0.1025 -0.1341
  147loPI   C2A 2344  13.280   1.602   8.990  0.0756  0.0582  0.0595
  147loPI   C3A 2345  13.180   1.635   8.540 -0.0085 -0.1076  0.0099
  147loPI   C4A 2346  13.264   1.949   8.128  0.1448  0.3450  0.1153
  147loPI   C5A 2347  13.478   2.315   7.916  0.0503  0.2890 -0.1493
  147loPI   C6A 2348  13.502   2.670   7.770  0.0467 -0.1283  0.0984
  147loPI   C1B 2349  13.043   1.152   9.106  0.2598 -0.2381  0.1554
  147loPI   C2B 2350  13.145   1.073   8.641 -0.1253 -0.1012  0.2084
  147loPI   C3B 2351  13.282   1.164   8.183  0.0897 -0.0000  0.1764
  147loPI   C4B 2352  13.474   1.493   7.961 -0.0876 -0.0722 -0.0094
  148loPI    C1 2353  16.240  16.010  10.296 -0.0653  0.1117 -0.0860
  148loPI    C2 2354  16.563  15.896  10.502  0.0484 -0.1345 -0.3913
  148loPI    C3 2355  16.214  15.710  10.559 -0.1192  0.3149  0.1439
  148loPI   PO4 2356  16.292  16.059  10.041  0.0441 -0.2971 -0.0611
  148loPI   GL1 2357  16.365  15.837   9.730 -0.2059 -0.0404  0.2113
  148loPI   GL2 2358  16.586  16.092   9.593  0.3145 -0.1659 -0.1940
  148loPI   C1A 2359  16.147  15.933   9.435  0.1455 -0.3962 -0.0270
  148loPI   C2A 2360  16.175  15.989   8.978  0.0163 -0.0593  0.0039
  148loPI   C3A 2361  16.224  16.139   8.575 -0.0474 -0.2026  0.2696
  148loPI   C4A 2362  16.179  16.216   8.141 -0.1680 -0.2091  0.0525
  148loPI   C5A 2363  15.945  16.111   7.728 -0.0145 -0.1042 -0.2921
  148loPI   C6A 2364  15.812  16.508   7.586 -0.0535 -0.2706 -0.4690
  148loPI   C1B 2365  16.632  15.962   9.185 -0.1117 -0.0470  0.0682
  148loPI   C2B 2366  16.807  16.193   8.895  0.0910  0.1439  0.0036
  148loPI   C3B 2367  17.060  16.346   8.520  0.0388  0.0960 -0.0244
  148loPI   C4B 2368  17.094  16.567   8.170 -0.0585 -0.2942 -0.1469
  149loPI    C1 2369  17.605   1.797  10.369 -0.0218 -0.0701  0.0782
  149loPI    C2 2370  17.605   2.192  10.432  0.2705 -0.0500 -0.0351
  149loPI    C3 2371  17.892   1.963  10.593  0.2104 -0.1903 -0.1252
  149loPI   PO4 2372  17.447   1.821  10.150  0.2814 -0.2075 -0.0071
  149loPI   GL1 2373  17.344   2.020   9.867  0.1617  0.2789  0.0297
  149loPI   GL2 2374  16.992   1.875   9.840 -0.2489  0.2012  0.1389
  149loPI   C1A 2375  17.231   1.854   9.445 -0.1826 -0.3860 -0.2885
  149loPI   C2A 2376  17.321   1.786   9.016 -0.4079  0.1877  0.0752
  149loPI   C3A 2377  17.397   1.642   8.639  0.0746  0.0327 -0.0711
  149loPI   C4A 2378  17.599   1.420   8.317  0.1664  0.3620  0.0516
  149loPI   C5A 2379  17.844   1.421   7.875  0.0249  0.0798 -0.1243
  149loPI   C6A 2380  18.039   1.415   7.457  0.1480 -0.1672 -0.0208
  149loPI   C1B 2381  17.028   2.241   9.621  0.3302 -0.1253 -0.0478
  149loPI   C2B 2382  17.047   2.558   9.251 -0.3454  0.2346 -0.1026
  149loPI   C3B 2383  17.331   2.738   8.907  0.0410  0.2270  0.4058
  149loPI   C4B 2384  17.437   2.981   8.587  0.0187  0.3186  0.0316
  150loPI    C1 2385  18.333   6.169  10.675 -0.2212 -0.0516  0.0958
  150loPI    C2 2386  17.974   6.083  10.523 -0.2335  0.2192 -0.0341
  150loPI    C3 2387  18.104   6.461  10.527  0.0270  0.1310  0.0649
  150loPI   PO4 2388  18.502   5.993  10.582  0.0191 -0.3652  0.0581
  150loPI   GL1 2389  18.724   5.784  10.281  0.0125 -0.3866  0.0007
  150loPI   GL2 2390  18.939   5.640  10.176 -0.0127  0.2604  0.3650
  150loPI   C1A 2391  18.791   6.088   9.884  0.0756  0.0303  0.1519
  150loPI   C2A 2392  18.768   6.005   9.525 -0.0945  0.0356 -0.2567
  150loPI   C3A 2393  18.652   5.809   9.070  0.2243  0.0434 -0.2237
  150loPI   C4A 2394  18.412   5.501   8.776 -0.0498 -0.0728  0.1729
  150loPI   C5A 2395  18.516   5.217   8.399  0.0370 -0.0374 -0.0464
  150loPI   C6A 2396  18.457   4.772   8.198 -0.3258 -0.1441  0.0844
  150loPI   C1B 2397  19.107   5.581   9.719  0.0550 -0.0116 -0.1267
  150loPI   C2B 2398  19.153   5.659   9.363  0.0911  0.0579 -0.3587
  150loPI   C3B 2399  19.169   5.662   8.953  0.1946 -0.4079 -0.0916
  150loPI   C4B 2400  19.297   5.734   8.414 -0.0211  0.1616 -0.2282
  151loPI    C1 2401  14.313  12.999  10.554  0.1132  0.1520 -0.0169
  151loPI    C2 2402  14.434  12.624  10.617 -0.1262  0.1179  0.2636
  151loPI    C3 2403  14.440  12.888  10.917  0.0929  0.3562  0.0538
  151loPI   PO4 2404  14.037  12.914  10.358  0.1188  0.1382  0.0471
  151loPI   GL1 2405  14.288  12.744  10.070 -0.1036 -0.0798  0.0404
  151loPI   GL2 2406  14.584  13.017  10.113 -0.0377  0.0553 -0.1429
  151loPI   C1A 2407  14.323  12.532   9.666  0.0527 -0.2338  0.1023
  151loPI   C2A 2408  14.634  12.544   9.323  0.1941  0.1079  0.0772
  151loPI   C3A 2409  14.575  12.498   8.844 -0.1416  0.2894  0.2044
  151loPI   C4A 2410  14.343  12.520   8.409  0.0495 -0.3147 -0.1808
  151loPI   C5A 2411  14.229  12.907   8.303 -0.0009  0.0957 -0.2669
  151loPI   C6A 2412  14.255  13.243   8.388 -0.2571 -0.0133 -0.3525
  151loPI   C1B 2413  14.467  13.018   9.723  0.0876 -0.1905 -0.2296
  151loPI   C2B 2414  14.585  13.125   9.304 -0.1729 -0.2522  0.0635
  151loPI   C3B 2415  14.548  13.027   8.846 -0.0320 -0.1717  0.1455
  151loPI   C4B 2416  14.769  12.948   8.442 -0.1416 -0.0358  0.1597
  152loPI    C1 2417  11.434  11.260  10.129 -0.1751  0.2777  0.1848
  152loPI    C2 2418  11.428  11.195  10.524 -0.2740  0.2786  0.1835
  152loPI    C3 2419  11.109  11.355  10.341 -0.3081  0.0857  0.0708
  152loPI   PO4 2420  11.590  11.432  10.015  0.0255 -0.0662 -0.0705
  152loPI   GL1 2421  11.626  11.524   9.622  0.0253 -0.1209 -0.1368
  152loPI   GL2 2422  11.318  11.572   9.505  0.2569  0.0730 -0.0135
  152loPI   C1A 2423  11.813  11.271   9.251 -0.1171 -0.3883 -0.0676
  152loPI   C2A 2424  12.128  11.045   8.964  0.1270 -0.0556 -0.0234
  152loPI   C3A 2425  12.333  10.884   8.602 -0.0022 -0.1882 -0.0579
  152loPI   C4A 2426  12.686  10.912   8.319  0.0048 -0.0034  0.0520
  152loPI   C5A 2427  13.077  11.090   8.241  0.0170 -0.2996 -0.0312
  152loPI   C6A 2428  13.474  10.965   8.048 -0.2666  0.1975  0.1835
  152loPI   C1B 2429  11.379  11.343   9.165 -0.0038 -0.2184 -0.0691
  152loPI   C2B 2430  11.625  11.297   8.784 -0.0998  0.3120  0.2015
  152loPI   C3B 2431  11.878  11.170   8.485 -0.1869  0.0660  0.2443
  152loPI   C4B 2432  11.794  11.398   8.151  0.0688 -0.0328  0.0340
  153loPI    C1 2433  12.790   2.802  10.123 -0.0589 -0.2995 -0.1568
  153loPI    C2 2434  12.426   2.681  10.236 -0.1520  0.1527  0.0503
  153loPI    C3 2435  12.511   2.722   9.848 -0.3848  0.2283  0.0062
  153loPI   PO4 2436  12.832   2.964  10.162 -0.0260  0.1576  0.0513
  153loPI   GL1 2437  13.109   3.003   9.799  0.2169 -0.0114 -0.0097
  153loPI   GL2 2438  13.212   3.268   9.979  0.0223 -0.1655  0.1091
  153loPI   C1A 2439  13.265   2.983   9.346 -0.0899 -0.0171  0.0474
  153loPI   C2A 2440  13.297   2.990   8.899  0.0569 -0.0503  0.0078
  153loPI   C3A 2441  13.232   3.098   8.466 -0.0667 -0.0872  0.2383
  153loPI   C4A 2442  13.265   2.670   8.218 -0.1575  0.2884  0.1624
  153loPI   C5A 2443  13.300   2.300   8.517 -0.0870  0.1973 -0.0204
  153loPI   C6A 2444  13.397   2.214   8.985 -0.0599 -0.0107 -0.2073
  153loPI   C1B 2445  13.563   3.401   9.767 -0.0778  0.0002 -0.2557
  153loPI   C2B 2446  13.633   3.345   9.409 -0.0833 -0.1065  0.1244
  153loPI   C3B 2447  13.717   3.073   9.155  0.0987  0.3426  0.5195
  153loPI   C4B 2448  14.057   2.951   8.853 -0.3879  0.3076 -0.3004
  154loPI    C1 2449   7.230   8.762  10.424  0.0789  0.1501 -0.0158
  154loPI    C2 2450   7.315   8.901  10.790  0.0056  0.0070  0.0561
  154loPI    C3 2451   6.936   8.898  10.659  0.0172 -0.0479  0.0232
  154loPI   PO4 2452   7.416   8.537  10.377 -0.0596 -0.3002  0.2451
  154loPI   GL1 2453   7.623   8.355   9.981  0.1760 -0.1602  0.2329
  154loPI   GL2 2454   7.908   8.408   9.878  0.1354  0.0033  0.3759
  154loPI   C1A 2455   7.614   8.464   9.472 -0.0108 -0.1875  0.0947
  154loPI   C2A 2456   7.438   8.412   9.154  0.1840  0.1467 -0.4911
  154loPI   C3A 2457   7.520   8.400   8.773 -0.0938  0.2546 -0.0501
  154loPI   C4A 2458   7.705   8.544   8.289  0.1628 -0.2011  0.2571
  154loPI   C5A 2459   7.528   8.497   8.009 -0.1417 -0.1651 -0.0584
  154loPI   C6A 2460   7.415   8.262   7.616  0.0527  0.1450 -0.4336
  154loPI   C1B 2461   7.968   8.097   9.455  0.0552  0.1829 -0.0726
  154loPI   C2B 2462   7.925   7.941   9.017 -0.0724 -0.1631  0.1250
  154loPI   C3B 2463   7.903   8.044   8.620  0.2478 -0.2694  0.0847
  154loPI   C4B 2464   7.640   7.985   8.339  0.1157  0.0299  0.1514
  155loPI    C1 2465   1.200  18.350  10.082 -0.2116 -0.0094  0.0909
  155loPI    C2 2466   1.225  18.022  10.309 -0.3273 -0.2078 -0.1772
  155loPI    C3 2467   1.557  18.224  10.212 -0.2766 -0.1221  0.1612
  155loPI   PO4 2468   0.994  18.451  10.233  0.0063 -0.0041  0.0752
  155loPI   GL1 2469   0.709  18.738  10.015  0.0727 -0.1567 -0.4393
  155loPI   GL2 2470   0.629  18.819   9.712  0.1063 -0.0384 -0.3032
  155loPI   C1A 2471   1.105  18.938   9.641  0.0609  0.3595  0.0746
  155loPI   C2A 2472   1.189  18.923   9.163  0.0582 -0.0614  0.0088
  155loPI   C3A 2473   1.101  19.010   8.693 -0.0443  0.0336  0.0810
  155loPI   C4A 2474   1.069  18.791   8.309 -0.0052  0.2356 -0.0135
  155loPI   C5A 2475   1.192  18.626   7.913  0.3192  0.0254  0.5329
  155loPI   C6A 2476   1.570  18.647   7.581  0.0535 -0.1833 -0.1095
  155loPI   C1B 2477   0.390  18.982   9.292  0.0770 -0.0328  0.0339
  155loPI   C2B 2478   0.049  19.045   8.962  0.0432 -0.1380 -0.1686
  155loPI   C3B 2479  -0.313  19.087   8.721  0.1605  0.0667 -0.4292
  155loPI   C4B 2480  -0.674  18.789   8.614  0.0625 -0.3162  0.1579
  156loPI    C1 2481  12.854  13.842  10.199  0.0132 -0.1169 -0.1113
  156loPI    C2 2482  12.642  13.503  10.220 -0.0661 -0.0635 -0.0426
  156loPI    C3 2483  12.851  13.629  10.537 -0.0733 -0.0245 -0.0533
  156loPI   PO4 2484  12.896  13.859   9.868 -0.1252  0.0876  0.2858
  156loPI   GL1 2485  12.928  14.050   9.394  0.0479 -0.1716 -0.2117
  156loPI   GL2 2486  13.214  13.956   9.387 -0.0252 -0.3935 -0.3477
  156loPI   C1A 2487  12.846  14.157   8.864 -0.2028 -0.0307  0.0708
  156loPI   C2A 2488  12.903  14.266   8.379 -0.1438 -0.3169 -0.1668
  156loPI   C3A 2489  12.897  14.085   8.035 -0.0241 -0.2333 -0.1912
  156loPI   C4A 2490  13.267  13.986   7.943 -0.2576  0.0989 -0.2698
  156loPI   C5A 2491  13.478  14.253   7.692  0.1255 -0.2689  0.2487
  156loPI   C6A 2492  13.699  14.676   7.536 -0.2418  0.1166  0.2211
  156loPI   C1B 2493  13.529  13.823   9.009  0.0085  0.1901  0.2206
  156loPI   C2B 2494  13.468  13.705   8.652  0.1425  0.3405  0.4963
  156loPI   C3B 2495  13.516  13.660   8.262 -0.0741  0.1259  0.1850
  156loPI   C4B 2496  13.444  13.400   7.967 -0.3129  0.0168 -0.0120
  157loPI    C1 2497   5.181   1.301  10.292  0.0120 -0.2832 -0.1822
  157loPI    C2 2498   5.423   1.045  10.480  0.0234 -0.2740 -0.1844
  157loPI    C3 2499   5.576   1.362  10.290 -0.0224  0.0002  0.2215
  157loPI   PO4 2500   5.065   1.151  10.071 -0.3231 -0.1073 -0.1914
  157loPI   GL1 2501   4.756   1.346   9.783 -0.3350  0.1115  0.2205
  157loPI   GL2 2502   4.750   1.125   9.587  0.3398 -0.3003 -0.1020
  157loPI   C1A 2503   4.329   1.344   9.517 -0.3019 -0.1584 -0.3349
  157loPI   C2A 2504   4.182   1.440   9.112 -0.0298  0.2503 -0.0434
  157loPI   C3A 2505   4.005   1.536   8.780  0.3007  0.1681 -0.0361
  157loPI   C4A 2506   4.022   1.607   8.368 -0.0013  0.2810  0.1409
  157loPI   C5A 2507   3.781   1.745   7.982  0.1182  0.2341  0.1040
  157loPI   C6A 2508   3.648   2.203   7.800  0.0596 -0.0593 -0.0484
  157loPI   C1B 2509   4.819   0.888   9.196  0.1712 -0.0009 -0.1496
  157loPI   C2B 2510   4.975   0.812   8.796 -0.2027 -0.0045  0.1374
  157loPI   C3B 2511   4.974   0.648   8.389 -0.2260 -0.0080 -0.2583
  157loPI   C4B 2512   5.106   0.507   7.987  0.2052 -0.1218 -0.2188
  158loPI    C1 2513   4.764   6.639  10.474 -0.1196 -0.2760  0.2488
  158loPI    C2 2514   4.530   6.459  10.204 -0.2051  0.1847  0.0064
  158loPI    C3 2515   4.536   6.328  10.582 -0.4420 -0.1707 -0.1081
  158loPI   PO4 2516   4.725   6.861  10.396 -0.1085 -0.2835 -0.2822
  158loPI   GL1 2517   4.557   6.861   9.923 -0.2321 -0.0111 -0.1155
  158loPI   GL2 2518   4.328   6.682   9.826 -0.0663  0.1421  0.0598
  158loPI   C1A 2519   4.389   7.178   9.610  0.1419 -0.1886 -0.1972
  158loPI   C2A 2520   4.449   7.162   9.060  0.1344  0.0150 -0.3090
  158loPI   C3A 2521   4.161   6.816   8.909  0.2590 -0.1327 -0.2979
  158loPI   C4A 2522   4.241   6.380   8.710 -0.0738 -0.2073 -0.1681
  158loPI   C5A 2523   4.517   6.264   8.355  0.0300  0.0242  0.1771
  158loPI   C6A 2524   4.543   6.566   7.901 -0.2305  0.0854  0.2216
  158loPI   C1B 2525   4.438   6.698   9.439  0.0438  0.2773  0.1766
  158loPI   C2B 2526   4.452   6.378   9.294 -0.0730  0.1733  0.0639
  158loPI   C3B 2527   4.725   6.275   9.048  0.3375  0.1560 -0.0231
  158loPI   C4B 2528   4.888   6.356   8.708 -0.1917  0.1627 -0.1651
  159loPI    C1 2529   5.395  17.973   9.699  0.0292 -0.2951  0.0670
  159loPI    C2 2530   5.706  18.096   9.918 -0.0514  0.0929 -0.0288
  159loPI    C3 2531   5.450  17.828  10.068  0.3115 -0.2124  0.0594
  159loPI   PO4 2532   5.316  18.163   9.616 -0.1829 -0.1848  0.1805
  159loPI   GL1 2533   4.990  18.281   9.380 -0.1851  0.1081  0.1017
  159loPI   GL2 2534   5.266  18.378   9.179 -0.1471 -0.1572 -0.1256
  159loPI   C1A 2535   4.756  18.288   9.000  0.1751 -0.1145 -0.1033
  159loPI   C2A 2536   4.591  18.302   8.575  0.0114 -0.0991  0.3366
  159loPI   C3A 2537   4.517  18.306   8.047  0.0236 -0.0152  0.0760
  159loPI   C4A 2538   4.684  18.401   7.670  0.0155  0.1887 -0.0059
  159loPI   C5A 2539   5.009  18.287   7.382  0.0116 -0.2448 -0.2708
  159loPI   C6A 2540   5.307  18.362   7.100 -0.0896 -0.6224  0.1253
  159loPI   C1B 2541   5.105  18.477   8.698 -0.1348 -0.2933  0.2842
  159loPI   C2B 2542   5.208  18.575   8.276 -0.2047 -0.0525  0.0447
  159loPI   C3B 2543   5.105  18.334   7.922  0.2454  0.0338 -0.1319
  159loPI   C4B 2544   5.429  18.228   7.624  0.0082  0.1219 -0.2407
  160loPI    C1 2545   8.878  11.594  10.127  0.1678 -0.0334 -0.2789
  160loPI    C2 2546   8.539  11.639   9.920 -0.1208 -0.1016  0.1640
  160loPI    C3 2547   8.623  11.887  10.222  0.1903 -0.1336  0.1073
  160loPI   PO4 2548   9.005  11.361   9.879 -0.0332  0.1599 -0.1280
  160loPI   GL1 2549   9.302  11.277   9.541  0.0003  0.2274 -0.1676
  160loPI   GL2 2550   9.636  11.406   9.441  0.2500 -0.1172 -0.0987
  160loPI   C1A 2551   9.216  11.187   9.131 -0.1380 -0.1695  0.0518
  160loPI   C2A 2552   8.969  11.068   8.823  0.4422  0.1997  0.4835
  160loPI   C3A 2553   8.957  11.187   8.397  0.3994 -0.3009  0.1339
  160loPI   C4A 2554   9.040  11.260   8.039 -0.2344  0.0097  0.0517
  160loPI   C5A 2555   9.251  11.441   7.673  0.0125  0.2341  0.0681
  160loPI   C6A 2556   9.693  11.595   7.602  0.2537 -0.0293  0.2455
  160loPI   C1B 2557   9.627  11.463   8.902  0.0349 -0.3045 -0.0001
  160loPI   C2B 2558   9.830  11.372   8.567  0.0227 -0.0816  0.1128
  160loPI   C3B 2559   9.980  11.182   8.270  0.3193 -0.1238 -0.0272
  160loPI   C4B 2560  10.169  11.007   7.934  0.1230 -0.2249  0.0891
  161loPI    C1 2561  13.180  15.256   9.832 -0.0972 -0.0664 -0.2510
  161loPI    C2 2562  13.344  15.069  10.145 -0.0120 -0.1165 -0.3252
  161loPI    C3 2563  12.973  15.216  10.172  0.1228  0.1914 -0.0830
  161loPI   PO4 2564  13.318  15.102   9.639 -0.1053  0.1782 -0.1086
  161loPI   GL1 2565  13.551  14.729   9.404  0.1447 -0.1535 -0.2901
  161loPI   GL2 2566  13.212  14.576   9.443  0.4765  0.0275 -0.3306
  161loPI   C1A 2567  13.630  14.759   8.945 -0.0235 -0.0452 -0.1111
  161loPI   C2A 2568  13.669  14.528   8.513 -0.0163 -0.1480 -0.0684
  161loPI   C3A 2569  13.354  14.461   8.293 -0.3003 -0.1975  0.2297
  161loPI   C4A 2570  13.160  14.561   7.978  0.1720  0.2726  0.1401
  161loPI   C5A 2571  12.974  14.265   7.620 -0.0452 -0.0855  0.0247
  161loPI   C6A 2572  13.034  14.096   7.235  0.0177 -0.1213 -0.2256
  161loPI   C1B 2573  13.268  14.377   9.028 -0.0938 -0.0420  0.0393
  161loPI   C2B 2574  13.373  14.157   8.689 -0.0230  0.1588 -0.2528
  161loPI   C3B 2575  13.748  14.050   8.567  0.1742 -0.2323  0.0343
  161loPI   C4B 2576  13.844  14.168   8.164 -0.2205 -0.2182  0.1760
  162loPI    C1 2577   8.821   7.957  10.644  0.0839 -0.2369 -0.0207
  162loPI    C2 2578   9.132   7.866  10.878  0.2454 -0.0856 -0.1741
  162loPI    C3 2579   8.815   8.055  11.032  0.2620 -0.1699 -0.0343
  162loPI   PO4 2580   8.783   7.669  10.455 -0.0698  0.0849  0.1254
  162loPI   GL1 2581   9.044   7.501  10.073  0.0327 -0.1502  0.1364
  162loPI   GL2 2582   8.972   7.808   9.965  0.3296 -0.0595 -0.1886
  162loPI   C1A 2583   9.167   7.313   9.676  0.1465 -0.2584 -0.1948
  162loPI   C2A 2584   9.037   7.232   9.297 -0.2071  0.1281  0.0833
  162loPI   C3A 2585   8.943   7.369   8.820  0.2352  0.3584  0.2535
  162loPI   C4A 2586   9.094   7.702   8.480  0.3979  0.0705 -0.1596
  162loPI   C5A 2587   9.417   7.753   8.162  0.0710  0.1493 -0.1613
  162loPI   C6A 2588   9.468   7.618   7.736  0.1775  0.0934  0.2111
  162loPI   C1B 2589   8.783   7.886   9.623  0.2511 -0.0960 -0.2858
  162loPI   C2B 2590   8.785   7.734   9.242  0.3167 -0.2492 -0.0911
  162loPI   C3B 2591   8.874   7.861   8.859  0.2595  0.2594 -0.2033
  162loPI   C4B 2592   8.942   8.134   8.580 -0.4437  0.0048 -0.2382
  163loPI    C1 2593   2.609   7.778  10.476 -0.0373 -0.0351  0.1318
  163loPI    C2 2594   2.767   8.135  10.387 -0.1958  0.0153  0.0472
  163loPI    C3 2595   2.968   7.800  10.300 -0.0758  0.0817  0.0662
  163loPI   PO4 2596   2.399   7.796  10.277 -0.2178 -0.0289  0.1116
  163loPI   GL1 2597   2.202   7.544   9.949  0.0915  0.0834  0.1402
  163loPI   GL2 2598   2.187   7.181   9.914  0.0906  0.0894  0.0946
  163loPI   C1A 2599   2.074   7.701   9.569 -0.0321  0.1347 -0.3532
  163loPI   C2A 2600   1.922   7.535   9.242  0.1561 -0.1525 -0.2493
  163loPI   C3A 2601   2.011   7.330   8.903  0.0018  0.1002 -0.0539
  163loPI   C4A 2602   1.982   6.977   8.688 -0.1459 -0.1459  0.1900
  163loPI   C5A 2603   1.758   6.509   8.698 -0.1894 -0.1798  0.0725
  163loPI   C6A 2604   1.408   6.259   8.550 -0.2260 -0.2421 -0.2325
  163loPI   C1B 2605   2.019   7.149   9.599 -0.0208  0.4090  0.0946
  163loPI   C2B 2606   1.920   6.941   9.276  0.0374 -0.0781  0.0202
  163loPI   C3B 2607   1.563   6.659   9.229 -0.0970  0.0101 -0.1733
  163loPI   C4B 2608   1.482   6.233   9.074 -0.1269  0.1837 -0.1853
  164loPI    C1 2609   7.878  10.997  10.011 -0.2968 -0.1117  0.0550
  164loPI    C2 2610   8.197  10.815  10.171  0.1476  0.3675 -0.2516
  164loPI    C3 2611   7.918  10.976  10.408  0.2485  0.1445  0.0235
  164loPI   PO4 2612   7.937  10.894   9.745  0.0747  0.0095 -0.1823
  164loPI   GL1 2613   7.966  11.000   9.380 -0.0080 -0.2487  0.1612
  164loPI   GL2 2614   7.596  11.016   9.380 -0.1754 -0.0079 -0.1410
  164loPI   C1A 2615   8.114  11.007   9.059 -0.2389  0.1831 -0.1241
  164loPI   C2A 2616   8.086  11.248   8.721 -0.0919 -0.1675 -0.0135
  164loPI   C3A 2617   8.073  11.642   8.559  0.3635 -0.0777  0.1227
  164loPI   C4A 2618   8.148  11.882   8.210 -0.0013  0.0125 -0.3006
  164loPI   C5A 2619   8.131  11.804   7.840  0.0857 -0.1668  0.1407
  164loPI   C6A 2620   8.330  11.833   7.416  0.2053  0.1381 -0.3231
  164loPI   C1B 2621   7.669  10.994   8.941  0.2609  0.1477 -0.2617
  164loPI   C2B 2622   7.698  10.917   8.584 -0.3097  0.0808 -0.0477
  164loPI   C3B 2623   7.800  10.968   8.159 -0.0086  0.0812 -0.1043
  164loPI   C4B 2624   8.134  10.857   7.871  0.0493 -0.2701 -0.4012
  165loPI    C1 2625  15.990  13.912  10.003  0.0410 -0.1673  0.0453
  165loPI    C2 2626  16.243  14.175  10.167  0.0812 -0.1827  0.0080
  165loPI    C3 2627  15.922  14.052  10.372 -0.1259  0.1570 -0.1045
  165loPI   PO4 2628  15.962  13.999   9.785  0.3001  0.1745  0.1878
  165loPI   GL1 2629  15.707  14.261   9.532 -0.0703 -0.0006  0.0455
  165loPI   GL2 2630  15.825  14.471   9.405 -0.0728 -0.0609  0.0151
  165loPI   C1A 2631  15.540  14.146   9.163  0.1710  0.0708  0.4397
  165loPI   C2A 2632  15.277  14.262   8.819 -0.0814 -0.0970 -0.2654
  165loPI   C3A 2633  15.243  14.360   8.412 -0.1062  0.1359 -0.0973
  165loPI   C4A 2634  14.969  14.727   8.158  0.1189 -0.0525 -0.0962
  165loPI   C5A 2635  15.150  15.143   8.025 -0.0832  0.3796 -0.1231
  165loPI   C6A 2636  14.829  15.523   7.933  0.1955  0.3049  0.2468
  165loPI   C1B 2637  15.849  14.643   8.944 -0.1695  0.0608 -0.0802
  165loPI   C2B 2638  16.221  14.615   8.804  0.0445 -0.4049  0.3724
  165loPI   C3B 2639  16.348  14.421   8.467 -0.1453 -0.0408 -0.0476
  165loPI   C4B 2640  16.294  14.301   7.978 -0.0209  0.0594  0.4421
  166loPI    C1 2641   8.128   1.964   9.726 -0.4331 -0.1050 -0.0653
  166loPI    C2 2642   8.173   1.717   9.414  0.0313 -0.0569 -0.0427
  166loPI    C3 2643   8.237   1.584   9.786 -0.1017 -0.0029 -0.0000
  166loPI   PO4 2644   7.856   2.119   9.642  0.0544 -0.1322  0.0757
  166loPI   GL1 2645   7.737   2.233   9.329  0.1195  0.0271  0.4339
  166loPI   GL2 2646   7.984   2.116   9.148 -0.1073  0.2227  0.0937
  166loPI   C1A 2647   7.692   2.419   8.851 -0.1560 -0.0122  0.2811
  166loPI   C2A 2648   7.923   2.485   8.426  0.0620  0.0529 -0.3447
  166loPI   C3A 2649   8.305   2.448   8.184 -0.3621 -0.0624 -0.1609
  166loPI   C4A 2650   8.554   2.780   8.092  0.0513  0.1021 -0.0238
  166loPI   C5A 2651   8.700   2.937   7.728  0.0984  0.1234 -0.0302
  166loPI   C6A 2652   8.893   2.782   7.452  0.1883  0.1041 -0.0092
  166loPI   C1B 2653   8.071   2.065   8.739 -0.0673 -0.2859  0.2142
  166loPI   C2B 2654   8.037   1.989   8.324 -0.2027  0.2886 -0.2160
  166loPI   C3B 2655   8.245   1.999   7.918  0.2307 -0.4278  0.2550
  166loPI   C4B 2656   8.010   2.138   7.558 -0.1940 -0.1980 -0.0232
  167loPI    C1 2657   3.864  18.488  10.205  0.0142  0.0490 -0.1535
  167loPI    C2 2658   4.113  18.386   9.909  0.0785  0.0689 -0.1064
  167loPI    C3 2659   4.162  18.734  10.101 -0.0384  0.1125 -0.1546
  167loPI   PO4 2660   3.592  18.455  10.044 -0.0359 -0.0907  0.1742
  167loPI   GL1 2661   3.559  18.681   9.712 -0.2082 -0.1629 -0.0861
  167loPI   GL2 2662   3.894  18.801   9.704 -0.0480  0.1013 -0.2973
  167loPI   C1A 2663   3.217  18.832   9.414  0.0634 -0.1588  0.0840
  167loPI   C2A 2664   3.156  18.947   8.932 -0.2147 -0.0621 -0.0605
  167loPI   C3A 2665   3.155  18.916   8.550  0.1509 -0.3118 -0.0157
  167loPI   C4A 2666   2.937  18.919   8.059  0.2778  0.0459  0.3650
  167loPI   C5A 2667   2.610  18.741   7.942 -0.0462 -0.2168 -0.2702
  167loPI   C6A 2668   2.177  18.946   7.872 -0.0116  0.1616  0.2207
  167loPI   C1B 2669   3.719  19.037   9.322 -0.0374 -0.2589 -0.1823
  167loPI   C2B 2670   3.652  19.136   8.953  0.0635 -0.4548  0.1053
  167loPI   C3B 2671   3.552  19.271   8.502 -0.1357  0.2686  0.0375
  167loPI   C4B 2672   3.565  19.343   7.987 -0.2042 -0.1450  0.0381
  168loPI    C1 2673  16.661   1.607  10.473  0.0714  0.2210 -0.0845
  168loPI    C2 2674  17.038   1.667  10.592  0.0557 -0.0710  0.1242
  168loPI    C3 2675  16.819   1.378  10.761 -0.1170 -0.2001 -0.3067
  168loPI   PO4 2676  16.670   1.603  10.158 -0.1638  0.3086 -0.0109
  168loPI   GL1 2677  16.437   1.290   9.971 -0.1556 -0.0498  0.1068
  168loPI   GL2 2678  16.365   0.974   9.981  0.1319 -0.2569 -0.0357
  168loPI   C1A 2679  16.337   1.452   9.520 -0.1258  0.2177  0.0540
  168loPI   C2A 2680  16.247   1.465   9.069 -0.1435 -0.1774  0.2533
  168loPI   C3A 2681  16.538   1.734   8.860 -0.0802  0.2067 -0.3521
  168loPI   C4A 2682  16.930   1.877   8.638  0.0143 -0.0024 -0.0896
  168loPI   C5A 2683  17.296   2.137   8.641  0.1030 -0.0618 -0.0718
  168loPI   C6A 2684  17.475   2.245   9.000  0.3595  0.0901  0.0156
  168loPI   C1B 2685  16.246   0.905   9.581 -0.0904  0.0885  0.2774
  168loPI   C2B 2686  16.166   1.001   9.202  0.0913  0.0011 -0.1178
  168loPI   C3B 2687  15.939   1.037   8.816 -0.2226 -0.0958  0.0594
  168loPI   C4B 2688  15.604   0.965   8.783 -0.1067  0.2645  0.1811
  169loPI    C1 2689  12.134   6.224  10.437  0.1363  0.0640 -0.0488
  169loPI    C2 2690  11.792   6.377  10.577  0.0411 -0.0815 -0.1199
  169loPI    C3 2691  12.061   6.223  10.830  0.0192 -0.0387 -0.0702
  169loPI   PO4 2692  12.248   6.438  10.303  0.2013  0.0379  0.1927
  169loPI   GL1 2693  12.389   6.648   9.974  0.0116  0.1056 -0.3140
  169loPI   GL2 2694  12.652   6.474   9.951 -0.1054 -0.0844  0.2319
  169loPI   C1A 2695  12.399   6.929   9.628  0.0258  0.0197 -0.1784
  169loPI   C2A 2696  12.304   7.128   9.276 -0.0837  0.1228 -0.0215
  169loPI   C3A 2697  12.471   7.125   8.828  0.5061 -0.1052 -0.0521
  169loPI   C4A 2698  12.673   6.899   8.500 -0.4312  0.1475 -0.0323
  169loPI   C5A 2699  13.003   6.781   8.349  0.0038  0.2433 -0.0754
  169loPI   C6A 2700  13.153   6.403   8.130  0.1723 -0.1975 -0.1788
  169loPI   C1B 2701  12.805   6.650   9.549  0.4511 -0.3984  0.0099
  169loPI   C2B 2702  12.942   6.786   9.199 -0.1360 -0.1607 -0.0804
  169loPI   C3B 2703  13.014   6.527   8.827 -0.1404 -0.1786  0.0124
  169loPI   C4B 2704  13.385   6.354   8.540 -0.1734 -0.0927  0.1729
  170loPI    C1 2705   1.744   7.801  10.353  0.3031  0.1709 -0.2432
  170loPI    C2 2706   2.036   8.043  10.481  0.0572  0.3524 -0.0150
  170loPI    C3 2707   1.684   8.037  10.671  0.0350 -0.1366 -0.0604
  170loPI   PO4 2708   1.733   7.714  10.106  0.1519  0.0973 -0.2542
  170loPI   GL1 2709   1.702   7.420   9.785  0.0997  0.3452 -0.4879
  170loPI   GL2 2710   1.456   7.708   9.698 -0.1763  0.2212  0.1494
  170loPI   C1A 2711   1.521   7.243   9.388 -0.2516 -0.0123 -0.0541
  170loPI   C2A 2712   1.547   7.095   8.956  0.1852 -0.0408 -0.1691
  170loPI   C3A 2713   1.483   6.989   8.596  0.0772  0.0108  0.0009
  170loPI   C4A 2714   1.321   7.308   8.255 -0.0146  0.0975 -0.3370
  170loPI   C5A 2715   1.061   7.652   8.247 -0.1034  0.1233 -0.0612
  170loPI   C6A 2716   1.135   8.071   8.351  0.0222  0.0114  0.0581
  170loPI   C1B 2717   1.191   7.617   9.299  0.0205 -0.1459  0.1480
  170loPI   C2B 2718   0.870   7.476   9.435  0.0892 -0.0882  0.1463
  170loPI   C3B 2719   0.559   7.458   9.158  0.1967 -0.0838  0.0076
  170loPI   C4B 2720   0.413   7.338   8.755  0.1349 -0.1585  0.1019
  171loPI    C1 2721   9.874  15.160   9.509  0.0825 -0.1409 -0.0417
  171loPI    C2 2722   9.937  15.258   9.892  0.0414 -0.1578 -0.0306
  171loPI    C3 2723   9.942  14.874   9.780 -0.2524 -0.1755  0.0097
  171loPI   PO4 2724   9.767  15.324   9.421 -0.1067  0.2486 -0.2193
  171loPI   GL1 2725   9.857  15.216   9.017 -0.3461  0.1243 -0.1465
  171loPI   GL2 2726   9.570  15.331   8.971 -0.2727 -0.2637 -0.0033
  171loPI   C1A 2727   9.691  15.065   8.590  0.4601 -0.0246  0.1156
  171loPI   C2A 2728   9.504  14.940   8.169  0.2555 -0.0575  0.4637
  171loPI   C3A 2729   9.338  15.105   7.719  0.2606 -0.0588  0.0410
  171loPI   C4A 2730   8.923  15.367   7.516  0.1223  0.1660  0.2523
  171loPI   C5A 2731   8.717  15.536   7.142 -0.3212  0.0201  0.0175
  171loPI   C6A 2732   8.456  15.412   6.766  0.0373 -0.3049 -0.0389
  171loPI   C1B 2733   9.359  15.446   8.667  0.1138 -0.1064 -0.0875
  171loPI   C2B 2734   9.232  15.382   8.270 -0.4779 -0.1717 -0.2430
  171loPI   C3B 2735   9.327  15.537   7.939  0.2812  0.4161  0.0561
  171loPI   C4B 2736   9.427  15.572   7.458 -0.3723 -0.0119 -0.1395
  172loPI    C1 2737  10.953  15.774   9.769  0.0321 -0.2673 -0.0166
  172loPI    C2 2738  10.674  15.492   9.816 -0.2149  0.0164  0.2710
  172loPI    C3 2739  10.617  15.787   9.552  0.0331 -0.1850 -0.0139
  172loPI   PO4 2740  11.136  15.674   9.732 -0.0191  0.1014  0.1525
  172loPI   GL1 2741  11.283  15.458   9.349 -0.1136 -0.0463  0.0631
  172loPI   GL2 2742  10.902  15.467   9.325  0.2408  0.2004 -0.3901
  172loPI   C1A 2743  11.397  15.760   8.911 -0.1448 -0.0532 -0.3008
  172loPI   C2A 2744  11.354  15.781   8.443  0.0675  0.3122  0.0679
  172loPI   C3A 2745  11.407  16.067   8.086 -0.0913 -0.0558 -0.0668
  172loPI   C4A 2746  11.363  16.071   7.734 -0.1972 -0.0364  0.1109
  172loPI   C5A 2747  11.010  16.137   7.488 -0.3692 -0.0610  0.2818
  172loPI   C6A 2748  10.563  16.341   7.484 -0.3693 -0.2851 -0.2078
  172loPI   C1B 2749  10.978  15.403   8.922  0.0995  0.2287 -0.2640
  172loPI   C2B 2750  10.918  15.470   8.434 -0.2045  0.0821  0.2504
  172loPI   C3B 2751  10.827  15.411   8.064 -0.3750  0.3419  0.2246
  172loPI   C4B 2752  10.545  15.446   7.725  0.1263 -0.1564 -0.2238
  173loPI    C1 2753   8.768   5.161  10.460  0.0418 -0.0067 -0.0864
  173loPI    C2 2754   9.127   5.336  10.480  0.0437 -0.0118 -0.0762
  173loPI    C3 2755   8.809   5.513  10.646  0.0199  0.0487 -0.1850
  173loPI   PO4 2756   8.782   5.086  10.165 -0.3328 -0.1352 -0.1860
  173loPI   GL1 2757   8.634   5.126   9.767  0.2774 -0.2038 -0.0451
  173loPI   GL2 2758   8.307   5.221   9.616 -0.2193 -0.3023 -0.4388
  173loPI   C1A 2759   8.826   4.871   9.449 -0.0817 -0.0842  0.1971
  173loPI   C2A 2760   8.717   4.872   9.023 -0.1594  0.1668 -0.3432
  173loPI   C3A 2761   8.861   4.968   8.625  0.0049 -0.1241 -0.0558
  173loPI   C4A 2762   9.171   5.065   8.325 -0.1212  0.0620  0.0667
  173loPI   C5A 2763   9.561   5.025   8.058 -0.1764  0.1030 -0.0025
  173loPI   C6A 2764   9.635   5.146   7.599 -0.2667  0.2827  0.0265
  173loPI   C1B 2765   8.305   5.034   9.255 -0.0653 -0.1317 -0.3388
  173loPI   C2B 2766   8.303   5.071   8.772 -0.1975  0.0852 -0.1719
  173loPI   C3B 2767   8.411   4.832   8.320 -0.2197 -0.0901  0.0246
  173loPI   C4B 2768   8.427   5.038   7.951 -0.0514 -0.2913  0.0682
  174loPI    C1 2769   7.468  15.652   9.889  0.2020 -0.0765  0.1806
  174loPI    C2 2770   7.157  15.417   9.799 -0.0935  0.3163  0.1512
  174loPI    C3 2771   7.286  15.442  10.177  0.0063  0.0334  0.1385
  174loPI   PO4 2772   7.647  15.536   9.680  0.2993  0.0951  0.1963
  174loPI   GL1 2773   7.380  15.291   9.374 -0.0408 -0.1324 -0.3039
  174loPI   GL2 2774   7.472  15.540   9.060  0.1434  0.2024 -0.3968
  174loPI   C1A 2775   7.382  14.932   9.050  0.0189  0.1783 -0.2222
  174loPI   C2A 2776   7.533  14.838   8.680  0.3052  0.1759 -0.4781
  174loPI   C3A 2777   7.469  14.845   8.336 -0.0882 -0.3213  0.0986
  174loPI   C4A 2778   7.546  15.001   7.968  0.1192  0.0713 -0.0653
  174loPI   C5A 2779   7.538  14.945   7.573 -0.1137  0.0272 -0.2418
  174loPI   C6A 2780   7.499  14.814   7.126  0.1289  0.1146  0.0202
  174loPI   C1B 2781   7.362  15.487   8.615  0.1836 -0.1428 -0.3098
  174loPI   C2B 2782   7.352  15.388   8.195 -0.2637 -0.1768  0.3111
  174loPI   C3B 2783   7.338  15.369   7.741 -0.0240 -0.0797 -0.0081
  174loPI   C4B 2784   7.166  15.316   7.299  0.1334 -0.1000 -0.1426
  175loPI    C1 2785   9.475   5.719  10.364 -0.2036 -0.3689 -0.1594
  175loPI    C2 2786   9.127   5.858  10.503 -0.0169 -0.0134 -0.0331
  175loPI    C3 2787   9.453   5.865  10.735  0.2258  0.2823 -0.3720
  175loPI   PO4 2788   9.495   5.887  10.145  0.0169 -0.1556 -0.1914
  175loPI   GL1 2789   9.568   5.960   9.706  0.1876 -0.1624 -0.0993
  175loPI   GL2 2790   9.202   5.830   9.673  0.0972 -0.1150  0.0964
  175loPI   C1A 2791   9.534   6.245   9.491  0.3532 -0.1013 -0.1743
  175loPI   C2A 2792   9.444   6.466   9.117 -0.0045  0.1994 -0.4149
  175loPI   C3A 2793   9.486   6.459   8.752 -0.0612 -0.1535  0.0811
  175loPI   C4A 2794   9.623   6.741   8.555  0.3282  0.3160  0.6536
  175loPI   C5A 2795   9.634   6.972   8.289  0.3214  0.3329  0.5321
  175loPI   C6A 2796   9.786   7.351   8.057  0.4356 -0.0520 -0.0606
  175loPI   C1B 2797   9.253   5.910   9.231 -0.0587  0.2426  0.1775
  175loPI   C2B 2798   9.078   5.730   8.843  0.1376 -0.0503 -0.3567
  175loPI   C3B 2799   8.966   5.715   8.434 -0.1559  0.0796 -0.0275
  175loPI   C4B 2800   8.612   5.853   8.243  0.2117 -0.0707 -0.1717
  176loPI    C1 2801  16.810   9.319  10.530  0.0671 -0.0558 -0.0061
  176loPI    C2 2802  16.695   8.952  10.418 -0.0076 -0.1223  0.2808
  176loPI    C3 2803  16.710   9.048  10.806 -0.1734  0.2391  0.2031
  176loPI   PO4 2804  17.060   9.345  10.289 -0.4215 -0.2768  0.0725
  176loPI   GL1 2805  17.307   9.206   9.990  0.1669 -0.4164  0.1306
  176loPI   GL2 2806  17.594   9.322   9.911  0.1327 -0.3299 -0.2271
  176loPI   C1A 2807  17.021   9.118   9.728  0.1450  0.0943 -0.3695
  176loPI   C2A 2808  16.959   9.210   9.375  0.1711 -0.1871 -0.3220
  176loPI   C3A 2809  16.857   9.330   8.973  0.5339  0.1366  0.4472
  176loPI   C4A 2810  16.963   9.750   8.695 -0.2562  0.1302  0.4130
  176loPI   C5A 2811  16.734   9.949   8.430  0.1708  0.0051 -0.3375
  176loPI   C6A 2812  16.897  10.259   8.278 -0.3542 -0.1313 -0.0173
  176loPI   C1B 2813  17.312   9.527   9.610 -0.0086  0.1747 -0.1920
  176loPI   C2B 2814  17.317   9.605   9.209  0.2916  0.3510 -0.2217
  176loPI   C3B 2815  17.582   9.408   8.970 -0.1449  0.0202  0.0818
  176loPI   C4B 2816  17.652   9.240   8.555  0.0084 -0.2653 -0.0691
  177loPI    C1 2817   0.932  12.773  10.678  0.1416 -0.0773 -0.0749
  177loPI    C2 2818   1.249  12.995  10.779  0.1748 -0.1572 -0.0026
  177loPI    C3 2819   1.088  12.743  11.045  0.0813 -0.1531 -0.0551
  177loPI   PO4 2820   0.958  12.870  10.357 -0.0814  0.0567 -0.0982
  177loPI   GL1 2821   0.708  12.745  10.015  0.2500 -0.0361  0.2296
  177loPI   GL2 2822   0.822  12.502   9.797  0.3383  0.2060  0.3759
  177loPI   C1A 2823   0.704  12.895   9.532 -0.2291 -0.0995  0.2972
  177loPI   C2A 2824   0.746  12.898   9.236 -0.1003 -0.0787  0.0815
  177loPI   C3A 2825   0.708  12.840   8.830 -0.1554  0.0564 -0.1821
  177loPI   C4A 2826   1.037  12.915   8.564  0.0285  0.4478  0.1161
  177loPI   C5A 2827   1.395  13.016   8.332  0.0427  0.2528 -0.1400
  177loPI   C6A 2828   1.874  13.014   8.586  0.1156 -0.4316 -0.1006
  177loPI   C1B 2829   0.746  12.390   9.453  0.0007 -0.3584 -0.2454
  177loPI   C2B 2830   0.404  12.500   9.112 -0.0377  0.1266  0.2708
  177loPI   C3B 2831   0.277  12.468   8.649  0.0486  0.0316  0.0404
  177loPI   C4B 2832   0.064  12.351   8.319  0.0239 -0.0603  0.0073
  178loPI    C1 2833   0.164   7.980  10.446 -0.0820 -0.0331 -0.0249
  178loPI    C2 2834   0.036   7.601  10.459 -0.0172 -0.0501  0.1455
  178loPI    C3 2835   0.362   7.695  10.247 -0.2360 -0.0277 -0.1879
  178loPI   PO4 2836  -0.035   8.085  10.412  0.0022 -0.2458  0.0615
  178loPI   GL1 2837  -0.258   8.000   9.986 -0.1563 -0.3266 -0.1341
  178loPI   GL2 2838  -0.588   8.234   9.902  0.0669  0.2980  0.5277
  178loPI   C1A 2839  -0.459   7.735   9.761 -0.1748  0.1913 -0.0640
  178loPI   C2A 2840  -0.465   7.686   9.307 -0.2039  0.0307  0.1868
  178loPI   C3A 2841  -0.340   7.945   9.017 -0.0002  0.1909  0.0062
  178loPI   C4A 2842  -0.119   8.262   8.621  0.1781 -0.0569 -0.1936
  178loPI   C5A 2843   0.190   8.476   8.227 -0.0093  0.1299 -0.3042
  178loPI   C6A 2844   0.438   8.790   8.375 -0.1480 -0.2730 -0.1469
  178loPI   C1B 2845  -0.945   7.978   9.688  0.1646  0.1265  0.0357
  178loPI   C2B 2846  -1.042   8.002   9.357  0.0176  0.0921  0.2775
  178loPI   C3B 2847  -0.809   8.109   9.090 -0.3052  0.0530  0.3239
  178loPI   C4B 2848  -0.616   8.363   8.976  0.0943 -0.2739  0.1173
  179loPI    C1 2849   7.077  12.901   9.975  0.1402  0.0965 -0.0268
  179loPI    C2 2850   7.386  13.063  10.170  0.2108 -0.1372  0.0582
  179loPI    C3 2851   7.058  12.956  10.371  0.1757 -0.1261  0.0069
  179loPI   PO4 2852   7.063  12.857   9.683  0.5510 -0.1328  0.0299
  179loPI   GL1 2853   7.369  12.890   9.377  0.1617 -0.0456 -0.1615
  179loPI   GL2 2854   7.353  13.136   9.207  0.0794  0.1058  0.1214
  179loPI   C1A 2855   7.288  12.535   9.099 -0.2784  0.0126  0.2698
  179loPI   C2A 2856   7.440  12.487   8.719 -0.0078  0.0415  0.0791
  179loPI   C3A 2857   7.462  12.367   8.256 -0.0975 -0.1372 -0.1721
  179loPI   C4A 2858   7.568  12.121   7.921  0.1907  0.0916  0.0968
  179loPI   C5A 2859   7.586  11.753   7.764 -0.0148 -0.2061  0.0404
  179loPI   C6A 2860   7.670  11.263   7.763  0.1053  0.3449 -0.3415
  179loPI   C1B 2861   7.420  12.983   8.799  0.1725  0.3968 -0.0339
  179loPI   C2B 2862   7.446  12.843   8.341 -0.1105 -0.0117  0.0732
  179loPI   C3B 2863   7.711  12.823   8.089  0.0246  0.3028  0.1060
  179loPI   C4B 2864   8.186  12.762   7.975 -0.2421 -0.1587  0.0150
  180loPI    C1 2865   3.415  15.395  10.192 -0.2287 -0.2352  0.0018
  180loPI    C2 2866   3.627  15.604  10.460 -0.1618  0.1589 -0.3468
  180loPI    C3 2867   3.356  15.336  10.583  0.1346  0.0559  0.1067
  180loPI   PO4 2868   3.627  15.236   9.993  0.1902  0.0889  0.1266
  180loPI   GL1 2869   3.447  14.999   9.671  0.0596 -0.0852  0.2968
  180loPI   GL2 2870   3.704  14.889   9.502  0.0373 -0.0676  0.1455
  180loPI   C1A 2871   3.476  15.144   9.194  0.2573 -0.0490  0.0696
  180loPI   C2A 2872   3.530  14.817   8.965  0.2492  0.0663 -0.2544
  180loPI   C3A 2873   3.374  14.571   8.623  0.4026 -0.0623 -0.0802
  180loPI   C4A 2874   3.066  14.704   8.261 -0.2179 -0.2701  0.0175
  180loPI   C5A 2875   3.111  15.048   8.093  0.3280 -0.1325  0.2354
  180loPI   C6A 2876   3.203  15.448   7.826 -0.0648 -0.1196 -0.3458
  180loPI   C1B 2877   3.939  15.062   9.091 -0.0454 -0.0177  0.0475
  180loPI   C2B 2878   3.800  15.182   8.744 -0.0306 -0.2081  0.0529
  180loPI   C3B 2879   3.982  15.247   8.294 -0.0908  0.2399 -0.1466
  180loPI   C4B 2880   4.145  15.336   7.837 -0.3946 -0.1807 -0.0108
  181loPI    C1 2881  10.711  18.150  10.117  0.2100  0.0741  0.2197
  181loPI    C2 2882  10.675  18.532  10.229 -0.1099  0.0830  0.0971
  181loPI    C3 2883  10.509  18.242  10.450 -0.1978  0.0485 -0.0134
  181loPI   PO4 2884  10.582  18.118   9.833  0.0325  0.1517 -0.1070
  181loPI   GL1 2885  10.602  18.081   9.461  0.1806  0.0447 -0.0054
  181loPI   GL2 2886  10.505  17.785   9.483 -0.2870 -0.2012  0.0548
  181loPI   C1A 2887  10.903  18.356   9.079  0.3465 -0.0621  0.2464
  181loPI   C2A 2888  11.120  18.263   8.669  0.1745 -0.0124 -0.2639
  181loPI   C3A 2889  11.470  18.221   8.450 -0.1900 -0.2333  0.1699
  181loPI   C4A 2890  11.402  18.424   8.042 -0.2722  0.3531 -0.2263
  181loPI   C5A 2891  11.327  18.617   7.677 -0.0289 -0.1866 -0.3109
  181loPI   C6A 2892  11.205  18.810   7.269  0.1581 -0.0122 -0.0979
  181loPI   C1B 2893  10.678  17.815   9.050 -0.1041  0.0966  0.1763
  181loPI   C2B 2894  10.756  17.801   8.668 -0.4345 -0.1628  0.1390
  181loPI   C3B 2895  10.483  17.897   8.300  0.1053 -0.0282  0.1903
  181loPI   C4B 2896  10.234  18.020   8.049 -0.0731 -0.0635 -0.0016
  182loPI    C1 2897  11.102  12.628   9.946 -0.0095  0.1154 -0.1228
  182loPI    C2 2898  10.962  12.555  10.314  0.0553 -0.1282 -0.1448
  182loPI    C3 2899  10.942  12.925  10.162  0.1024 -0.0082  0.1348
  182loPI   PO4 2900  11.034  12.492   9.789  0.0627  0.0873  0.0117
  182loPI   GL1 2901  10.550  12.410   9.549 -0.0164  0.3297 -0.1425
  182loPI   GL2 2902  10.794  12.309   9.322 -0.3529  0.0049 -0.0198
  182loPI   C1A 2903  10.392  12.626   9.139  0.0201  0.1870 -0.1329
  182loPI   C2A 2904  10.355  12.611   8.682 -0.0780 -0.2079 -0.1581
  182loPI   C3A 2905  10.390  12.564   8.268 -0.2553  0.0828 -0.2386
  182loPI   C4A 2906  10.166  12.775   7.951 -0.0111 -0.0093  0.3201
  182loPI   C5A 2907   9.921  12.910   7.601 -0.2096  0.2402 -0.1339
  182loPI   C6A 2908   9.855  13.376   7.335 -0.0630 -0.2985  0.0342
  182loPI   C1B 2909  10.869  12.210   8.900 -0.1120 -0.1533 -0.0924
  182loPI   C2B 2910  10.866  12.054   8.498 -0.0542 -0.0414 -0.2258
  182loPI   C3B 2911  11.011  11.885   8.148  0.1473 -0.1319  0.0705
  182loPI   C4B 2912  11.112  11.590   7.899  0.3340  0.1445 -0.0446
  183loPI    C1 2913   4.187  12.191  10.133 -0.1880 -0.1360  0.0526
  183loPI    C2 2914   4.044  12.083  10.491 -0.1615  0.1823  0.1631
  183loPI    C3 2915   4.175  12.456  10.433 -0.0462  0.0972 -0.1442
  183loPI   PO4 2916   3.986  12.103   9.956 -0.0697 -0.4961  0.1782
  183loPI   GL1 2917   3.740  12.251   9.663 -0.1189 -0.3433  0.1052
  183loPI   GL2 2918   3.851  12.460   9.465  0.1844 -0.0639  0.2324
  183loPI   C1A 2919   3.514  11.944   9.395  0.0063 -0.1887  0.4274
  183loPI   C2A 2920   3.253  11.842   8.980  0.2737  0.0025 -0.1728
  183loPI   C3A 2921   2.928  11.752   8.673  0.0654  0.3170 -0.1114
  183loPI   C4A 2922   2.731  11.865   8.265 -0.2320 -0.0980 -0.0876
  183loPI   C5A 2923   2.805  11.509   7.946 -0.3096 -0.2693  0.3243
  183loPI   C6A 2924   2.971  11.260   7.540 -0.3954 -0.1969 -0.1304
  183loPI   C1B 2925   3.979  12.249   9.235  0.1370  0.0534 -0.0368
  183loPI   C2B 2926   3.731  12.061   8.942 -0.2365  0.1647  0.2506
  183loPI   C3B 2927   3.427  11.971   8.543 -0.0553  0.1111  0.0428
  183loPI   C4B 2928   3.275  11.809   8.115 -0.1037  0.3210 -0.0986
  184loPI    C1 2929  12.014   2.884  10.471  0.2072 -0.0287  0.2665
  184loPI    C2 2930  12.190   2.573  10.649  0.2455 -0.2097 -0.0796
  184loPI    C3 2931  12.158   2.922  10.842  0.3571 -0.3759  0.2468
  184loPI   PO4 2932  11.900   2.780  10.227  0.2105  0.0932 -0.2755
  184loPI   GL1 2933  11.733   2.967   9.843 -0.3224 -0.1894  0.0252
  184loPI   GL2 2934  11.991   2.765   9.750 -0.0958 -0.0802  0.0685
  184loPI   C1A 2935  11.421   2.828   9.522  0.0835  0.1957 -0.1648
  184loPI   C2A 2936  11.364   2.855   9.054  0.1406  0.0543 -0.1657
  184loPI   C3A 2937  11.496   2.880   8.612 -0.2501  0.2505 -0.2338
  184loPI   C4A 2938  11.902   3.096   8.345  0.1764  0.2022  0.0165
  184loPI   C5A 2939  12.123   3.139   7.948  0.0799 -0.2762 -0.1099
  184loPI   C6A 2940  11.989   3.489   7.653 -0.0893  0.2437 -0.1704
  184loPI   C1B 2941  12.224   2.782   9.423 -0.0258  0.0160  0.4128
  184loPI   C2B 2942  12.302   2.925   8.995 -0.4187 -0.1444 -0.2548
  184loPI   C3B 2943  12.307   3.038   8.603  0.0643  0.1711 -0.0267
  184loPI   C4B 2944  12.481   3.404   8.365 -0.2882  0.1526  0.2585
  185loPI    C1 2945  14.472  10.773  10.499  0.0934 -0.0033  0.0205
  185loPI    C2 2946  14.319  10.406  10.542 -0.1641  0.0922 -0.0592
  185loPI    C3 2947  14.488  10.590  10.855  0.0410 -0.1247 -0.0390
  185loPI   PO4 2948  14.666  10.794  10.288  0.3000 -0.1184 -0.0605
  185loPI   GL1 2949  14.727  10.877   9.912  0.0313 -0.1726  0.1613
  185loPI   GL2 2950  14.691  11.172   9.973  0.2557  0.3385 -0.0854
  185loPI   C1A 2951  14.965  11.059   9.453 -0.0412 -0.1509  0.1383
  185loPI   C2A 2952  15.085  10.788   9.061 -0.3270  0.0695  0.0732
  185loPI   C3A 2953  14.959  10.357   8.765  0.1481  0.0770 -0.0783
  185loPI   C4A 2954  14.615  10.056   8.674 -0.2411  0.0198 -0.2600
  185loPI   C5A 2955  14.397   9.723   8.322 -0.3411 -0.0009  0.2146
  185loPI   C6A 2956  14.507   9.392   7.917  0.0725 -0.0019  0.1443
  185loPI   C1B 2957  14.520  11.336   9.501 -0.0759 -0.2344 -0.2029
  185loPI   C2B 2958  14.454  11.552   9.147 -0.3677 -0.1332  0.1107
  185loPI   C3B 2959  14.751  11.611   8.676  0.1383 -0.3564 -0.1935
  185loPI   C4B 2960  14.885  11.400   8.364 -0.0867  0.1154 -0.0471
  186loPI    C1 2961  10.762  14.223   9.465  0.1483  0.0873 -0.0524
  186loPI    C2 2962  10.549  13.986   9.705  0.2345  0.0352 -0.0272
  186loPI    C3 2963  10.682  13.847   9.355  0.3895  0.0068  0.0421
  186loPI   PO4 2964  10.587  14.435   9.494 -0.1514 -0.1758  0.0813
  186loPI   GL1 2965  10.356  14.562   9.254  0.2320 -0.0239 -0.1329
  186loPI   GL2 2966  10.252  14.933   9.205  0.2588  0.1177 -0.0928
  186loPI   C1A 2967  10.410  14.542   8.845 -0.0435  0.1312 -0.0061
  186loPI   C2A 2968  10.471  14.639   8.475  0.1613  0.3647  0.1565
  186loPI   C3A 2969  10.507  14.573   8.045  0.2441  0.1687  0.1364
  186loPI   C4A 2970  10.637  14.412   7.577 -0.0405  0.3891  0.2925
  186loPI   C5A 2971  10.667  14.592   7.189  0.1259 -0.2503 -0.1413
  186loPI   C6A 2972  10.579  14.715   6.757 -0.1529 -0.2751  0.2035
  186loPI   C1B 2973  10.100  14.889   8.766  0.0642  0.0626  0.1481
  186loPI   C2B 2974  10.020  14.699   8.327 -0.2005 -0.2211 -0.4637
  186loPI   C3B 2975   9.753  14.510   7.953 -0.0743  0.0370 -0.1022
  186loPI   C4B 2976   9.318  14.575   7.861  0.1737 -0.1173  0.0681
  187loPI    C1 2977  13.108   7.548  10.455  0.0178  0.0438 -0.1677
  187loPI    C2 2978  12.935   7.904  10.510 -0.2171 -0.0768 -0.1171
  187loPI    C3 2979  12.750   7.570  10.632  0.1156 -0.1978  0.0689
  187loPI   PO4 2980  13.352   7.585  10.487 -0.3691  0.1783  0.2146
  187loPI   GL1 2981  13.591   7.537  10.080 -0.1054 -0.1331 -0.0578
  187loPI   GL2 2982  13.823   7.318  10.002  0.2311  0.1846  0.3540
  187loPI   C1A 2983  13.443   7.386   9.722 -0.1863  0.2575 -0.0598
  187loPI   C2A 2984  13.321   7.290   9.269 -0.2730  0.0253  0.0239
  187loPI   C3A 2985  13.501   7.342   8.861 -0.2596 -0.1306  0.4757
  187loPI   C4A 2986  13.707   7.337   8.526 -0.1489  0.1485  0.0090
  187loPI   C5A 2987  13.906   7.695   8.223 -0.0227 -0.1239 -0.2801
  187loPI   C6A 2988  13.931   7.959   7.991  0.0621 -0.1925  0.1348
  187loPI   C1B 2989  13.762   7.061   9.593 -0.0425 -0.1030 -0.2484
  187loPI   C2B 2990  13.830   7.084   9.146 -0.3429  0.2353  0.0797
  187loPI   C3B 2991  14.036   6.992   8.729  0.3046 -0.0789 -0.2031
  187loPI   C4B 2992  14.312   6.785   8.517 -0.1141  0.0754  0.1367
  188loPI    C1 2993   7.522  10.222  10.041 -0.0101 -0.1197  0.1811
  188loPI    C2 2994   7.757  10.508  10.193  0.0278 -0.0862  0.0608
  188loPI    C3 2995   7.371  10.491  10.297 -0.0079  0.0941 -0.0385
  188loPI   PO4 2996   7.548  10.216   9.784 -0.0450  0.0375 -0.0150
  188loPI   GL1 2997   7.725  10.200   9.515 -0.4956 -0.1735  0.0217
  188loPI   GL2 2998   7.983  10.389   9.637  0.0380 -0.3621  0.0868
  188loPI   C1A 2999   7.652  10.188   9.029 -0.2362 -0.1330 -0.0902
  188loPI   C2A 3000   7.610  10.163   8.607  0.0514  0.0424  0.0669
  188loPI   C3A 3001   7.664  10.009   8.178 -0.2055 -0.0121  0.0839
  188loPI   C4A 3002   7.489  10.127   7.723  0.0031  0.1826  0.3395
  188loPI   C5A 3003   7.376  10.040   7.322 -0.1981 -0.2043  0.0944
  188loPI   C6A 3004   7.088   9.908   7.067  0.0228  0.0980 -0.1554
  188loPI   C1B 3005   7.896  10.565   9.193 -0.1756 -0.1413 -0.2219
  188loPI   C2B 3006   7.981  10.515   8.709 -0.1074 -0.1789 -0.4465
  188loPI   C3B 3007   8.238  10.779   8.403 -0.4039  0.1595 -0.1615
  188loPI   C4B 3008   8.493  11.041   8.577 -0.1442 -0.1069 -0.2462
  189loPI    C1 3009  11.673   6.183  10.124  0.1976 -0.1791  0.0930
  189loPI    C2 3010  11.345   5.957  10.084 -0.1073  0.2771 -0.0610
  189loPI    C3 3011  11.339   6.278  10.323  0.1721  0.3908 -0.2028
  189loPI   PO4 3012  11.822   6.004  10.080 -0.0864 -0.0475  0.2144
  189loPI   GL1 3013  12.144   5.810   9.811 -0.0389  0.0547  0.5415
  189loPI   GL2 3014  12.198   6.181   9.835  0.2345  0.2318 -0.0381
  189loPI   C1A 3015  12.481   5.836   9.464 -0.3238 -0.0173 -0.3504
  189loPI   C2A 3016  12.518   5.667   9.004  0.2713  0.0382  0.0676
  189loPI   C3A 3017  12.206   5.574   8.664  0.1228 -0.0084  0.1215
  189loPI   C4A 3018  12.174   5.544   8.243 -0.1705  0.2465  0.1657
  189loPI   C5A 3019  12.347   5.178   7.960  0.0205 -0.0568 -0.1243
  189loPI   C6A 3020  12.484   5.266   7.537  0.0073 -0.0386  0.2236
  189loPI   C1B 3021  12.332   6.354   9.486  0.2348 -0.0082 -0.2645
  189loPI   C2B 3022  12.587   6.188   9.116 -0.0337  0.0586  0.6048
  189loPI   C3B 3023  12.779   6.135   8.694 -0.0111  0.0976  0.3234
  189loPI   C4B 3024  13.067   5.999   8.350 -0.1620 -0.1042  0.0193
  190loPI    C1 3025  12.813   4.964  10.611  0.1684  0.0627 -0.0111
  190loPI    C2 3026  12.737   5.319  10.779  0.2972  0.0559  0.0621
  190loPI    C3 3027  12.767   4.992  11.008  0.0532 -0.0240 -0.0177
  190loPI   PO4 3028  12.747   5.063  10.278 -0.0192  0.1372  0.2805
  190loPI   GL1 3029  12.498   4.981   9.978  0.0737  0.0010  0.0460
  190loPI   GL2 3030  12.443   4.745   9.709 -0.2407 -0.3683  0.0947
  190loPI   C1A 3031  12.662   5.167   9.433  0.1930 -0.2728  0.0347
  190loPI   C2A 3032  12.457   5.169   9.067  0.4812  0.0951 -0.3737
  190loPI   C3A 3033  12.074   5.185   8.907  0.3562  0.0962 -0.1382
  190loPI   C4A 3034  11.867   4.992   8.551  0.0785  0.2472 -0.1056
  190loPI   C5A 3035  11.890   4.775   8.183 -0.2284 -0.0864  0.1128
  190loPI   C6A 3036  11.882   4.510   7.811  0.4694  0.1010  0.0100
  190loPI   C1B 3037  12.300   4.495   9.360  0.1872 -0.4452  0.0505
  190loPI   C2B 3038  12.218   4.731   8.987  0.1618  0.0901  0.0182
  190loPI   C3B 3039  12.202   4.545   8.532  0.1451  0.2199 -0.1499
  190loPI   C4B 3040  12.364   4.615   8.115 -0.1958  0.0910 -0.1158
  191loPI    C1 3041   6.863  10.112  10.097 -0.0633  0.0997  0.0897
  191loPI    C2 3042   6.965  10.214  10.470 -0.1534  0.0501  0.1281
  191loPI    C3 3043   6.607  10.319  10.325 -0.0067  0.3216 -0.0450
  191loPI   PO4 3044   7.071  10.240   9.958 -0.2519  0.2318  0.2513
  191loPI   GL1 3045   7.059  10.351   9.538  0.3871  0.2090  0.0591
  191loPI   GL2 3046   6.883  10.294   9.358 -0.0129  0.0881  0.0637
  191loPI   C1A 3047   7.345  10.550   9.208 -0.0244 -0.1699  0.0933
  191loPI   C2A 3048   7.405  10.555   8.789 -0.0107 -0.2761  0.2366
  191loPI   C3A 3049   7.430  10.593   8.287 -0.2436 -0.4301  0.0240
  191loPI   C4A 3050   7.154  10.520   7.913  0.1799 -0.3018  0.0625
  191loPI   C5A 3051   6.977  10.391   7.493  0.1017 -0.3702  0.1305
  191loPI   C6A 3052   6.729  10.356   7.167 -0.1956  0.3067  0.0701
  191loPI   C1B 3053   6.659  10.238   9.056  0.0407  0.2918  0.1638
  191loPI   C2B 3054   6.573  10.074   8.825 -0.2219 -0.0533 -0.0084
  191loPI   C3B 3055   6.420  10.061   8.415 -0.1474  0.0698  0.1319
  191loPI   C4B 3056   6.296  10.067   8.131 -0.0902  0.0334  0.2145
  192loPI    C1 3057   5.556   7.716  10.353  0.1105  0.0568  0.1975
  192loPI    C2 3058   5.422   7.361  10.480 -0.0816  0.0998  0.1189
  192loPI    C3 3059   5.232   7.696  10.588 -0.1008  0.1541 -0.0804
  192loPI   PO4 3060   5.556   7.679  10.092  0.0355 -0.1163  0.1894
  192loPI   GL1 3061   5.811   7.797   9.845  0.0433 -0.0685 -0.0238
  192loPI   GL2 3062   6.008   7.783   9.603 -0.0121 -0.1501  0.2989
  192loPI   C1A 3063   5.501   7.558   9.468 -0.1754 -0.1085 -0.1942
  192loPI   C2A 3064   5.370   7.120   9.360 -0.0222 -0.1104 -0.0908
  192loPI   C3A 3065   5.367   7.109   8.903 -0.3222 -0.1885 -0.1428
  192loPI   C4A 3066   5.325   7.022   8.344 -0.2698 -0.2174  0.3028
  192loPI   C5A 3067   5.229   6.804   7.875  0.1020 -0.0756 -0.1262
  192loPI   C6A 3068   4.985   6.455   7.780 -0.0354 -0.0332 -0.2515
  192loPI   C1B 3069   6.210   7.732   9.199  0.0124  0.0806  0.2672
  192loPI   C2B 3070   6.240   7.678   8.762 -0.1225  0.0272  0.2110
  192loPI   C3B 3071   6.375   7.654   8.315 -0.1312  0.3047  0.3195
  192loPI   C4B 3072   6.676   7.516   8.001 -0.0905  0.1429 -0.0613
  193loPI    C1 3073  15.106   0.110  10.488  0.0688  0.1023  0.4052
  193loPI    C2 3074  14.823   0.352  10.633  0.0690  0.3876 -0.0501
  193loPI    C3 3075  14.724   0.059  10.380  0.0806 -0.0449  0.4313
  193loPI   PO4 3076  15.286   0.216  10.379  0.1409 -0.2676  0.3177
  193loPI   GL1 3077  15.076   0.332   9.908 -0.0343 -0.1950 -0.1057
  193loPI   GL2 3078  14.834   0.480  10.062  0.2530 -0.1843 -0.0835
  193loPI   C1A 3079  15.029   0.018   9.585 -0.6078 -0.1154 -0.0393
  193loPI   C2A 3080  15.223  -0.160   9.293 -0.0393  0.1310  0.2580
  193loPI   C3A 3081  15.264  -0.515   8.995 -0.0103  0.0626 -0.2545
  193loPI   C4A 3082  15.371  -0.554   8.643 -0.2511 -0.4097 -0.0430
  193loPI   C5A 3083  15.638  -0.315   8.431  0.0238 -0.2706 -0.3396
  193loPI   C6A 3084  16.050  -0.446   8.334  0.0666 -0.0292 -0.3639
  193loPI   C1B 3085  14.716   0.421   9.563  0.4771  0.3455 -0.3286
  193loPI   C2B 3086  14.846   0.295   9.187  0.0950  0.1374  0.0490
  193loPI   C3B 3087  15.035   0.086   8.889 -0.0624 -0.2046  0.0749
  193loPI   C4B 3088  15.210  -0.072   8.455 -0.1933  0.0174  0.2241
  194loPI    C1 3089   2.070   6.167  10.676  0.0759 -0.1741  0.0114
  194loPI    C2 3090   2.123   6.346  11.030  0.2870  0.2052 -0.2061
  194loPI    C3 3091   2.213   5.959  10.987 -0.0203  0.0771  0.2279
  194loPI   PO4 3092   2.133   6.212  10.409 -0.1119 -0.1015  0.2019
  194loPI   GL1 3093   2.296   6.005  10.020  0.1836  0.0672 -0.1804
  194loPI   GL2 3094   2.481   6.313  10.057 -0.3300  0.1938 -0.0364
  194loPI   C1A 3095   2.398   5.768   9.678  0.0073 -0.2154 -0.2216
  194loPI   C2A 3096   2.436   5.716   9.168  0.3147 -0.0527  0.0514
  194loPI   C3A 3097   2.511   5.793   8.763 -0.2661  0.2952  0.0511
  194loPI   C4A 3098   2.292   5.786   8.469 -0.1574  0.1954  0.0959
  194loPI   C5A 3099   2.100   5.638   8.059  0.1027 -0.0313  0.1558
  194loPI   C6A 3100   1.968   5.258   8.091  0.1121 -0.0205 -0.4656
  194loPI   C1B 3101   2.506   6.311   9.638  0.0368 -0.3957  0.0606
  194loPI   C2B 3102   2.754   6.251   9.243 -0.1411  0.0477  0.3292
  194loPI   C3B 3103   2.728   6.434   8.806 -0.0867 -0.1596 -0.1928
  194loPI   C4B 3104   2.948   6.563   8.419 -0.2567 -0.1023 -0.0322
  195loPI    C1 3105   1.074   7.962  10.247 -0.1819  0.1792  0.0139
  195loPI    C2 3106   0.848   7.752  10.502 -0.3007  0.3376  0.0407
  195loPI    C3 3107   1.123   8.006  10.642  0.1193 -0.0867  0.0101
  195loPI   PO4 3108   1.112   7.862  10.004 -0.1509 -0.0231 -0.0964
  195loPI   GL1 3109   0.883   7.942   9.652 -0.0541 -0.2157 -0.0055
  195loPI   GL2 3110   1.269   8.164   9.613 -0.0143 -0.0448  0.0198
  195loPI   C1A 3111   0.762   7.922   9.267 -0.0725 -0.1307  0.1108
  195loPI   C2A 3112   1.045   7.987   8.921 -0.0494  0.0440  0.0490
  195loPI   C3A 3113   1.489   8.028   8.727 -0.1913 -0.2754 -0.2911
  195loPI   C4A 3114   1.775   8.210   8.442  0.1630  0.2875  0.2559
  195loPI   C5A 3115   1.937   8.283   8.121 -0.0433 -0.1848  0.0509
  195loPI   C6A 3116   1.935   8.441   7.621  0.3515 -0.3285 -0.1368
  195loPI   C1B 3117   1.262   8.364   9.103 -0.2932 -0.3816 -0.1677
  195loPI   C2B 3118   1.224   8.413   8.704 -0.1247 -0.0619  0.1883
  195loPI   C3B 3119   1.395   8.526   8.427 -0.2842 -0.0107 -0.0980
  195loPI   C4B 3120   1.764   8.769   8.202 -0.0505  0.0144  0.0362
  196loPI    C1 3121  15.433   2.424  10.700 -0.0076 -0.1371 -0.2158
  196loPI    C2 3122  15.592   2.570  11.037 -0.1195 -0.1700 -0.1485
  196loPI    C3 3123  15.323   2.274  11.054 -0.2914 -0.0213 -0.2527
  196loPI   PO4 3124  15.656   2.364  10.508 -0.2737  0.1069 -0.1401
  196loPI   GL1 3125  15.754   2.445  10.117 -0.0115 -0.2493  0.1209
  196loPI   GL2 3126  15.731   2.786   9.967  0.0817  0.0264 -0.0378
  196loPI   C1A 3127  15.809   2.175   9.789 -0.2370  0.1214  0.1226
  196loPI   C2A 3128  16.120   2.108   9.463  0.2439  0.0330  0.1464
  196loPI   C3A 3129  16.425   2.176   9.122  0.3077 -0.0399  0.0685
  196loPI   C4A 3130  16.385   2.336   8.654 -0.2218 -0.1341 -0.1463
  196loPI   C5A 3131  15.890   2.511   8.543 -0.2188 -0.0324 -0.0403
  196loPI   C6A 3132  15.586   2.521   8.861 -0.0188 -0.1165 -0.1547
  196loPI   C1B 3133  15.613   2.906   9.692  0.1783 -0.0341  0.0856
  196loPI   C2B 3134  15.582   2.900   9.189 -0.3186 -0.1710  0.0512
  196loPI   C3B 3135  15.658   3.119   8.786 -0.2347 -0.0860  0.0911
  196loPI   C4B 3136  15.308   3.247   8.485  0.1273 -0.1873 -0.1372
  197loPI    C1 3137  17.044  10.713  10.601  0.0034 -0.1905  0.0086
  197loPI    C2 3138  17.365  10.673  10.837  0.0103 -0.3842 -0.0317
  197loPI    C3 3139  17.002  10.718  10.998  0.1023  0.2789  0.0189
  197loPI   PO4 3140  17.163  10.853  10.412  0.1679 -0.2866 -0.2310
  197loPI   GL1 3141  17.402  10.926  10.045  0.0914  0.1700  0.1018
  197loPI   GL2 3142  17.228  11.223  10.010  0.0489 -0.0057  0.3285
  197loPI   C1A 3143  17.428  10.840   9.645  0.0918  0.0013  0.1250
  197loPI   C2A 3144  17.320  10.533   9.326  0.1369 -0.0559 -0.1656
  197loPI   C3A 3145  17.357  10.495   8.861 -0.0463 -0.3663  0.0427
  197loPI   C4A 3146  17.361  10.221   8.422 -0.3798  0.0461 -0.0185
  197loPI   C5A 3147  17.143   9.798   8.215 -0.3754 -0.0433  0.1933
  197loPI   C6A 3148  16.828   9.561   8.108  0.3133  0.2572 -0.2249
  197loPI   C1B 3149  17.443  11.395   9.662  0.2840 -0.1400  0.0295
  197loPI   C2B 3150  17.364  11.386   9.220  0.1386  0.2403  0.0947
  197loPI   C3B 3151  17.464  11.536   8.723  0.0844 -0.2351 -0.0556
  197loPI   C4B 3152  17.406  11.671   8.247 -0.0673  0.0131  0.1135
  198loPI    C1 3153  14.971  10.201   9.945 -0.1549 -0.1069  0.3533
  198loPI    C2 3154  14.786   9.895   9.765  0.0130 -0.1352  0.2260
  198loPI    C3 3155  14.988   9.835  10.106 -0.1460 -0.1194  0.3242
  198loPI   PO4 3156  14.867  10.364   9.858  0.1223 -0.0072 -0.1121
  198loPI   GL1 3157  14.528  10.384   9.509 -0.1388 -0.1033 -0.2357
  198loPI   GL2 3158  14.770  10.545   9.403 -0.1152  0.4549  0.0002
  198loPI   C1A 3159  14.820  10.067   9.258  0.3017  0.1022  0.3846
  198loPI   C2A 3160  15.072   9.761   8.940  0.0402 -0.4070  0.4030
  198loPI   C3A 3161  15.204   9.712   8.558  0.2467  0.0844 -0.0193
  198loPI   C4A 3162  15.462   9.445   8.417 -0.1546  0.1136 -0.0945
  198loPI   C5A 3163  15.756   9.181   8.243 -0.2270  0.3287  0.1766
  198loPI   C6A 3164  16.154   8.924   8.251 -0.0143 -0.1021  0.0697
  198loPI   C1B 3165  14.560  10.584   8.986  0.0987 -0.1666  0.0773
  198loPI   C2B 3166  14.541  10.508   8.523  0.0235  0.0873 -0.1013
  198loPI   C3B 3167  14.731  10.419   8.082 -0.0745  0.1296  0.0982
  198loPI   C4B 3168  14.382  10.360   7.733  0.4004 -0.0380 -0.0103
  199loPI    C1 3169   6.483   5.031  10.397 -0.1109  0.2407  0.0996
  199loPI    C2 3170   6.796   5.163  10.607  0.1783 -0.1139 -0.0975
  199loPI    C3 3171   6.560   4.877  10.757  0.1351 -0.0693 -0.0804
  199loPI   PO4 3172   6.518   4.941  10.162  0.2322 -0.1185  0.2838
  199loPI   GL1 3173   6.407   4.806   9.693 -0.1522 -0.3807 -0.1244
  199loPI   GL2 3174   6.075   4.805   9.655 -0.3887  0.2955  0.0542
  199loPI   C1A 3175   6.661   4.875   9.390  0.0028  0.3257  0.0441
  199loPI   C2A 3176   6.689   5.036   9.044  0.1112 -0.1112  0.3610
  199loPI   C3A 3177   6.414   5.121   8.678  0.1217 -0.0612  0.1198
  199loPI   C4A 3178   6.260   5.142   8.325 -0.0547 -0.0781 -0.1891
  199loPI   C5A 3179   6.334   5.071   7.824 -0.1549 -0.1945 -0.0592
  199loPI   C6A 3180   6.218   4.847   7.459 -0.2874  0.0187 -0.1924
  199loPI   C1B 3181   6.122   4.948   9.219  0.1245  0.1259  0.1188
  199loPI   C2B 3182   5.906   4.977   8.777  0.1426  0.2166 -0.1855
  199loPI   C3B 3183   5.813   4.805   8.327 -0.0588  0.1380  0.1233
  199loPI   C4B 3184   6.043   4.502   8.044 -0.3707 -0.0783 -0.0157
  200loPI    C1 3185   4.136   2.103  10.119  0.1546  0.1333 -0.0732
  200loPI    C2 3186   4.109   2.053  10.515 -0.3398  0.1839 -0.0931
  200loPI    C3 3187   4.161   2.419  10.363 -0.0651  0.1544 -0.0752
  200loPI   PO4 3188   4.035   1.864  10.075  0.0504 -0.0135  0.0188
  200loPI   GL1 3189   3.761   1.839   9.677  0.0099  0.0405  0.0486
  200loPI   GL2 3190   3.966   1.625   9.619  0.3669  0.0356 -0.0253
  200loPI   C1A 3191   3.680   2.256   9.499  0.0040 -0.1760  0.4284
  200loPI   C2A 3192   3.638   2.460   9.008  0.0698 -0.0205 -0.2247
  200loPI   C3A 3193   3.439   2.700   8.683  0.0126  0.0910  0.0343
  200loPI   C4A 3194   3.567   3.127   8.455  0.0368 -0.1329 -0.1062
  200loPI   C5A 3195   3.753   3.265   8.038 -0.0212  0.0337  0.1503
  200loPI   C6A 3196   4.135   3.199   7.808  0.2641  0.0250  0.0848
  200loPI   C1B 3197   3.847   1.794   9.181 -0.0339 -0.0556  0.0419
  200loPI   C2B 3198   3.870   2.021   8.844  0.1208  0.0850 -0.3661
  200loPI   C3B 3199   3.889   2.137   8.437  0.1977 -0.2701  0.0889
  200loPI   C4B 3200   4.004   2.343   8.135  0.0011  0.0871  0.3850
  201loPI    C1 3201   8.932  17.819   9.672 -0.0843  0.1697 -0.0861
  201loPI    C2 3202   9.081  17.739   9.310  0.0174 -0.0418  0.0010
  201loPI    C3 3203   9.112  18.108   9.462  0.1967 -0.0135 -0.1011
  201loPI   PO4 3204   8.710  17.697   9.721 -0.1260  0.1352 -0.1614
  201loPI   GL1 3205   8.619  17.608   9.313  0.1201 -0.0173  0.0725
  201loPI   GL2 3206   8.712  17.293   9.323 -0.0603 -0.0775  0.1834
  201loPI   C1A 3207   8.738  17.601   8.929 -0.0278 -0.2501  0.0054
  201loPI   C2A 3208   8.884  17.613   8.594 -0.0897  0.0171 -0.1148
  201loPI   C3A 3209   9.147  17.776   8.355  0.3040  0.3609  0.1783
  201loPI   C4A 3210   9.270  17.930   7.948 -0.0129 -0.0683 -0.0392
  201loPI   C5A 3211   9.448  18.135   7.597 -0.1242  0.3107  0.1556
  201loPI   C6A 3212   9.622  18.185   7.172 -0.2976  0.0799 -0.0496
  201loPI   C1B 3213   8.831  17.027   9.040 -0.3509  0.2532  0.0068
  201loPI   C2B 3214   8.874  17.081   8.666 -0.2775  0.2994 -0.0511
  201loPI   C3B 3215   9.043  17.258   8.247  0.3375 -0.2386 -0.2533
  201loPI   C4B 3216   8.884  17.523   7.979  0.0910  0.0760  0.3464
  202loPI    C1 3217   8.280   0.662   9.806  0.2070 -0.2699  0.0171
  202loPI    C2 3218   8.441   0.960  10.019  0.0722 -0.2236  0.0557
  202loPI    C3 3219   8.156   0.731  10.180  0.0549 -0.2652 -0.0334
  202loPI   PO4 3220   8.206   0.762   9.563  0.1988  0.3405 -0.0125
  202loPI   GL1 3221   8.070   0.731   9.222 -0.1032  0.1399  0.3175
  202loPI   GL2 3222   8.048   1.022   9.046 -0.1707  0.0796  0.1720
  202loPI   C1A 3223   8.383   0.601   8.900 -0.0295 -0.0004  0.2126
  202loPI   C2A 3224   8.603   0.583   8.492 -0.0486  0.1196 -0.4663
  202loPI   C3A 3225   8.594   0.848   8.155 -0.0621  0.1107 -0.1912
  202loPI   C4A 3226   8.825   1.081   7.816  0.1255  0.1920 -0.0406
  202loPI   C5A 3227   9.031   0.936   7.528  0.0880 -0.1826 -0.2657
  202loPI   C6A 3228   9.461   0.848   7.417 -0.1501 -0.2160  0.1573
  202loPI   C1B 3229   8.272   1.135   8.683 -0.1812 -0.1046 -0.4522
  202loPI   C2B 3230   8.469   1.297   8.421 -0.0513  0.0185 -0.0329
  202loPI   C3B 3231   8.425   1.565   8.178 -0.1091 -0.3217 -0.1299
  202loPI   C4B 3232   8.554   1.621   7.800 -0.2120  0.0431 -0.2341
  203loPI    C1 3233   3.591  14.502  10.247 -0.2696 -0.0969 -0.1303
  203loPI    C2 3234   3.394  14.528  10.594  0.0608  0.0111  0.0541
  203loPI    C3 3235   3.649  14.226  10.530  0.0743  0.0455 -0.0569
  203loPI   PO4 3236   3.509  14.619  10.081  0.1967  0.0181  0.0756
  203loPI   GL1 3237   3.551  14.484   9.677 -0.2410  0.2564  0.2962
  203loPI   GL2 3238   3.861  14.368   9.556  0.2412 -0.0514 -0.0489
  203loPI   C1A 3239   3.454  14.352   9.216  0.2031 -0.0961 -0.4967
  203loPI   C2A 3240   3.591  14.242   8.854 -0.0492 -0.0627  0.3845
  203loPI   C3A 3241   3.577  14.019   8.521  0.1137 -0.0799  0.2817
  203loPI   C4A 3242   3.331  13.744   8.240  0.1043  0.3514  0.0406
  203loPI   C5A 3243   3.318  13.342   7.869 -0.0138  0.1315 -0.2339
  203loPI   C6A 3244   3.294  12.979   7.483 -0.1443 -0.0649 -0.2011
  203loPI   C1B 3245   3.988  14.557   9.226 -0.2192 -0.1673 -0.0446
  203loPI   C2B 3246   3.966  14.524   8.801  0.0497  0.0542 -0.1206
  203loPI   C3B 3247   3.861  14.636   8.483 -0.3093 -0.0445  0.1679
  203loPI   C4B 3248   3.752  14.255   8.097  0.0575 -0.1460 -0.1267
  204loPI    C1 3249  14.307  13.650  10.348  0.2866 -0.3657 -0.0361
  204loPI    C2 3250  14.031  13.415  10.518  0.0710 -0.1029 -0.0170
  204loPI    C3 3251  14.330  13.565  10.738  0.0394 -0.1166  0.0353
  204loPI   PO4 3252  14.440  13.531  10.180  0.2312 -0.2505  0.1616
  204loPI   GL1 3253  14.116  13.250   9.981 -0.1710 -0.3277 -0.0320
  204loPI   GL2 3254  13.874  13.143   9.903  0.3426  0.1271  0.1453
  204loPI   C1A 3255  14.184  13.372   9.569 -0.0585  0.1355  0.1690
  204loPI   C2A 3256  14.106  13.394   9.132 -0.0198  0.0300  0.1395
  204loPI   C3A 3257  13.614  13.325   8.959  0.0842  0.1372 -0.2445
  204loPI   C4A 3258  13.300  13.221   8.619  0.0763  0.2382  0.0345
  204loPI   C5A 3259  13.126  13.107   8.196  0.3880  0.1239  0.0236
  204loPI   C6A 3260  13.026  12.938   7.864 -0.0890 -0.1365 -0.0536
  204loPI   C1B 3261  13.871  13.019   9.510  0.0373  0.0110 -0.1297
  204loPI   C2B 3262  14.062  12.829   9.120 -0.0588  0.0518 -0.0496
  204loPI   C3B 3263  13.967  12.929   8.759  0.1531  0.1779 -0.3045
  204loPI   C4B 3264  13.690  13.103   8.378 -0.0958  0.1091 -0.0062
  205loPI    C1 3265  12.475   4.631  10.375  0.1243 -0.1594 -0.0399
  205loPI    C2 3266  12.118   4.548  10.536  0.0348  0.1520 -0.0724
  205loPI    C3 3267  12.407   4.706  10.762  0.1574 -0.1074 -0.0443
  205loPI   PO4 3268  12.528   4.393  10.190 -0.0786 -0.2058  0.4559
  205loPI   GL1 3269  12.595   4.240   9.720 -0.0118 -0.2891  0.0938
  205loPI   GL2 3270  12.227   4.077   9.647 -0.1903  0.1434  0.0312
  205loPI   C1A 3271  12.810   4.575   9.510 -0.2234  0.3648 -0.0803
  205loPI   C2A 3272  12.718   4.745   9.120  0.1128 -0.0805  0.1004
  205loPI   C3A 3273  12.653   4.733   8.674  0.3406 -0.0981  0.1099
  205loPI   C4A 3274  12.764   4.909   8.251 -0.2051 -0.0690  0.0422
  205loPI   C5A 3275  12.884   5.283   8.111  0.3065 -0.0956 -0.0458
  205loPI   C6A 3276  12.686   5.603   7.861 -0.0197  0.2230  0.0022
  205loPI   C1B 3277  12.249   4.015   9.208  0.1938 -0.1364 -0.4006
  205loPI   C2B 3278  12.553   4.259   8.851  0.1584  0.0827  0.0021
  205loPI   C3B 3279  12.688   4.297   8.458  0.2176 -0.0195  0.4523
  205loPI   C4B 3280  12.635   4.018   8.081 -0.2553  0.0036  0.0135
  206loPI    C1 3281   3.293   1.320  10.504 -0.0146 -0.0225  0.0969
  206loPI    C2 3282   3.672   1.196  10.531 -0.0799 -0.2828 -0.1375
  206loPI    C3 3283   3.420   1.135  10.835  0.0602 -0.1230  0.0128
  206loPI   PO4 3284   3.299   1.436  10.225 -0.0280 -0.0227 -0.4156
  206loPI   GL1 3285   3.414   1.355   9.712  0.2379 -0.0991 -0.3832
  206loPI   GL2 3286   3.151   1.261   9.659 -0.0136  0.0262  0.2457
  206loPI   C1A 3287   3.649   1.337   9.257  0.0101 -0.1441  0.2513
  206loPI   C2A 3288   3.505   1.238   8.807 -0.0433 -0.3170  0.2573
  206loPI   C3A 3289   3.669   1.291   8.360 -0.1008  0.1308  0.4577
  206loPI   C4A 3290   3.829   1.235   7.947  0.0378 -0.3545  0.3939
  206loPI   C5A 3291   4.207   1.084   7.781 -0.0453 -0.2214 -0.2751
  206loPI   C6A 3292   4.402   1.127   7.501 -0.3198  0.1985  0.2379
  206loPI   C1B 3293   3.168   1.256   9.210 -0.0880 -0.0458 -0.0766
  206loPI   C2B 3294   3.019   1.369   8.829 -0.1383  0.0549  0.0141
  206loPI   C3B 3295   3.092   1.499   8.318  0.1296 -0.0139  0.1790
  206loPI   C4B 3296   3.312   1.459   7.950  0.0803 -0.1948  0.0522
  207loPI    C1 3297   1.608   3.560  11.241 -0.1402  0.0609 -0.0840
  207loPI    C2 3298   1.584   3.908  11.437  0.1474 -0.0028  0.0692
  207loPI    C3 3299   1.380   3.590  11.569 -0.0420  0.0818 -0.0171
  207loPI   PO4 3300   1.737   3.795  10.952  0.1161 -0.1112 -0.0246
  207loPI   GL1 3301   1.749   3.802  10.489  0.0567 -0.3878 -0.1734
  207loPI   GL2 3302   1.577   4.022  10.315  0.2282 -0.2694 -0.2291
  207loPI   C1A 3303   1.565   3.585  10.220 -0.1166  0.1381  0.2643
  207loPI   C2A 3304   1.742   3.343   9.964  0.2431 -0.4005  0.2007
  207loPI   C3A 3305   1.743   3.485   9.566 -0.0506  0.0619  0.0958
  207loPI   C4A 3306   1.720   3.491   9.068  0.2851  0.0515 -0.1124
  207loPI   C5A 3307   1.869   3.754   8.716  0.1968  0.0567 -0.0338
  207loPI   C6A 3308   2.081   3.965   8.332  0.1201 -0.0983 -0.1147
  207loPI   C1B 3309   1.637   4.031   9.897  0.2632 -0.1397 -0.0452
  207loPI   C2B 3310   1.628   4.297   9.516  0.3026 -0.1651 -0.0536
  207loPI   C3B 3311   1.574   4.397   8.986  0.1759  0.0818 -0.1186
  207loPI   C4B 3312   1.632   4.755   8.823 -0.1893  0.0311  0.0889
  208loPI    C1 3313  14.810  16.253   9.796  0.1027 -0.0459  0.2057
  208loPI    C2 3314  14.793  16.343  10.186 -0.1526 -0.1117  0.2116
  208loPI    C3 3315  14.689  15.978  10.060 -0.1055 -0.0795  0.0779
  208loPI   PO4 3316  14.842  16.508   9.680 -0.0014 -0.0571  0.1826
  208loPI   GL1 3317  14.754  16.927   9.391  0.2060 -0.0749  0.0213
  208loPI   GL2 3318  14.827  16.679   9.179  0.3581  0.0831  0.0129
  208loPI   C1A 3319  14.795  17.195   9.084  0.2867 -0.0344  0.2248
  208loPI   C2A 3320  14.793  17.263   8.693 -0.0387 -0.0910  0.1836
  208loPI   C3A 3321  14.635  17.188   8.261 -0.0331  0.1213 -0.3795
  208loPI   C4A 3322  14.318  17.340   7.900 -0.0309  0.0669 -0.1223
  208loPI   C5A 3323  13.929  17.483   7.579  0.0910  0.0229 -0.0749
  208loPI   C6A 3324  13.434  17.561   7.676 -0.2914  0.2054  0.3825
  208loPI   C1B 3325  14.907  16.760   8.910 -0.2402  0.3164  0.1320
  208loPI   C2B 3326  14.872  16.791   8.511 -0.1292 -0.1708  0.2712
  208loPI   C3B 3327  14.751  16.752   8.041 -0.6009 -0.1644 -0.0552
  208loPI   C4B 3328  14.873  16.524   7.626 -0.0111 -0.0252 -0.1489
  209loPI    C1 3329   2.322   1.613  10.727 -0.0932  0.0075 -0.0426
  209loPI    C2 3330   2.326   1.357  11.034 -0.2936  0.0434 -0.0089
  209loPI    C3 3331   2.434   1.738  11.090 -0.3115  0.0453  0.0132
  209loPI   PO4 3332   2.107   1.458  10.600 -0.1276  0.2769 -0.0131
  209loPI   GL1 3333   1.882   1.313  10.346 -0.0002  0.0931 -0.2089
  209loPI   GL2 3334   1.878   1.047  10.066  0.1713  0.1274  0.1539
  209loPI   C1A 3335   2.006   1.507   9.932 -0.3306  0.1011 -0.1578
  209loPI   C2A 3336   2.312   1.677   9.731 -0.0197  0.1073  0.1600
  209loPI   C3A 3337   2.345   1.919   9.312 -0.2796  0.1385  0.2203
  209loPI   C4A 3338   2.284   1.876   8.912 -0.0154  0.0395  0.0029
  209loPI   C5A 3339   1.896   1.683   8.753 -0.0106  0.0660 -0.1686
  209loPI   C6A 3340   1.614   1.639   8.507 -0.0754  0.0374 -0.0104
  209loPI   C1B 3341   2.010   0.940   9.663 -0.0895  0.2641 -0.2822
  209loPI   C2B 3342   1.957   1.034   9.283 -0.0702  0.3143  0.0529
  209loPI   C3B 3343   1.743   1.214   8.881 -0.1272 -0.4206  0.2080
  209loPI   C4B 3344   1.480   1.186   8.545  0.0672  0.0558  0.1433
  210loPI    C1 3345   2.781  17.632  10.082 -0.2616  0.2617  0.0810
  210loPI    C2 3346   2.993  17.792  10.381 -0.0647  0.1555  0.0004
  210loPI    C3 3347   2.888  17.406  10.394 -0.2103  0.1947  0.0152
  210loPI   PO4 3348   2.873  17.690   9.852 -0.0840  0.3320  0.0621
  210loPI   GL1 3349   2.866  17.580   9.452  0.0882  0.2431  0.2981
  210loPI   GL2 3350   2.512  17.545   9.448 -0.0131 -0.0502 -0.2236
  210loPI   C1A 3351   2.846  17.216   9.242  0.1827 -0.0193  0.1819
  210loPI   C2A 3352   2.908  17.082   8.893 -0.3011 -0.2414  0.0768
  210loPI   C3A 3353   2.775  17.016   8.516 -0.1833 -0.4347 -0.1140
  210loPI   C4A 3354   2.460  17.102   8.153 -0.0687 -0.1267 -0.1469
  210loPI   C5A 3355   2.317  17.166   7.778  0.0981 -0.1131  0.0468
  210loPI   C6A 3356   2.358  16.987   7.322  0.0668 -0.2242  0.0050
  210loPI   C1B 3357   2.632  17.558   8.905  0.1852 -0.0316  0.4638
  210loPI   C2B 3358   2.392  17.522   8.520 -0.1481 -0.0451 -0.0538
  210loPI   C3B 3359   2.432  17.602   8.064 -0.0871 -0.1276 -0.1530
  210loPI   C4B 3360   2.602  17.747   7.777 -0.4085 -0.0624  0.4269
  211loPI    C1 3361   3.903   9.427  10.294  0.1718 -0.0142  0.2942
  211loPI    C2 3362   4.017   9.749  10.503  0.4901 -0.0856  0.2371
  211loPI    C3 3363   4.209   9.402  10.551  0.2108 -0.2446  0.2276
  211loPI   PO4 3364   3.834   9.472  10.084 -0.3175  0.4394  0.0008
  211loPI   GL1 3365   3.477   9.318   9.815 -0.0566  0.0243 -0.5598
  211loPI   GL2 3366   3.225   9.183   9.739  0.1037  0.0711 -0.0366
  211loPI   C1A 3367   3.321   9.343   9.328 -0.0661  0.1882  0.0863
  211loPI   C2A 3368   3.267   9.302   8.965  0.2840  0.1218  0.1542
  211loPI   C3A 3369   3.076   9.021   8.683  0.0681 -0.3224  0.1426
  211loPI   C4A 3370   3.140   8.855   8.263  0.2420  0.0140  0.2181
  211loPI   C5A 3371   3.348   8.728   7.762 -0.0759 -0.0888 -0.3288
  211loPI   C6A 3372   3.495   8.986   7.427  0.0750 -0.0472  0.2560
  211loPI   C1B 3373   3.186   9.740   9.588  0.4026 -0.0382 -0.0726
  211loPI   C2B 3374   3.170   9.976   9.154  0.1058 -0.1248 -0.0140
  211loPI   C3B 3375   3.259  10.093   8.818  0.3752 -0.1206 -0.2182
  211loPI   C4B 3376   3.243  10.208   8.387  0.2217 -0.4726  0.0600
  212loPI    C1 3377  12.311   5.343  10.530 -0.0677  0.2331 -0.0971
  212loPI    C2 3378  12.074   5.585  10.317 -0.0882  0.2055 -0.1057
  212loPI    C3 3379  12.210   5.702  10.674 -0.1236  0.2170 -0.0960
  212loPI   PO4 3380  12.202   5.094  10.367 -0.0047 -0.2103  0.3818
  212loPI   GL1 3381  12.022   5.275   9.915  0.0213 -0.1160 -0.0198
  212loPI   GL2 3382  11.735   5.180   9.702  0.2693  0.0695  0.0710
  212loPI   C1A 3383  12.222   5.284   9.613  0.1602 -0.2812 -0.1724
  212loPI   C2A 3384  12.112   5.526   9.336 -0.2394 -0.0090  0.0960
  212loPI   C3A 3385  11.769   5.601   9.054 -0.2231  0.0241  0.1537
  212loPI   C4A 3386  11.702   5.431   8.599 -0.0254  0.3301 -0.0629
  212loPI   C5A 3387  11.698   5.280   8.115  0.1948  0.0421 -0.1221
  212loPI   C6A 3388  11.910   5.204   7.744 -0.1348  0.0290 -0.1129
  212loPI   C1B 3389  11.422   5.289   9.376 -0.4059  0.0356  0.3046
  212loPI   C2B 3390  11.313   5.361   9.086  0.0514  0.3951 -0.1077
  212loPI   C3B 3391  11.207   5.568   8.742 -0.0208  0.3416 -0.1740
  212loPI   C4B 3392  11.248   5.558   8.391  0.1781 -0.0640  0.0774
  213loPI    C1 3393  12.272  17.796  10.164 -0.0883  0.0619  0.1054
  213loPI    C2 3394  11.995  18.037  10.005 -0.3908 -0.2754  0.1075
  213loPI    C3 3395  12.108  18.085  10.386 -0.2998 -0.0130  0.0496
  213loPI   PO4 3396  12.395  17.727   9.894 -0.0750 -0.1241  0.0492
  213loPI   GL1 3397  12.682  17.881   9.636 -0.0089 -0.2463  0.0289
  213loPI   GL2 3398  12.881  17.897   9.550  0.2738  0.4613  0.1456
  213loPI   C1A 3399  12.523  17.560   9.263 -0.2446  0.4195 -0.0163
  213loPI   C2A 3400  12.563  17.455   8.849 -0.0247 -0.1217 -0.1483
  213loPI   C3A 3401  12.585  17.416   8.403 -0.0440  0.0326 -0.1349
  213loPI   C4A 3402  12.856  17.329   8.047 -0.0585  0.2864 -0.0166
  213loPI   C5A 3403  13.112  17.113   7.703  0.0679  0.4493 -0.2404
  213loPI   C6A 3404  13.440  17.153   7.253  0.0210 -0.2607 -0.2556
  213loPI   C1B 3405  12.801  17.888   9.100 -0.0358 -0.0379  0.3612
  213loPI   C2B 3406  12.737  17.825   8.635  0.0890 -0.3575 -0.3256
  213loPI   C3B 3407  12.808  17.857   8.295  0.1053 -0.2789  0.0087
  213loPI   C4B 3408  13.039  17.776   7.873 -0.3006  0.1846 -0.2062
  214loPI    C1 3409  11.188  16.312  10.119 -0.0466 -0.0089  0.0548
  214loPI    C2 3410  10.965  16.006  10.249  0.0627 -0.0246  0.2093
  214loPI    C3 3411  10.978  16.347  10.458 -0.0205  0.0694  0.0633
  214loPI   PO4 3412  11.123  16.244   9.749 -0.0438 -0.1334  0.2557
  214loPI   GL1 3413  11.040  16.252   9.272 -0.2813  0.1245 -0.1645
  214loPI   GL2 3414  10.961  15.965   9.311 -0.0740  0.1713 -0.0423
  214loPI   C1A 3415  10.982  16.077   8.831 -0.2256 -0.3497 -0.0244
  214loPI   C2A 3416  10.946  16.027   8.425 -0.2989 -0.3378 -0.4617
  214loPI   C3A 3417  10.935  15.986   7.933 -0.0449 -0.3123 -0.0641
  214loPI   C4A 3418  11.004  15.637   7.657 -0.2222  0.0076 -0.6657
  214loPI   C5A 3419  11.200  15.758   7.287  0.3043  0.0212 -0.1861
  214loPI   C6A 3420  11.476  16.062   7.144  0.0381  0.0682  0.1249
  214loPI   C1B 3421  10.650  15.797   9.106 -0.0287  0.1416 -0.3045
  214loPI   C2B 3422  10.645  15.753   8.720  0.1677 -0.1083  0.1500
  214loPI   C3B 3423  10.461  15.739   8.347 -0.0712 -0.1206 -0.1372
  214loPI   C4B 3424  10.134  15.684   8.035 -0.0967 -0.0038  0.2128
  215loPI    C1 3425  14.378  11.744  10.266  0.1029  0.1164 -0.0028
  215loPI    C2 3426  14.299  11.586  10.625 -0.2237  0.2997  0.0111
  215loPI    C3 3427  14.472  11.363  10.341 -0.3342  0.0326  0.1501
  215loPI   PO4 3428  14.181  11.838  10.187  0.0563  0.1318 -0.0530
  215loPI   GL1 3429  14.205  12.062   9.760  0.0483  0.1743 -0.1259
  215loPI   GL2 3430  14.003  12.214   9.823  0.1286  0.0508 -0.0302
  215loPI   C1A 3431  14.197  12.262   9.231  0.0104 -0.1111 -0.0219
  215loPI   C2A 3432  14.083  12.346   8.843  0.2152  0.1619  0.0824
  215loPI   C3A 3433  13.997  12.124   8.496  0.1400  0.0508  0.1512
  215loPI   C4A 3434  14.213  12.091   8.228  0.0142  0.1671 -0.1990
  215loPI   C5A 3435  14.451  12.008   7.934  0.0359  0.1220 -0.1572
  215loPI   C6A 3436  14.419  11.818   7.511  0.1207  0.1635  0.3992
  215loPI   C1B 3437  13.859  12.496   9.428 -0.0425 -0.0599  0.1415
  215loPI   C2B 3438  13.575  12.847   9.189  0.1436  0.0483  0.4176
  215loPI   C3B 3439  13.526  12.793   8.742  0.0623 -0.1642 -0.0533
  215loPI   C4B 3440  13.651  12.530   8.572 -0.0382 -0.0459 -0.0458
  216loPI    C1 3441   2.641   3.336  10.374 -0.3588  0.3754 -0.1282
  216loPI    C2 3442   2.518   3.363  10.754 -0.1120  0.2045 -0.0334
  216loPI    C3 3443   2.867   3.526  10.644  0.0717 -0.1981 -0.0651
  216loPI   PO4 3444   2.447   3.451  10.217  0.0452  0.1505 -0.0951
  216loPI   GL1 3445   2.198   3.433   9.957  0.0974 -0.3906 -0.1952
  216loPI   GL2 3446   1.981   3.743  10.038 -0.1344 -0.1585  0.0139
  216loPI   C1A 3447   2.225   3.476   9.475  0.1227 -0.1130 -0.1490
  216loPI   C2A 3448   2.207   3.434   9.076 -0.1357  0.2760  0.2915
  216loPI   C3A 3449   2.281   3.434   8.610  0.1343  0.4051 -0.0028
  216loPI   C4A 3450   2.287   3.136   8.097 -0.3129 -0.2736 -0.0534
  216loPI   C5A 3451   2.203   3.287   7.628 -0.3006  0.0943 -0.0214
  216loPI   C6A 3452   2.086   3.179   7.133 -0.0139 -0.1662  0.1347
  216loPI   C1B 3453   2.055   3.882   9.656 -0.2984  0.0871 -0.0850
  216loPI   C2B 3454   1.969   4.034   9.206 -0.2951 -0.0832  0.1443
  216loPI   C3B 3455   2.046   4.306   8.809 -0.0179 -0.1412  0.0823
  216loPI   C4B 3456   2.275   4.430   8.499 -0.0537 -0.2672 -0.0762
  217loPI    C1 3457   1.239   0.313  10.106 -0.0290 -0.0229 -0.0436
  217loPI    C2 3458   1.336   0.686  10.213  0.0807  0.0007 -0.2221
  217loPI    C3 3459   1.056   0.486  10.417  0.2777  0.0476  0.1012
  217loPI   PO4 3460   1.543   0.213  10.003 -0.0059  0.0741 -0.1235
  217loPI   GL1 3461   1.531   0.196   9.523  0.0920  0.1097 -0.0851
  217loPI   GL2 3462   1.765  -0.104   9.513  0.3124  0.2421  0.3158
  217loPI   C1A 3463   1.655   0.504   9.327  0.0048  0.0173  0.2274
  217loPI   C2A 3464   1.592   0.597   8.917  0.0777 -0.2222  0.3411
  217loPI   C3A 3465   1.709   0.750   8.596 -0.1345 -0.0362  0.2004
  217loPI   C4A 3466   1.535   0.741   8.207  0.0202 -0.0845  0.0850
  217loPI   C5A 3467   1.181   0.633   8.066  0.4796 -0.3536  0.0219
  217loPI   C6A 3468   0.713   0.472   8.083 -0.0603 -0.0498 -0.1097
  217loPI   C1B 3469   1.678   0.104   9.018  0.2189 -0.1926 -0.0474
  217loPI   C2B 3470   1.513   0.145   8.606 -0.2671 -0.0278  0.0336
  217loPI   C3B 3471   1.547   0.266   8.133 -0.0918 -0.3578  0.1368
  217loPI   C4B 3472   1.684   0.502   7.825 -0.2742  0.3606 -0.2015
  218loPI    C1 3473   0.548   2.384  10.748  0.3209  0.0219 -0.1236
  218loPI    C2 3474   0.397   2.400  10.378  0.2079  0.2849 -0.0685
  218loPI    C3 3475   0.234   2.156  10.651  0.1241  0.2853 -0.1177
  218loPI   PO4 3476   0.795   2.403  10.683  0.0579 -0.1030 -0.1562
  218loPI   GL1 3477   0.925   2.336  10.343 -0.1548  0.1022  0.1365
  218loPI   GL2 3478   0.882   2.143  10.027  0.0282  0.0818  0.4420
  218loPI   C1A 3479   1.158   2.553  10.044 -0.2091  0.0670 -0.0511
  218loPI   C2A 3480   1.004   2.863   9.768 -0.0462 -0.0555  0.1931
  218loPI   C3A 3481   0.801   3.165   9.386  0.2547 -0.2751 -0.3990
  218loPI   C4A 3482   0.853   3.411   9.056  0.0342 -0.0315 -0.0877
  218loPI   C5A 3483   0.989   3.862   8.967  0.2175 -0.1789  0.0366
  218loPI   C6A 3484   0.688   4.296   9.012 -0.1613 -0.1499 -0.0392
  218loPI   C1B 3485   0.721   2.429   9.756 -0.2170 -0.4777  0.2815
  218loPI   C2B 3486   0.672   2.625   9.372 -0.0457 -0.1306  0.1063
  218loPI   C3B 3487   0.459   2.857   9.184 -0.0352 -0.2594  0.1672
  218loPI   C4B 3488   0.456   3.048   8.831 -0.1839  0.2253 -0.2184
  219loPI    C1 3489   1.705  13.971  10.236  0.0453  0.2021 -0.4183
  219loPI    C2 3490   1.600  14.232  10.520  0.0908 -0.0970 -0.1209
  219loPI    C3 3491   1.899  14.320  10.269 -0.0550  0.2371 -0.1827
  219loPI   PO4 3492   1.478  13.813  10.141 -0.1914 -0.0433 -0.0863
  219loPI   GL1 3493   1.392  13.793   9.792  0.1711  0.2073  0.1841
  219loPI   GL2 3494   1.737  14.014   9.719 -0.0512 -0.0263 -0.0305
  219loPI   C1A 3495   1.291  14.171   9.590 -0.0322  0.0111 -0.1970
  219loPI   C2A 3496   1.072  14.269   9.205  0.0584  0.0322 -0.1699
  219loPI   C3A 3497   0.953  14.448   8.844  0.3064 -0.0033 -0.0561
  219loPI   C4A 3498   0.579  14.463   8.578 -0.6200 -0.2552  0.4452
  219loPI   C5A 3499   0.463  14.325   8.089 -0.0755 -0.0092 -0.1312
  219loPI   C6A 3500   0.495  14.201   7.789  0.0137 -0.1428 -0.0403
  219loPI   C1B 3501   1.679  14.187   9.241  0.3412 -0.0963 -0.0677
  219loPI   C2B 3502   1.417  14.007   8.928  0.0075  0.2087 -0.0332
  219loPI   C3B 3503   1.099  14.043   8.615  0.0145 -0.2405  0.0613
  219loPI   C4B 3504   0.908  14.218   8.260 -0.2648  0.3585 -0.0343
  220loPI    C1 3505  14.067  16.128   9.980 -0.3242  0.1313 -0.0071
  220loPI    C2 3506  14.010  16.471   9.783  0.1105  0.1566 -0.0987
  220loPI    C3 3507  14.353  16.408   9.980  0.0441 -0.2345 -0.1008
  220loPI   PO4 3508  13.846  15.863   9.824 -0.1047 -0.0596 -0.0101
  220loPI   GL1 3509  13.783  15.678   9.512 -0.1596  0.0824 -0.0270
  220loPI   GL2 3510  13.428  15.531   9.432 -0.0129 -0.0481 -0.0041
  220loPI   C1A 3511  14.088  15.502   9.298  0.0759 -0.2701 -0.2065
  220loPI   C2A 3512  14.269  15.328   8.888 -0.0458  0.0225  0.0083
  220loPI   C3A 3513  14.206  15.232   8.371  0.3922 -0.0743  0.4046
  220loPI   C4A 3514  14.249  15.334   7.972  0.2730  0.4303 -0.1700
  220loPI   C5A 3515  14.437  15.742   7.746 -0.0150  0.4535 -0.0422
  220loPI   C6A 3516  14.880  15.971   7.785  0.2472 -0.3762 -0.0582
  220loPI   C1B 3517  13.450  15.569   8.948 -0.0926 -0.1173 -0.0506
  220loPI   C2B 3518  13.442  15.590   8.550  0.1594  0.3049 -0.0646
  220loPI   C3B 3519  13.417  15.861   8.193 -0.2158  0.1964 -0.3079
  220loPI   C4B 3520  13.454  15.896   7.724 -0.1411  0.0677  0.0409
  221loPI    C1 3521  13.533  13.968  10.201 -0.0361  0.0163  0.0080
  221loPI    C2 3522  13.365  13.787  10.516 -0.0096  0.1333  0.0901
  221loPI    C3 3523  13.758  13.861  10.514  0.0138  0.0087 -0.0306
  221loPI   PO4 3524  13.414  13.853   9.986 -0.0348 -0.0859 -0.1253
  221loPI   GL1 3525  13.307  13.600   9.742  0.2318  0.0054  0.0586
  221loPI   GL2 3526  13.312  13.328   9.594  0.4282  0.1060  0.0979
  221loPI   C1A 3527  13.744  13.561   9.514  0.1363 -0.2071  0.1915
  221loPI   C2A 3528  13.893  13.858   9.329  0.1339 -0.0761 -0.2226
  221loPI   C3A 3529  14.078  13.900   8.976 -0.2658  0.2604 -0.1711
  221loPI   C4A 3530  14.003  13.543   8.643 -0.1356 -0.0815 -0.1016
  221loPI   C5A 3531  14.023  13.604   8.154 -0.0640 -0.2162 -0.0675
  221loPI   C6A 3532  13.725  13.807   7.818 -0.0465  0.3740  0.0180
  221loPI   C1B 3533  13.134  13.443   9.226 -0.0828 -0.0365  0.0451
  221loPI   C2B 3534  13.045  13.633   8.899  0.0964 -0.2364 -0.1870
  221loPI   C3B 3535  13.037  13.699   8.425 -0.0230 -0.1819 -0.1305
  221loPI   C4B 3536  12.804  13.585   8.178 -0.2475  0.2162  0.1398
  222loPI    C1 3537   7.078  17.489  10.137  0.1312  0.2837 -0.0329
  222loPI    C2 3538   7.232  17.127  10.212 -0.2126  0.1682  0.1374
  222loPI    C3 3539   7.337  17.440  10.438  0.1940  0.2096 -0.0986
  222loPI   PO4 3540   6.949  17.412   9.810  0.1410 -0.0561 -0.0441
  222loPI   GL1 3541   6.914  17.510   9.336  0.4032 -0.0539 -0.1776
  222loPI   GL2 3542   7.088  17.316   9.295  0.0777 -0.1039 -0.0472
  222loPI   C1A 3543   6.841  17.496   8.806 -0.1855 -0.0217 -0.1412
  222loPI   C2A 3544   6.695  17.393   8.467  0.0694  0.0961  0.2006
  222loPI   C3A 3545   6.606  17.113   8.152 -0.0446  0.0753 -0.0507
  222loPI   C4A 3546   6.484  17.151   7.801  0.0816 -0.2010 -0.0441
  222loPI   C5A 3547   6.669  17.330   7.482  0.0216  0.3384  0.1457
  222loPI   C6A 3548   6.845  17.579   7.261  0.1972  0.2807 -0.0551
  222loPI   C1B 3549   7.303  17.614   9.098 -0.0468  0.2472  0.0620
  222loPI   C2B 3550   7.325  17.590   8.646 -0.0080 -0.2598  0.1810
  222loPI   C3B 3551   7.182  17.596   8.222 -0.0115  0.1446 -0.1969
  222loPI   C4B 3552   6.909  17.525   7.893  0.0365  0.2281  0.1072
  223loPI    C1 3553   4.399   5.502  10.222 -0.1270 -0.0434 -0.3884
  223loPI    C2 3554   4.033   5.525  10.381 -0.0034 -0.0374 -0.0979
  223loPI    C3 3555   4.338   5.386  10.600  0.2297  0.2495 -0.2332
  223loPI   PO4 3556   4.337   5.678   9.980 -0.1225 -0.2242 -0.2506
  223loPI   GL1 3557   4.160   5.502   9.616  0.4782  0.3276 -0.0074
  223loPI   GL2 3558   4.256   5.121   9.493  0.2966 -0.1152 -0.4152
  223loPI   C1A 3559   3.737   5.558   9.326  0.0561  0.0478  0.0153
  223loPI   C2A 3560   3.392   5.412   9.219 -0.0470 -0.0467  0.2255
  223loPI   C3A 3561   3.200   5.110   8.848 -0.1232 -0.2313  0.3786
  223loPI   C4A 3562   3.154   4.844   8.403  0.2235 -0.3450 -0.0193
  223loPI   C5A 3563   2.914   4.869   8.100 -0.3347 -0.2723 -0.3960
  223loPI   C6A 3564   2.735   4.577   7.935  0.0732 -0.2520  0.0040
  223loPI   C1B 3565   4.514   5.203   9.082  0.3098 -0.2203 -0.3306
  223loPI   C2B 3566   4.736   5.326   8.776 -0.0663  0.2094 -0.2866
  223loPI   C3B 3567   4.952   5.356   8.349 -0.1810 -0.0522  0.1792
  223loPI   C4B 3568   4.979   5.563   7.949  0.0358 -0.2027 -0.2378
  224loPI    C1 3569  18.512  17.826   9.957  0.2903 -0.0772  0.3197
  224loPI    C2 3570  18.604  17.489   9.762  0.0067 -0.1267  0.2678
  224loPI    C3 3571  18.527  17.479  10.155 -0.1847 -0.1548  0.2306
  224loPI   PO4 3572  18.740  17.974   9.725  0.2122 -0.0272  0.2643
  224loPI   GL1 3573  19.043  17.888   9.377 -0.1666 -0.3372 -0.0999
  224loPI   GL2 3574  18.864  17.594   9.299  0.2335  0.0133  0.0303
  224loPI   C1A 3575  19.076  18.039   9.007  0.1129  0.3702  0.0100
  224loPI   C2A 3576  19.277  18.065   8.655 -0.2273  0.1147  0.2204
  224loPI   C3A 3577  19.084  18.002   8.319  0.0952  0.0090  0.0987
  224loPI   C4A 3578  18.662  17.914   8.205 -0.0071 -0.2464  0.0231
  224loPI   C5A 3579  18.311  18.144   8.473  0.1719  0.1955  0.2067
  224loPI   C6A 3580  17.896  18.238   8.555 -0.3582 -0.2647  0.1279
  224loPI   C1B 3581  18.762  17.195   9.089  0.3747  0.3782  0.1145
  224loPI   C2B 3582  18.741  16.972   8.717 -0.0221  0.0444  0.1447
  224loPI   C3B 3583  18.720  17.084   8.266  0.1802 -0.1182  0.2026
  224loPI   C4B 3584  18.947  17.395   8.151 -0.0204  0.3281 -0.0328
  225loPI    C1 3585  10.464   4.187  10.358 -0.0471  0.0712 -0.0828
  225loPI    C2 3586  10.481   4.217  10.756  0.3265 -0.0711 -0.0831
  225loPI    C3 3587  10.376   3.871  10.586  0.1553 -0.0070 -0.1111
  225loPI   PO4 3588  10.730   4.369  10.252 -0.0652 -0.0329  0.1483
  225loPI   GL1 3589  10.853   4.421   9.847 -0.0247  0.3086 -0.2541
  225loPI   GL2 3590  10.986   4.075   9.656 -0.0468  0.0183 -0.0082
  225loPI   C1A 3591  10.822   4.569   9.495  0.0014  0.2451 -0.0122
  225loPI   C2A 3592  10.641   4.622   9.144  0.1042 -0.0489 -0.2360
  225loPI   C3A 3593  10.493   4.640   8.697 -0.3637  0.1756 -0.0359
  225loPI   C4A 3594  10.430   4.756   8.349 -0.0377 -0.1129  0.0689
  225loPI   C5A 3595  10.582   4.815   7.897  0.3783 -0.0442 -0.1227
  225loPI   C6A 3596  11.003   4.775   7.664  0.1375  0.2252 -0.0400
  225loPI   C1B 3597  10.964   4.146   9.253 -0.1210 -0.0370  0.1706
  225loPI   C2B 3598  10.690   4.191   8.925  0.1493 -0.2203 -0.0534
  225loPI   C3B 3599  10.743   4.022   8.528 -0.1389  0.1689  0.0338
  225loPI   C4B 3600  10.483   3.721   8.346  0.0994 -0.1348  0.0549
  226loPI    C1 3601   4.854   7.366  10.708  0.1012  0.0748  0.0638
  226loPI    C2 3602   5.184   7.381  10.934  0.1780  0.2270 -0.0565
  226loPI    C3 3603   4.866   7.604  11.029  0.0091 -0.1184  0.2125
  226loPI   PO4 3604   4.889   7.374  10.411  0.1549  0.2127  0.0861
  226loPI   GL1 3605   5.131   7.212  10.107  0.0180 -0.1035  0.0305
  226loPI   GL2 3606   5.595   7.182   9.920 -0.0626 -0.1827  0.0002
  226loPI   C1A 3607   4.950   7.061   9.663 -0.0301  0.1505  0.4589
  226loPI   C2A 3608   4.922   6.988   9.196  0.2191  0.2341 -0.3634
  226loPI   C3A 3609   4.706   6.762   8.913 -0.2179 -0.2047 -0.0736
  226loPI   C4A 3610   4.523   6.738   8.562  0.1225 -0.1047  0.0648
  226loPI   C5A 3611   4.292   6.813   8.238 -0.0003  0.2286 -0.0367
  226loPI   C6A 3612   4.071   7.164   7.949 -0.1086  0.0431 -0.0287
  226loPI   C1B 3613   5.401   6.917   9.822  0.0468  0.0769 -0.0460
  226loPI   C2B 3614   5.203   6.630   9.561  0.0627 -0.1173 -0.2998
  226loPI   C3B 3615   5.196   6.559   9.092  0.0408 -0.1765  0.2940
  226loPI   C4B 3616   5.345   6.642   8.702  0.0787  0.1422  0.0526
  227loPI    C1 3617  14.196   3.354  10.366 -0.0388 -0.1404  0.1019
  227loPI    C2 3618  13.988   3.662  10.218 -0.0348 -0.1232  0.1318
  227loPI    C3 3619  14.069   3.645  10.609  0.1152 -0.0738  0.1039
  227loPI   PO4 3620  14.405   3.266  10.111 -0.0275 -0.1319  0.1071
  227loPI   GL1 3621  14.368   3.168   9.729  0.1504  0.2599 -0.3677
  227loPI   GL2 3622  14.033   3.164   9.773 -0.2894  0.1636 -0.1403
  227loPI   C1A 3623  14.177   3.260   9.246  0.2027  0.0080 -0.0036
  227loPI   C2A 3624  14.272   3.392   8.943  0.3381  0.1543  0.0264
  227loPI   C3A 3625  14.216   3.307   8.571  0.3061 -0.1265 -0.0289
  227loPI   C4A 3626  14.203   3.496   8.146 -0.1954  0.2959 -0.0624
  227loPI   C5A 3627  13.899   3.776   8.039  0.0946 -0.3797 -0.1846
  227loPI   C6A 3628  13.418   3.856   7.864 -0.1869 -0.0211 -0.0654
  227loPI   C1B 3629  14.058   3.644   9.638  0.0125  0.0419  0.1054
  227loPI   C2B 3630  14.074   3.834   9.312  0.1565 -0.3896  0.1048
  227loPI   C3B 3631  13.928   3.808   8.921 -0.3985 -0.0241  0.1634
  227loPI   C4B 3632  13.950   3.877   8.501 -0.0321 -0.1639  0.1042
  228loPI    C1 3633   0.265  10.140  10.389 -0.2238 -0.0721 -0.0805
  228loPI    C2 3634   0.572  10.152  10.133 -0.0146  0.1312  0.1735
  228loPI    C3 3635   0.353  10.481  10.198 -0.2393  0.0077  0.0533
  228loPI   PO4 3636   0.083   9.957  10.285 -0.0734 -0.2921  0.2115
  228loPI   GL1 3637   0.107  10.135   9.905  0.2041 -0.0136 -0.0758
  228loPI   GL2 3638   0.206  10.439   9.698  0.0941 -0.0122 -0.1179
  228loPI   C1A 3639  -0.009   9.823   9.586 -0.1439  0.2889  0.3472
  228loPI   C2A 3640  -0.316   9.826   9.302  0.1901  0.3727  0.0753
  228loPI   C3A 3641  -0.118   9.623   8.786 -0.2615  0.0111 -0.1614
  228loPI   C4A 3642   0.147   9.269   8.548 -0.0804 -0.0268 -0.1517
  228loPI   C5A 3643   0.010   9.115   8.088 -0.0370  0.3041  0.3206
  228loPI   C6A 3644  -0.133   9.461   7.793  0.1683 -0.0396 -0.1752
  228loPI   C1B 3645   0.483  10.431   9.296 -0.0050 -0.0234  0.2521
  228loPI   C2B 3646   0.529  10.519   8.812 -0.0815 -0.2149 -0.3645
  228loPI   C3B 3647   0.298  10.744   8.464 -0.0304  0.2543 -0.0058
  228loPI   C4B 3648   0.279  11.036   8.125  0.1881  0.1609 -0.3504
  229loPI    C1 3649   8.724  10.686  10.290  0.0332  0.0261 -0.0453
  229loPI    C2 3650   8.946  11.019  10.282  0.0976 -0.0186 -0.1364
  229loPI    C3 3651   8.913  10.809  10.621  0.2606 -0.0559 -0.1426
  229loPI   PO4 3652   8.631  10.716  10.040  0.0986  0.0028  0.4146
  229loPI   GL1 3653   8.799  10.857   9.793  0.0951 -0.1855 -0.0185
  229loPI   GL2 3654   8.938  10.527   9.571  0.5462  0.1123 -0.2715
  229loPI   C1A 3655   8.769  11.026   9.380 -0.1116 -0.0694 -0.0144
  229loPI   C2A 3656   8.652  11.309   9.099 -0.0107 -0.0617 -0.1812
  229loPI   C3A 3657   8.526  11.514   8.791  0.0101 -0.4130 -0.1408
  229loPI   C4A 3658   8.610  11.594   8.338 -0.2687  0.2576  0.0749
  229loPI   C5A 3659   8.592  11.655   7.918  0.0413 -0.0858 -0.1174
  229loPI   C6A 3660   8.825  11.631   7.609  0.2045  0.1484 -0.0351
  229loPI   C1B 3661   9.096  10.662   9.181 -0.1449 -0.0112 -0.1164
  229loPI   C2B 3662   9.180  10.651   8.758 -0.4198  0.1292  0.0108
  229loPI   C3B 3663   9.288  10.439   8.461  0.0750  0.1235 -0.1000
  229loPI   C4B 3664   9.064  10.261   8.156 -0.1098  0.2500 -0.0670
  230loPI    C1 3665  16.760   7.635  10.849  0.0107 -0.0216 -0.0109
  230loPI    C2 3666  17.152   7.575  10.795  0.0028 -0.0257 -0.0629
  230loPI    C3 3667  17.023   7.787  11.109  0.0410 -0.1137  0.0123
  230loPI   PO4 3668  16.684   7.708  10.567  0.3843 -0.0173  0.1077
  230loPI   GL1 3669  16.655   7.424  10.272 -0.0419 -0.0948  0.0679
  230loPI   GL2 3670  16.776   7.683  10.080  0.1369  0.1783  0.1160
  230loPI   C1A 3671  16.394   7.338   9.968  0.0621 -0.2529 -0.1683
  230loPI   C2A 3672  16.266   7.342   9.557 -0.1733 -0.0999 -0.2539
  230loPI   C3A 3673  16.393   7.296   9.142 -0.0338 -0.0447  0.1958
  230loPI   C4A 3674  16.468   7.153   8.739 -0.0108  0.4025 -0.1210
  230loPI   C5A 3675  16.540   7.094   8.294  0.3023  0.1677 -0.0101
  230loPI   C6A 3676  16.641   7.416   8.064 -0.4183  0.2785 -0.1253
  230loPI   C1B 3677  16.683   7.787   9.627 -0.0135 -0.1366  0.1778
  230loPI   C2B 3678  16.757   7.626   9.195 -0.0828 -0.0202  0.0278
  230loPI   C3B 3679  16.671   7.614   8.812  0.2227  0.0172 -0.0573
  230loPI   C4B 3680  16.797   7.781   8.438 -0.0413 -0.0760 -0.1186
  231loPI    C1 3681   5.724   5.634  10.478  0.0685 -0.0742  0.4559
  231loPI    C2 3682   5.487   5.385  10.274  0.1746  0.2600 -0.0959
  231loPI    C3 3683   5.334   5.613  10.565 -0.0580  0.0503 -0.0500
  231loPI   PO4 3684   5.846   5.720  10.298 -0.0629  0.0732 -0.0626
  231loPI   GL1 3685   5.989   5.584   9.958  0.5613  0.1633  0.1506
  231loPI   GL2 3686   6.169   5.281   9.886  0.2075 -0.1680  0.0756
  231loPI   C1A 3687   5.757   5.280   9.625 -0.0735 -0.1534 -0.4327
  231loPI   C2A 3688   5.724   5.303   9.223 -0.3037 -0.0502  0.1933
  231loPI   C3A 3689   5.783   5.425   8.719  0.3718 -0.0270  0.4060
  231loPI   C4A 3690   5.877   5.470   8.338  0.1099 -0.1370 -0.0283
  231loPI   C5A 3691   5.879   5.491   8.038 -0.0734  0.1167  0.1056
  231loPI   C6A 3692   6.217   5.618   7.791  0.0566  0.0939 -0.3530
  231loPI   C1B 3693   6.418   5.282   9.506 -0.2250 -0.0881  0.2262
  231loPI   C2B 3694   6.335   5.444   9.104  0.0771  0.0360 -0.0052
  231loPI   C3B 3695   6.299   5.642   8.638  0.0769  0.2211  0.2561
  231loPI   C4B 3696   6.356   5.627   8.225  0.1220 -0.0721 -0.4298
  232loPI    C1 3697   6.263  17.956   9.867  0.1133 -0.0610 -0.0032
  232loPI    C2 3698   6.118  18.033  10.232  0.1621 -0.0312  0.0100
  232loPI    C3 3699   6.041  17.682  10.056  0.0722 -0.0145  0.0159
  232loPI   PO4 3700   6.188  18.246   9.679 -0.1295  0.1661  0.1394
  232loPI   GL1 3701   6.247  18.308   9.335 -0.1075  0.2090 -0.0783
  232loPI   GL2 3702   6.544  18.255   9.217 -0.1766  0.2458 -0.0393
  232loPI   C1A 3703   5.948  18.252   8.992  0.2716 -0.4163 -0.1169
  232loPI   C2A 3704   5.743  18.176   8.599 -0.0363 -0.1241  0.0281
  232loPI   C3A 3705   5.613  18.318   8.174 -0.0012  0.0695  0.3439
  232loPI   C4A 3706   5.554  18.742   7.881 -0.0594 -0.1475  0.0026
  232loPI   C5A 3707   5.576  19.192   7.739 -0.3266  0.4058 -0.1976
  232loPI   C6A 3708   5.856  19.618   7.933 -0.0815  0.1958  0.2561
  232loPI   C1B 3709   6.737  18.371   8.857  0.2228  0.2277  0.0605
  232loPI   C2B 3710   6.839  18.423   8.420 -0.1086  0.0862 -0.1204
  232loPI   C3B 3711   6.946  18.544   7.998 -0.0293  0.2919 -0.0796
  232loPI   C4B 3712   6.947  18.901   7.689  0.0702 -0.0109  0.0400
  233loPI    C1 3713   4.503  16.123  10.012  0.0885  0.0922 -0.3073
  233loPI    C2 3714   4.671  16.418  10.223  0.0081 -0.1760  0.1439
  233loPI    C3 3715   4.295  16.306  10.301  0.0164 -0.3562 -0.0669
  233loPI   PO4 3716   4.649  16.214   9.728 -0.0863  0.5021 -0.0022
  233loPI   GL1 3717   5.017  16.424   9.345  0.0237  0.0344 -0.1106
  233loPI   GL2 3718   5.044  16.041   9.310 -0.0911 -0.0718  0.1653
  233loPI   C1A 3719   4.886  16.439   8.965 -0.1883  0.3884 -0.0224
  233loPI   C2A 3720   4.730  16.597   8.570 -0.1007 -0.3665  0.0805
  233loPI   C3A 3721   4.766  16.572   8.158 -0.3797 -0.0630  0.0652
  233loPI   C4A 3722   4.981  16.795   7.840  0.2638  0.0098  0.0665
  233loPI   C5A 3723   5.062  17.214   7.657  0.0686 -0.1577 -0.0669
  233loPI   C6A 3724   5.149  17.559   7.469 -0.1295 -0.3110 -0.0188
  233loPI   C1B 3725   5.152  15.979   8.829  0.3585 -0.1475  0.0152
  233loPI   C2B 3726   4.991  16.080   8.397  0.2518 -0.0729  0.0775
  233loPI   C3B 3727   4.844  16.111   8.016  0.1231  0.0169 -0.1357
  233loPI   C4B 3728   4.740  16.340   7.565  0.2980  0.2549 -0.1014
  234loPI    C1 3729   7.414   9.442  10.129 -0.0715 -0.2457 -0.0651
  234loPI    C2 3730   7.178   9.697   9.930  0.2068 -0.0447 -0.1433
  234loPI    C3 3731   7.307   9.788  10.298  0.2968 -0.0775 -0.1663
  234loPI   PO4 3732   7.482   9.247  10.031 -0.0152  0.0150 -0.4612
  234loPI   GL1 3733   7.612   9.033   9.700  0.3003 -0.0013  0.2941
  234loPI   GL2 3734   7.544   9.410   9.586 -0.2742  0.0323 -0.2042
  234loPI   C1A 3735   7.493   8.969   9.336  0.1560 -0.0361  0.0312
  234loPI   C2A 3736   7.314   8.901   9.042 -0.2093  0.2454  0.0989
  234loPI   C3A 3737   7.182   8.762   8.708  0.1736 -0.0234  0.0170
  234loPI   C4A 3738   7.044   8.382   8.441 -0.0905  0.0189  0.0802
  234loPI   C5A 3739   7.124   8.176   8.086 -0.0201  0.1262 -0.1025
  234loPI   C6A 3740   7.141   7.728   8.093  0.0678 -0.1879  0.0878
  234loPI   C1B 3741   7.344   9.436   9.238  0.1433  0.0333  0.1671
  234loPI   C2B 3742   7.221   9.379   8.898  0.0854  0.4103  0.1147
  234loPI   C3B 3743   7.008   9.213   8.475 -0.0147  0.0229 -0.0454
  234loPI   C4B 3744   6.799   8.900   8.108 -0.2022 -0.1598  0.0866
  235loPI    C1 3745  11.598  17.138  10.011 -0.0300  0.0936 -0.1532
  235loPI    C2 3746  11.234  17.007  10.113  0.1093 -0.2131 -0.0384
  235loPI    C3 3747  11.526  16.745  10.032  0.4190  0.0252  0.2798
  235loPI   PO4 3748  11.538  17.359   9.897 -0.0022  0.1179 -0.3169
  235loPI   GL1 3749  11.484  17.676   9.623  0.0225  0.1730  0.0535
  235loPI   GL2 3750  11.845  17.680   9.708  0.1045  0.0443  0.0076
  235loPI   C1A 3751  11.477  17.654   9.268 -0.1060  0.1951 -0.0100
  235loPI   C2A 3752  11.564  17.339   9.035 -0.0091  0.1074  0.0123
  235loPI   C3A 3753  11.480  17.305   8.551 -0.3437 -0.1783  0.0596
  235loPI   C4A 3754  11.543  17.417   8.110 -0.1088  0.3378 -0.2273
  235loPI   C5A 3755  11.624  17.575   7.708  0.0729 -0.1967  0.0567
  235loPI   C6A 3756  11.947  17.408   7.472 -0.1929  0.0174  0.1649
  235loPI   C1B 3757  11.962  17.506   9.314  0.4111 -0.2071 -0.2316
  235loPI   C2B 3758  12.117  17.321   8.904  0.0265  0.4346  0.1741
  235loPI   C3B 3759  12.092  17.328   8.316  0.3297 -0.2291  0.0780
  235loPI   C4B 3760  12.257  17.367   7.906  0.0962 -0.1117 -0.2575
  236loPI    C1 3761   9.813   6.296  10.113 -0.1783  0.0601  0.2124
  236loPI    C2 3762   9.762   6.548   9.807  0.2617 -0.0122  0.0728
  236loPI    C3 3763   9.671   6.664  10.179 -0.1426  0.1254 -0.0641
  236loPI   PO4 3764  10.014   6.111   9.996  0.0014  0.1592  0.3271
  236loPI   GL1 3765  10.133   5.975   9.627  0.1787  0.1539  0.1451
  236loPI   GL2 3766  10.013   6.296   9.413 -0.2836 -0.2566 -0.2124
  236loPI   C1A 3767  10.565   5.969   9.406  0.1082 -0.1669 -0.0576
  236loPI   C2A 3768  10.915   6.065   9.386 -0.3849 -0.1342  0.0643
  236loPI   C3A 3769  11.297   6.295   9.174  0.3107 -0.1378  0.1300
  236loPI   C4A 3770  11.280   6.402   8.777 -0.1776 -0.3074  0.2439
  236loPI   C5A 3771  11.298   6.697   8.296  0.0997 -0.0781 -0.1887
  236loPI   C6A 3772  11.187   6.728   7.886 -0.1714  0.1808 -0.3457
  236loPI   C1B 3773  10.056   6.165   8.936  0.1143 -0.2664  0.1925
  236loPI   C2B 3774   9.909   6.240   8.539  0.3718  0.3242 -0.0233
  236loPI   C3B 3775   9.744   6.462   8.165  0.1414 -0.1442 -0.2786
  236loPI   C4B 3776   9.858   6.657   7.812 -0.0483  0.2386 -0.2411
  237loPI    C1 3777  12.614  16.777   9.872 -0.3334  0.0308  0.1330
  237loPI    C2 3778  12.841  16.453   9.816  0.1437  0.3610  0.0981
  237loPI    C3 3779  12.520  16.433  10.053  0.1909 -0.1217  0.1321
  237loPI   PO4 3780  12.613  16.969   9.702  0.0284 -0.0663 -0.1505
  237loPI   GL1 3781  12.484  17.090   9.391  0.1616  0.0015 -0.0831
  237loPI   GL2 3782  12.372  16.650   9.425  0.1263 -0.0624  0.1080
  237loPI   C1A 3783  12.427  16.935   8.964 -0.0789  0.0747  0.0197
  237loPI   C2A 3784  12.323  16.880   8.455 -0.1906  0.1425  0.2810
  237loPI   C3A 3785  12.446  16.922   8.055  0.2850 -0.3217 -0.1611
  237loPI   C4A 3786  12.349  17.010   7.626  0.0842 -0.3206 -0.0839
  237loPI   C5A 3787  12.273  16.969   7.217 -0.0112 -0.0325  0.1896
  237loPI   C6A 3788  12.178  16.754   6.815  0.1879 -0.0407 -0.1608
  237loPI   C1B 3789  12.006  16.836   9.194  0.1622 -0.0100 -0.1959
  237loPI   C2B 3790  11.897  16.907   8.754 -0.1961 -0.1657 -0.1315
  237loPI   C3B 3791  11.765  16.873   8.404  0.2955 -0.1679  0.4105
  237loPI   C4B 3792  11.931  16.994   8.030  0.0239 -0.0950 -0.0395
  238loPI    C1 3793   1.837   2.827  10.913  0.2378  0.1637 -0.1738
  238loPI    C2 3794   1.481   3.009  10.911  0.1345 -0.0353 -0.1346
  238loPI    C3 3795   1.814   3.222  10.972 -0.0197  0.0791  0.3469
  238loPI   PO4 3796   1.793   2.541  10.742 -0.3250  0.0739 -0.1766
  238loPI   GL1 3797   1.741   2.488  10.272  0.1185  0.3467  0.0645
  238loPI   GL2 3798   1.957   2.385  10.035 -0.2056 -0.1447 -0.1760
  238loPI   C1A 3799   1.691   2.770  10.014 -0.0931  0.1868  0.0910
  238loPI   C2A 3800   1.606   2.899   9.609 -0.0268 -0.0306  0.1033
  238loPI   C3A 3801   1.593   2.966   9.092  0.2482 -0.2691 -0.1082
  238loPI   C4A 3802   1.773   3.095   8.758 -0.0666 -0.1306  0.1654
  238loPI   C5A 3803   2.090   2.968   8.530  0.0250 -0.3288 -0.3077
  238loPI   C6A 3804   2.604   2.841   8.357 -0.2737 -0.0679  0.1558
  238loPI   C1B 3805   1.907   2.433   9.716  0.1599 -0.2207  0.3387
  238loPI   C2B 3806   1.717   2.528   9.266 -0.2792  0.1950 -0.1554
  238loPI   C3B 3807   1.812   2.621   8.791  0.1150 -0.3804 -0.2652
  238loPI   C4B 3808   1.592   2.698   8.362 -0.0574  0.1312 -0.4518
  239loPI    C1 3809  14.959   1.029  10.996 -0.2241 -0.0157  0.0768
  239loPI    C2 3810  15.032   1.402  11.121 -0.0858 -0.0443  0.0833
  239loPI    C3 3811  14.776   1.169  11.322 -0.0063 -0.0267  0.2054
  239loPI   PO4 3812  15.050   1.205  10.653  0.1196  0.2405  0.2047
  239loPI   GL1 3813  15.224   1.311  10.313 -0.2245  0.1154 -0.1606
  239loPI   GL2 3814  15.014   1.060  10.161 -0.1998  0.3056 -0.2221
  239loPI   C1A 3815  15.318   1.215   9.836  0.0398 -0.2545 -0.3401
  239loPI   C2A 3816  15.372   1.439   9.482 -0.1504  0.6028  0.1643
  239loPI   C3A 3817  15.270   1.496   9.095 -0.0860 -0.4986 -0.2757
  239loPI   C4A 3818  15.225   1.328   8.725  0.0241  0.0959  0.0351
  239loPI   C5A 3819  15.004   1.074   8.457  0.0481  0.0776  0.2668
  239loPI   C6A 3820  14.639   0.943   8.259  0.0532  0.2160 -0.2650
  239loPI   C1B 3821  14.649   0.928   9.865  0.0435 -0.0240 -0.2254
  239loPI   C2B 3822  14.454   0.901   9.570  0.3527  0.1785  0.4094
  239loPI   C3B 3823  14.439   1.128   9.173  0.4287  0.1902  0.0935
  239loPI   C4B 3824  14.570   1.053   8.771 -0.0728 -0.0435 -0.0972
  240loPI    C1 3825   1.766  17.802  10.235 -0.1688 -0.0370 -0.2868
  240loPI    C2 3826   2.022  17.550  10.411 -0.1425  0.0679 -0.1732
  240loPI    C3 3827   1.632  17.464  10.400 -0.1438  0.0590 -0.0661
  240loPI   PO4 3828   1.915  17.883   9.974  0.0197  0.3155  0.1230
  240loPI   GL1 3829   2.081  18.046   9.661 -0.2817 -0.3169  0.2275
  240loPI   GL2 3830   2.094  17.770   9.490  0.2764 -0.4719  0.1269
  240loPI   C1A 3831   1.970  18.223   9.168 -0.2016 -0.1989  0.2186
  240loPI   C2A 3832   1.985  18.397   8.707 -0.1338 -0.1044  0.0635
  240loPI   C3A 3833   1.834  18.440   8.316 -0.0114 -0.0294 -0.2400
  240loPI   C4A 3834   1.971  18.412   7.917 -0.0147  0.1153  0.0133
  240loPI   C5A 3835   2.115  18.439   7.604 -0.1279  0.1476  0.1286
  240loPI   C6A 3836   2.071  18.869   7.359  0.0056  0.4446  0.0975
  240loPI   C1B 3837   2.170  17.699   9.018 -0.1101  0.0562 -0.0712
  240loPI   C2B 3838   2.166  17.917   8.659 -0.1342  0.2701 -0.0250
  240loPI   C3B 3839   2.318  18.117   8.254  0.2788  0.1636  0.0600
  240loPI   C4B 3840   2.521  18.228   7.887  0.1299 -0.0583  0.0602
  241loPI    C1 3841  13.848   6.303  10.771  0.1564  0.1802 -0.0432
  241loPI    C2 3842  13.813   6.356  11.166  0.0446  0.0703 -0.0383
  241loPI    C3 3843  13.960   6.649  10.939 -0.0245  0.1871  0.0661
  241loPI   PO4 3844  13.943   6.064  10.614  0.1762  0.1631 -0.1406
  241loPI   GL1 3845  13.714   5.869  10.107  0.0053 -0.3510 -0.1553
  241loPI   GL2 3846  13.715   6.237   9.979 -0.1477  0.3384 -0.1328
  241loPI   C1A 3847  13.829   5.822   9.706  0.0675  0.0127  0.5753
  241loPI   C2A 3848  13.980   5.552   9.402  0.0180  0.3808  0.0451
  241loPI   C3A 3849  14.153   5.599   8.961 -0.0217  0.0332 -0.0549
  241loPI   C4A 3850  13.920   5.492   8.658  0.2310  0.2859  0.1070
  241loPI   C5A 3851  13.975   5.179   8.363  0.0125  0.0627  0.3219
  241loPI   C6A 3852  14.231   5.196   8.067 -0.2970 -0.0172  0.1929
  241loPI   C1B 3853  13.563   6.317   9.591 -0.0715 -0.2277 -0.1416
  241loPI   C2B 3854  13.561   6.236   9.171  0.3074  0.0665  0.0924
  241loPI   C3B 3855  13.345   5.910   8.807 -0.1095 -0.1982  0.0150
  241loPI   C4B 3856  13.410   5.628   8.420 -0.2708 -0.2909  0.0385
  242loPI    C1 3857   0.397   0.298  10.595  0.2610 -0.2634  0.1137
  242loPI    C2 3858   0.008   0.374  10.541  0.3148 -0.1733 -0.1620
  242loPI    C3 3859   0.126   0.136  10.840  0.0739  0.0701  0.1318
  242loPI   PO4 3860   0.564   0.504  10.316  0.2174 -0.2085  0.1308
  242loPI   GL1 3861   0.384   0.658   9.937  0.0073  0.0487  0.0692
  242loPI   GL2 3862   0.111   0.569   9.958 -0.4433  0.1608  0.2310
  242loPI   C1A 3863   0.206   0.899   9.546  0.0984 -0.1746  0.3520
  242loPI   C2A 3864  -0.069   1.156   9.504  0.0624  0.3631  0.0103
  242loPI   C3A 3865  -0.381   1.419   9.194  0.0956 -0.2346 -0.0190
  242loPI   C4A 3866  -0.359   1.645   8.845  0.0262  0.1875 -0.0535
  242loPI   C5A 3867  -0.065   1.847   8.647 -0.0277 -0.0096  0.2040
  242loPI   C6A 3868  -0.050   2.096   8.187 -0.0147  0.0928  0.0680
  242loPI   C1B 3869   0.017   0.377   9.655 -0.0414 -0.1180  0.2383
  242loPI   C2B 3870  -0.036   0.131   9.334 -0.2451  0.0724  0.1834
  242loPI   C3B 3871   0.286  -0.038   8.997  0.0597 -0.1454  0.3688
  242loPI   C4B 3872   0.234  -0.252   8.639  0.4215 -0.3919  0.0683
  243loPI    C1 3873  17.050  13.699   9.933  0.2109  0.0096  0.0357
  243loPI    C2 3874  17.020  13.537   9.569  0.0110 -0.0684  0.0858
  243loPI    C3 3875  17.301  13.812   9.643 -0.0677  0.0874 -0.1793
  243loPI   PO4 3876  16.821  13.814   9.975 -0.1249  0.0563  0.0433
  243loPI   GL1 3877  16.568  14.043   9.599  0.4021 -0.0769  0.2664
  243loPI   GL2 3878  16.280  14.281   9.471 -0.0122  0.1377 -0.0635
  243loPI   C1A 3879  16.760  13.950   9.340  0.0036  0.1095 -0.1390
  243loPI   C2A 3880  17.151  13.990   9.186  0.2566  0.2549  0.1358
  243loPI   C3A 3881  17.284  14.065   8.722 -0.2767  0.0543 -0.2357
  243loPI   C4A 3882  17.357  13.848   8.396  0.1710 -0.0950  0.0482
  243loPI   C5A 3883  17.481  13.552   8.065  0.1318  0.3635  0.0836
  243loPI   C6A 3884  17.595  13.074   8.019  0.1122 -0.2834  0.2204
  243loPI   C1B 3885  16.278  14.191   9.076  0.1472  0.1470 -0.0081
  243loPI   C2B 3886  16.382  13.915   8.750 -0.0994  0.1914  0.0269
  243loPI   C3B 3887  16.335  13.608   8.383  0.2446 -0.2255 -0.2236
  243loPI   C4B 3888  15.927  13.504   8.531 -0.0511 -0.1568  0.2237
  244loPI    C1 3889   7.720  16.023   9.659  0.0920  0.1977 -0.0111
  244loPI    C2 3890   7.796  15.986  10.050 -0.0596  0.1389  0.0132
  244loPI    C3 3891   7.504  16.229   9.925 -0.1288  0.0228 -0.0524
  244loPI   PO4 3892   7.906  16.101   9.558  0.0511 -0.1665  0.1921
  244loPI   GL1 3893   7.931  16.319   9.176 -0.2400  0.0863  0.0068
  244loPI   GL2 3894   7.820  16.639   9.268 -0.0640 -0.1356  0.0644
  244loPI   C1A 3895   7.809  16.328   8.926 -0.0776  0.4186  0.0637
  244loPI   C2A 3896   7.776  16.352   8.497 -0.0358  0.0060 -0.1532
  244loPI   C3A 3897   7.777  16.278   8.081 -0.0221  0.2122  0.0500
  244loPI   C4A 3898   7.666  16.093   7.635  0.0627  0.0042 -0.0125
  244loPI   C5A 3899   7.586  15.790   7.385  0.0412  0.0774  0.0128
  244loPI   C6A 3900   7.649  15.427   7.250  0.2226 -0.1826 -0.2117
  244loPI   C1B 3901   7.877  16.828   8.844  0.0679  0.2677  0.0396
  244loPI   C2B 3902   7.883  16.858   8.398  0.1691  0.3069  0.3869
  244loPI   C3B 3903   7.905  16.822   7.999  0.1055 -0.1882  0.3061
  244loPI   C4B 3904   8.255  16.967   7.715 -0.0907  0.0460 -0.0175
  245loPI    C1 3905   7.751   3.928   9.965 -0.0993 -0.1958 -0.1418
  245loPI    C2 3906   7.414   4.071  10.125 -0.0958 -0.1220 -0.2000
  245loPI    C3 3907   7.578   3.736  10.270 -0.1740 -0.1379 -0.1475
  245loPI   PO4 3908   7.654   3.812   9.706  0.0152 -0.2726  0.2785
  245loPI   GL1 3909   7.296   3.720   9.553  0.0229 -0.0000 -0.1856
  245loPI   GL2 3910   7.381   3.553   9.300  0.2040 -0.0400  0.1338
  245loPI   C1A 3911   6.944   3.944   9.364  0.1908 -0.0348 -0.1049
  245loPI   C2A 3912   6.770   4.110   8.878  0.1446  0.1425 -0.1951
  245loPI   C3A 3913   6.757   4.328   8.461 -0.1047 -0.2435  0.2702
  245loPI   C4A 3914   6.911   4.350   8.096  0.0838  0.2021 -0.2595
  245loPI   C5A 3915   6.740   4.660   7.777 -0.0530  0.0190  0.0718
  245loPI   C6A 3916   7.035   4.882   7.569 -0.2768  0.4398  0.1990
  245loPI   C1B 3917   7.139   3.635   9.005 -0.0743  0.2031 -0.1509
  245loPI   C2B 3918   7.054   3.707   8.645 -0.1590  0.0288 -0.1018
  245loPI   C3B 3919   6.936   3.820   8.076  0.2139  0.0571 -0.0517
  245loPI   C4B 3920   6.931   3.608   7.762  0.0318  0.1655  0.0183
  246loPI    C1 3921  17.285  15.916  10.211 -0.0495 -0.1409 -0.0320
  246loPI    C2 3922  16.959  15.707  10.311 -0.1631  0.0902  0.0900
  246loPI    C3 3923  17.017  16.071  10.466 -0.1662  0.3150 -0.4175
  246loPI   PO4 3924  17.259  15.914   9.937 -0.2192 -0.4732 -0.0958
  246loPI   GL1 3925  17.455  16.258   9.706  0.1178 -0.0576 -0.2008
  246loPI   GL2 3926  17.099  16.227   9.565  0.0147  0.0854 -0.0875
  246loPI   C1A 3927  17.408  16.424   9.216  0.1233  0.0686 -0.0735
  246loPI   C2A 3928  17.460  16.427   8.797  0.2584  0.3375  0.1903
  246loPI   C3A 3929  17.574  16.539   8.423  0.0182 -0.0697 -0.1746
  246loPI   C4A 3930  17.658  16.353   8.045 -0.6446 -0.0958 -0.0910
  246loPI   C5A 3931  17.446  16.243   7.610  0.0239 -0.1672 -0.0060
  246loPI   C6A 3932  17.141  16.585   7.610  0.1602 -0.2102  0.0668
  246loPI   C1B 3933  17.261  15.961   9.170  0.1098  0.0032  0.2273
  246loPI   C2B 3934  17.333  15.962   8.737 -0.0159  0.1142  0.3457
  246loPI   C3B 3935  17.182  15.873   8.323 -0.2439 -0.3084  0.1168
  246loPI   C4B 3936  17.029  16.037   7.861  0.2279  0.2317 -0.0839
  247loPI    C1 3937   2.770   8.616  10.479 -0.1761 -0.0875  0.0361
  247loPI    C2 3938   2.963   8.926  10.642 -0.0420 -0.0263 -0.2338
  247loPI    C3 3939   2.592   8.836  10.762  0.0524  0.0163  0.1011
  247loPI   PO4 3940   2.801   8.623  10.252  0.2654  0.1235  0.1164
  247loPI   GL1 3941   2.761   8.415   9.753 -0.2471  0.0385 -0.1047
  247loPI   GL2 3942   2.929   8.758   9.779 -0.1139  0.1271 -0.0435
  247loPI   C1A 3943   2.680   8.429   9.343 -0.0030 -0.1659 -0.2553
  247loPI   C2A 3944   2.687   8.261   8.938  0.0284 -0.0987 -0.0195
  247loPI   C3A 3945   2.767   8.032   8.557 -0.1341  0.2867  0.0721
  247loPI   C4A 3946   2.725   7.685   8.286 -0.2559 -0.0900  0.4246
  247loPI   C5A 3947   2.662   7.434   7.916  0.0898  0.3333  0.1774
  247loPI   C6A 3948   2.979   7.162   7.587  0.1046 -0.3217  0.1120
  247loPI   C1B 3949   3.151   8.536   9.493 -0.2532  0.1023  0.1719
  247loPI   C2B 3950   3.554   8.415   9.319  0.0385 -0.0309 -0.6448
  247loPI   C3B 3951   3.634   8.343   8.895  0.1163  0.1055 -0.0443
  247loPI   C4B 3952   3.738   8.274   8.464 -0.0865  0.0281 -0.2112
  248loPI    C1 3953   6.648  13.083   9.604  0.1170  0.0210 -0.2781
  248loPI    C2 3954   6.938  13.319   9.463 -0.0447  0.4027  0.0114
  248loPI    C3 3955   6.836  13.337   9.849  0.0151 -0.2281  0.0669
  248loPI   PO4 3956   6.446  13.085   9.382  0.1518 -0.0203 -0.0921
  248loPI   GL1 3957   6.399  12.787   9.234 -0.1211  0.1129 -0.0531
  248loPI   GL2 3958   6.078  12.709   9.182  0.1871  0.0524 -0.1882
  248loPI   C1A 3959   6.494  12.397   9.138  0.0052  0.3166 -0.0311
  248loPI   C2A 3960   6.568  12.190   8.763 -0.0921 -0.0024 -0.1025
  248loPI   C3A 3961   6.320  12.225   8.362  0.0832  0.0284  0.1750
  248loPI   C4A 3962   6.437  12.198   7.879 -0.0304 -0.0989  0.1682
  248loPI   C5A 3963   6.793  12.427   7.563  0.1103  0.0385  0.0632
  248loPI   C6A 3964   6.935  12.390   7.184  0.0588  0.0830  0.0821
  248loPI   C1B 3965   6.292  12.630   8.766 -0.4256 -0.0069  0.3195
  248loPI   C2B 3966   6.175  12.712   8.413  0.1123 -0.0808  0.0732
  248loPI   C3B 3967   6.148  12.925   7.991  0.1271 -0.1828 -0.0826
  248loPI   C4B 3968   5.905  12.958   7.615 -0.1755 -0.1641 -0.3850
  249loPI    C1 3969  10.037   1.177  10.073 -0.0557  0.1453  0.0286
  249loPI    C2 3970   9.896   0.984  10.394 -0.0522 -0.0568 -0.0896
  249loPI    C3 3971  10.031   1.359  10.430 -0.1241 -0.0500  0.1288
  249loPI   PO4 3972   9.847   1.079   9.872 -0.0409 -0.0534  0.3243
  249loPI   GL1 3973   9.683   1.160   9.517 -0.1344  0.0533  0.1066
  249loPI   GL2 3974   9.685   1.007   9.260  0.0191  0.2403  0.1051
  249loPI   C1A 3975   9.757   1.605   9.435  0.0066 -0.0533 -0.0094
  249loPI   C2A 3976   9.786   1.910   9.023  0.0318  0.3023  0.2506
  249loPI   C3A 3977   9.613   2.087   8.572 -0.1436 -0.0113 -0.1498
  249loPI   C4A 3978   9.724   2.257   8.098  0.2169  0.0978  0.0129
  249loPI   C5A 3979   9.836   2.028   7.758 -0.0865  0.1102 -0.2155
  249loPI   C6A 3980  10.258   1.930   7.721  0.0379 -0.1276 -0.0889
  249loPI   C1B 3981   9.811   1.419   8.996  0.1124  0.2682 -0.6246
  249loPI   C2B 3982   9.985   1.652   8.583 -0.0106  0.1276  0.3789
  249loPI   C3B 3983   9.938   1.670   8.138  0.2126  0.0295 -0.0942
  249loPI   C4B 3984   9.984   1.478   7.801 -0.1023  0.4834  0.0395
  250loPI    C1 3985  11.629   9.606  10.511 -0.1485  0.1656 -0.2109
  250loPI    C2 3986  11.514   9.896  10.762  0.0642 -0.1921  0.3180
  250loPI    C3 3987  11.868   9.920  10.576  0.0474 -0.0774  0.3002
  250loPI   PO4 3988  11.551   9.555  10.306  0.0841 -0.1199  0.0992
  250loPI   GL1 3989  11.225   9.601   9.973 -0.4293 -0.1131  0.2263
  250loPI   GL2 3990  11.455   9.809   9.819 -0.3863 -0.2982 -0.2030
  250loPI   C1A 3991  11.254   9.247   9.658 -0.0349 -0.0747  0.0506
  250loPI   C2A 3992  11.613   8.906   9.479  0.1942 -0.1043 -0.0284
  250loPI   C3A 3993  11.869   8.587   9.283 -0.2951 -0.0997 -0.0121
  250loPI   C4A 3994  11.671   8.683   8.872  0.0558 -0.2044  0.1482
  250loPI   C5A 3995  11.243   8.747   8.569  0.2104  0.1533  0.0445
  250loPI   C6A 3996  11.445   9.112   8.288  0.3066 -0.3804  0.2137
  250loPI   C1B 3997  11.818   9.837   9.563 -0.1591  0.2334 -0.1451
  250loPI   C2B 3998  12.158   9.881   9.286 -0.0616  0.1246 -0.1502
  250loPI   C3B 3999  12.072   9.818   8.965 -0.1026  0.4139  0.1795
  250loPI   C4B 4000  12.190   9.904   8.635  0.0250  0.5337  0.3914
  251loPI    C1 4001   6.515   9.417  10.130  0.1917  0.0860  0.1886
  251loPI    C2 4002   6.672   9.252  10.459  0.2862  0.0357  0.1192
  251loPI    C3 4003   6.362   9.503  10.489  0.1224 -0.1757  0.2239
  251loPI   PO4 4004   6.741   9.488  10.009 -0.1835 -0.0597  0.1105
  251loPI   GL1 4005   6.867   9.398   9.569 -0.1072  0.0827 -0.0772
  251loPI   GL2 4006   7.064   9.210   9.670 -0.1419 -0.2669  0.0182
  251loPI   C1A 4007   6.784   9.600   9.279  0.1394 -0.3106 -0.0414
  251loPI   C2A 4008   6.762   9.570   8.747  0.0128  0.0143 -0.1981
  251loPI   C3A 4009   6.762   9.622   8.350 -0.0515 -0.1380 -0.3445
  251loPI   C4A 4010   6.834   9.398   7.980  0.2079  0.0061  0.0678
  251loPI   C5A 4011   7.273   9.185   7.877  0.0431 -0.2222  0.2105
  251loPI   C6A 4012   7.756   9.146   7.950  0.0686 -0.1296  0.0195
  251loPI   C1B 4013   7.043   8.788   9.455  0.1418 -0.2314 -0.0879
  251loPI   C2B 4014   6.829   8.630   9.205 -0.1420 -0.3108  0.0475
  251loPI   C3B 4015   6.693   8.574   8.752  0.1046 -0.5397 -0.1505
  251loPI   C4B 4016   6.556   8.494   8.359  0.0253 -0.1709  0.0242
  252loPI    C1 4017   8.815   0.057   9.974  0.2598  0.0025  0.1207
  252loPI    C2 4018   8.679  -0.306   9.873  0.0730  0.1346 -0.1103
  252loPI    C3 4019   8.547  -0.128  10.206 -0.3432  0.2666 -0.3374
  252loPI   PO4 4020   8.720   0.206   9.668 -0.2704  0.0350 -0.1014
  252loPI   GL1 4021   8.450   0.375   9.404 -0.1165 -0.1671  0.0418
  252loPI   GL2 4022   8.722   0.456   9.230 -0.1690 -0.1621 -0.0296
  252loPI   C1A 4023   8.214   0.224   9.143 -0.0423  0.1359 -0.0275
  252loPI   C2A 4024   8.251   0.151   8.786 -0.0640 -0.0653  0.0468
  252loPI   C3A 4025   8.219   0.256   8.360 -0.0096 -0.4718 -0.2709
  252loPI   C4A 4026   8.006   0.140   8.042 -0.0360 -0.2496 -0.1037
  252loPI   C5A 4027   7.661  -0.111   7.765 -0.1900 -0.0822 -0.2984
  252loPI   C6A 4028   7.267  -0.276   7.695  0.4479  0.0808 -0.1102
  252loPI   C1B 4029   8.982   0.581   9.027  0.0072  0.0147  0.2650
  252loPI   C2B 4030   9.160   0.555   8.677 -0.3691  0.0648  0.1266
  252loPI   C3B 4031   9.110   0.553   8.262  0.1312  0.4789  0.1238
  252loPI   C4B 4032   8.982   0.514   7.885 -0.2142 -0.3254  0.1340
  253loPI    C1 4033  14.272   9.024  10.640  0.0863  0.1675 -0.0556
  253loPI    C2 4034  14.543   9.137  10.911 -0.0311 -0.0273  0.1461
  253loPI    C3 4035  14.308   8.821  10.983 -0.0888 -0.0587 -0.1682
  253loPI   PO4 4036  14.402   9.130  10.417  0.1436 -0.0644  0.2759
  253loPI   GL1 4037  14.261   9.061   9.998 -0.3571 -0.0896  0.1337
  253loPI   GL2 4038  14.096   9.106   9.733  0.1103 -0.1170  0.0399
  253loPI   C1A 4039  14.597   8.931   9.645 -0.3357  0.2419  0.1048
  253loPI   C2A 4040  14.671   8.756   9.298  0.0361 -0.0687 -0.3189
  253loPI   C3A 4041  14.605   8.634   8.888  0.3636  0.0309  0.0797
  253loPI   C4A 4042  14.914   8.450   8.724 -0.2124  0.1916 -0.3105
  253loPI   C5A 4043  14.995   8.166   8.413 -0.1001  0.0209  0.0645
  253loPI   C6A 4044  14.954   8.175   7.898  0.0686 -0.1692  0.1910
  253loPI   C1B 4045  14.092   9.115   9.290 -0.0805 -0.0130  0.0718
  253loPI   C2B 4046  14.397   9.065   9.017 -0.0484  0.0293 -0.1709
  253loPI   C3B 4047  14.475   9.046   8.546  0.1296  0.3090 -0.1065
  253loPI   C4B 4048  14.905   9.211   8.298 -0.0999  0.0996 -0.1159
  254loPI    C1 4049   2.955  12.184  10.163  0.1581 -0.2000 -0.2377
  254loPI    C2 4050   3.048  11.893  10.422  0.2399 -0.0730 -0.1228
  254loPI    C3 4051   3.177  12.266  10.486 -0.2272  0.0801 -0.0366
  254loPI   PO4 4052   2.865  12.066   9.932 -0.0120  0.2484  0.1684
  254loPI   GL1 4053   3.184  12.292   9.634  0.1079  0.1015  0.0565
  254loPI   GL2 4054   3.395  12.570   9.515 -0.1992 -0.2179  0.1771
  254loPI   C1A 4055   3.058  12.275   9.240  0.0301  0.1750  0.3549
  254loPI   C2A 4056   3.090  12.344   8.782 -0.2090  0.2295 -0.0259
  254loPI   C3A 4057   3.012  12.478   8.330 -0.3765  0.0538  0.1374
  254loPI   C4A 4058   2.825  12.324   7.983 -0.2707  0.0381 -0.1280
  254loPI   C5A 4059   2.684  12.085   7.712  0.0479 -0.1806  0.0677
  254loPI   C6A 4060   2.925  11.760   7.513 -0.1321 -0.0129 -0.1143
  254loPI   C1B 4061   3.532  12.517   9.063  0.3644  0.3149 -0.2134
  254loPI   C2B 4062   3.607  12.448   8.613 -0.0398 -0.0922 -0.0784
  254loPI   C3B 4063   3.466  12.428   8.226 -0.0238 -0.3627  0.0695
  254loPI   C4B 4064   3.343  12.385   7.841 -0.2124 -0.1398  0.2232
  255loPI    C1 4065  17.781   0.015  10.404  0.1089 -0.1156  0.2487
  255loPI    C2 4066  17.605   0.372  10.360  0.0767 -0.1881 -0.2737
  255loPI    C3 4067  17.974   0.348  10.515 -0.0834  0.0276  0.1577
  255loPI   PO4 4068  17.836  -0.071  10.124  0.0621 -0.1159 -0.2589
  255loPI   GL1 4069  17.648   0.063   9.796  0.2462  0.0624 -0.1816
  255loPI   GL2 4070  17.716   0.405   9.829 -0.0994  0.0453 -0.0178
  255loPI   C1A 4071  17.643   0.056   9.390  0.0396  0.1899  0.0163
  255loPI   C2A 4072  17.669  -0.103   8.951 -0.1494 -0.3068 -0.0847
  255loPI   C3A 4073  17.391  -0.121   8.574  0.4787  0.0809 -0.2021
  255loPI   C4A 4074  16.910  -0.259   8.412  0.0985  0.1898  0.0513
  255loPI   C5A 4075  16.683  -0.209   8.093 -0.1390  0.2324  0.0266
  255loPI   C6A 4076  16.459   0.063   7.927  0.0962 -0.3238  0.0038
  255loPI   C1B 4077  17.673   0.524   9.401  0.0762  0.0005 -0.2041
  255loPI   C2B 4078  17.521   0.416   8.884 -0.1341 -0.2926  0.1244
  255loPI   C3B 4079  17.373   0.509   8.536  0.2975 -0.0502  0.1813
  255loPI   C4B 4080  17.124   0.639   8.274 -0.1552 -0.1918  0.1503
  256loPI    C1 4081   4.081   6.393  10.251 -0.1022 -0.1055  0.1189
  256loPI    C2 4082   4.192   6.017  10.330 -0.0073 -0.0714  0.1487
  256loPI    C3 4083   4.051   6.250  10.623  0.0903 -0.0313  0.1643
  256loPI   PO4 4084   3.985   6.388  10.072  0.0644 -0.1147 -0.2022
  256loPI   GL1 4085   3.876   6.395   9.744  0.0512 -0.1006 -0.0391
  256loPI   GL2 4086   3.594   6.307   9.635  0.5554  0.0625  0.1043
  256loPI   C1A 4087   3.883   6.604   9.354  0.1126 -0.1797  0.2534
  256loPI   C2A 4088   3.808   6.346   8.917  0.2683 -0.3096 -0.0265
  256loPI   C3A 4089   3.840   6.150   8.524 -0.0640 -0.0618 -0.1385
  256loPI   C4A 4090   4.031   5.779   8.483  0.1840 -0.1211  0.1406
  256loPI   C5A 4091   4.152   5.405   8.486  0.2484 -0.4095  0.0261
  256loPI   C6A 4092   4.028   4.966   8.691 -0.0010  0.0681 -0.0702
  256loPI   C1B 4093   3.570   6.217   9.319  0.2442 -0.0426  0.1517
  256loPI   C2B 4094   3.632   5.872   8.923  0.4712  0.1189 -0.1317
  256loPI   C3B 4095   3.370   5.995   8.530  0.0357  0.2654 -0.1815
  256loPI   C4B 4096   2.913   6.056   8.585 -0.4250  0.1720 -0.1855
  257loPI    C1 4097  12.564   0.150  10.206  0.0018  0.0016  0.0236
  257loPI    C2 4098  12.520  -0.172  10.439  0.0864 -0.0986 -0.0966
  257loPI    C3 4099  12.748   0.134  10.561 -0.0202 -0.0691  0.0319
  257loPI   PO4 4100  12.606   0.134  10.013  0.1401 -0.0297  0.0703
  257loPI   GL1 4101  12.484   0.189   9.625  0.2415 -0.2042  0.0179
  257loPI   GL2 4102  12.281   0.238   9.421 -0.0045 -0.0075 -0.2137
  257loPI   C1A 4103  12.745   0.235   9.156  0.1504  0.1098 -0.0475
  257loPI   C2A 4104  12.852   0.240   8.810  0.1921 -0.0017  0.1777
  257loPI   C3A 4105  12.891   0.141   8.393  0.0665  0.2057 -0.0625
  257loPI   C4A 4106  12.768   0.230   7.985 -0.0205  0.1753  0.0154
  257loPI   C5A 4107  12.527   0.071   7.715 -0.2606 -0.2661 -0.0281
  257loPI   C6A 4108  12.369  -0.013   7.269  0.0741 -0.2076 -0.3058
  257loPI   C1B 4109  12.314   0.358   8.943 -0.0578 -0.3918 -0.1527
  257loPI   C2B 4110  12.429   0.371   8.445  0.2124 -0.0066  0.1953
  257loPI   C3B 4111  12.476   0.581   8.093 -0.1680  0.5963  0.2201
  257loPI   C4B 4112  12.164   0.581   7.745 -0.2913 -0.2277  0.0272
  258loPI    C1 4113   8.401   2.375  10.164  0.0126 -0.4038  0.1553
  258loPI    C2 4114   8.337   2.193  10.514  0.1422 -0.0479  0.3689
  258loPI    C3 4115   8.554   2.529  10.499  0.1137 -0.0426 -0.0510
  258loPI   PO4 4116   8.413   2.240   9.974 -0.4453 -0.4199 -0.0841
  258loPI   GL1 4117   8.310   2.333   9.499  0.1581 -0.2338 -0.1010
  258loPI   GL2 4118   8.415   2.617   9.624 -0.1439 -0.2020  0.0361
  258loPI   C1A 4119   8.461   2.093   9.157  0.0363  0.0122  0.1618
  258loPI   C2A 4120   8.787   2.178   8.845 -0.0960 -0.3197  0.1225
  258loPI   C3A 4121   9.065   2.136   8.596  0.0476 -0.3334 -0.0706
  258loPI   C4A 4122   9.229   2.062   8.233  0.3470 -0.2924 -0.5520
  258loPI   C5A 4123   9.195   2.141   7.924  0.2625 -0.0259  0.1122
  258loPI   C6A 4124   9.303   2.530   7.777 -0.0415 -0.4320  0.1818
  258loPI   C1B 4125   8.736   2.548   9.296 -0.0127 -0.1911  0.1237
  258loPI   C2B 4126   9.064   2.562   8.995  0.2335 -0.4290  0.4511
  258loPI   C3B 4127   9.272   2.633   8.648 -0.0552  0.2784  0.0198
  258loPI   C4B 4128   9.374   2.555   8.314  0.1046 -0.2130  0.0587
  259loPI    C1 4129   7.679   6.972  10.459 -0.1960 -0.0948  0.0077
  259loPI    C2 4130   7.740   7.290  10.695 -0.0262 -0.0736 -0.0630
  259loPI    C3 4131   8.044   7.046  10.606 -0.0768 -0.0516 -0.3032
  259loPI   PO4 4132   7.606   7.097  10.182 -0.4067  0.0412  0.2478
  259loPI   GL1 4133   7.737   7.128   9.845  0.1949  0.1305 -0.2537
  259loPI   GL2 4134   7.660   7.452   9.840 -0.1345 -0.2324  0.0142
  259loPI   C1A 4135   7.746   7.105   9.406  0.2536  0.1730  0.3162
  259loPI   C2A 4136   7.883   7.081   9.006  0.0065  0.2078 -0.0640
  259loPI   C3A 4137   7.901   7.075   8.615 -0.2877 -0.0305  0.0464
  259loPI   C4A 4138   7.790   7.093   8.195 -0.1761  0.0346  0.0469
  259loPI   C5A 4139   7.594   7.431   7.899  0.3081  0.1004  0.1347
  259loPI   C6A 4140   7.579   7.812   7.756  0.0065  0.0942 -0.1167
  259loPI   C1B 4141   7.366   7.386   9.491  0.2347  0.0672  0.1365
  259loPI   C2B 4142   7.372   7.484   9.098  0.0155 -0.2976  0.1278
  259loPI   C3B 4143   7.643   7.523   8.831  0.0577  0.4166 -0.0129
  259loPI   C4B 4144   7.604   7.522   8.381 -0.0457  0.1972  0.0124
  260loPI    C1 4145   6.600   3.998  10.337 -0.1951 -0.0072 -0.1383
  260loPI    C2 4146   6.855   4.275  10.202 -0.1300  0.0297  0.0576
  260loPI    C3 4147   6.989   3.972  10.426 -0.2582  0.0510  0.1638
  260loPI   PO4 4148   6.439   3.988  10.089 -0.4430 -0.0335 -0.1366
  260loPI   GL1 4149   6.373   3.747   9.677 -0.2018 -0.0816  0.2657
  260loPI   GL2 4150   6.686   3.564   9.685  0.2974  0.1899 -0.1329
  260loPI   C1A 4151   6.439   3.834   9.228  0.0644 -0.1224  0.1164
  260loPI   C2A 4152   6.460   3.674   8.843 -0.1450 -0.2070  0.1011
  260loPI   C3A 4153   6.560   3.673   8.384  0.6714  0.1048 -0.0082
  260loPI   C4A 4154   6.447   3.639   7.976  0.0442 -0.0688  0.0566
  260loPI   C5A 4155   6.348   3.378   7.673  0.0670  0.1467  0.0527
  260loPI   C6A 4156   6.397   3.005   7.632 -0.3378  0.4144 -0.0811
  260loPI   C1B 4157   6.797   3.457   9.313  0.1623  0.0757  0.2159
  260loPI   C2B 4158   6.799   3.275   8.917  0.1120 -0.1153 -0.2585
  260loPI   C3B 4159   6.439   3.221   8.650 -0.1053 -0.0551 -0.1102
  260loPI   C4B 4160   6.234   3.288   8.298 -0.1815  0.0572 -0.0528
  261loPI    C1 4161  12.075  13.949   9.957  0.0289 -0.2058  0.1688
  261loPI    C2 4162  12.459  14.033  10.028 -0.0688  0.2758  0.1567
  261loPI    C3 4163  12.176  14.164  10.278 -0.2397  0.0649  0.0767
  261loPI   PO4 4164  12.009  13.967   9.777 -0.0437  0.2149  0.1183
  261loPI   GL1 4165  11.830  13.980   9.393  0.0797  0.0691 -0.0387
  261loPI   GL2 4166  11.647  13.711   9.334  0.1383 -0.3049  0.0188
  261loPI   C1A 4167  11.824  14.005   8.959 -0.3234 -0.1279 -0.0290
  261loPI   C2A 4168  11.957  13.826   8.699  0.1275 -0.1532 -0.0934
  261loPI   C3A 4169  12.020  14.059   8.429  0.1633 -0.2002 -0.1128
  261loPI   C4A 4170  11.995  14.053   7.893 -0.3490 -0.1485  0.0175
  261loPI   C5A 4171  11.886  14.006   7.459 -0.0733  0.1147  0.0999
  261loPI   C6A 4172  11.604  14.101   7.120 -0.0798 -0.0836  0.0737
  261loPI   C1B 4173  11.549  13.551   8.947  0.0486 -0.1002  0.3141
  261loPI   C2B 4174  11.643  13.385   8.510  0.0431 -0.0663 -0.1399
  261loPI   C3B 4175  11.482  13.227   8.105  0.0340  0.0270  0.2544
  261loPI   C4B 4176  11.314  13.526   7.755 -0.1897  0.0201 -0.0797
  262loPI    C1 4177  18.259  10.924  10.665 -0.1006 -0.0542 -0.1892
  262loPI    C2 4178  18.155  10.544  10.739 -0.0799 -0.0499 -0.1372
  262loPI    C3 4179  18.453  10.714  10.945 -0.0271 -0.0348 -0.2255
  262loPI   PO4 4180  18.198  10.910  10.328  0.3567 -0.0346 -0.1757
  262loPI   GL1 4181  18.406  10.697   9.929 -0.2605  0.1442  0.1412
  262loPI   GL2 4182  18.656  10.931  10.073  0.1477 -0.0455  0.1458
  262loPI   C1A 4183  18.287  10.369   9.696 -0.2619 -0.1029  0.2380
  262loPI   C2A 4184  18.461  10.313   9.341 -0.1085 -0.1346 -0.1513
  262loPI   C3A 4185  18.644  10.515   8.991  0.1994  0.1355  0.0905
  262loPI   C4A 4186  18.456  10.540   8.615 -0.0360  0.0160 -0.0691
  262loPI   C5A 4187  18.427  10.551   8.193 -0.1328 -0.0611  0.2760
  262loPI   C6A 4188  18.425  10.376   7.779  0.2075  0.1529  0.1944
  262loPI   C1B 4189  18.675  11.286   9.761 -0.1117 -0.0147 -0.2211
  262loPI   C2B 4190  18.461  11.290   9.308  0.1104  0.0934  0.4018
  262loPI   C3B 4191  18.380  11.012   8.932  0.1139  0.2448 -0.0044
  262loPI   C4B 4192  18.115  10.619   8.928  0.2290  0.0216  0.3671
  263loPI    C1 4193  13.653   0.955  10.447  0.1796  0.0785 -0.0781
  263loPI    C2 4194  13.736   0.728  10.128  0.3213  0.1405 -0.0865
  263loPI    C3 4195  13.904   0.646  10.482 -0.1910 -0.2108  0.0877
  263loPI   PO4 4196  13.597   1.205  10.348  0.2512  0.0890  0.1331
  263loPI   GL1 4197  13.575   1.171   9.992  0.0757  0.0138  0.0097
  263loPI   GL2 4198  13.482   1.432   9.726 -0.0625  0.2293 -0.0961
  263loPI   C1A 4199  13.624   0.846   9.609  0.2091 -0.0065  0.1056
  263loPI   C2A 4200  13.482   0.941   9.121  0.0831  0.1020 -0.2667
  263loPI   C3A 4201  13.634   1.109   8.676  0.0494  0.4394 -0.0021
  263loPI   C4A 4202  13.815   1.414   8.385 -0.1083 -0.0555  0.0840
  263loPI   C5A 4203  13.799   1.772   8.238 -0.2941 -0.0223  0.0615
  263loPI   C6A 4204  13.947   1.947   7.875 -0.0829  0.0932 -0.0779
  263loPI   C1B 4205  13.525   1.356   9.342  0.3176 -0.0399 -0.1752
  263loPI   C2B 4206  13.765   1.466   9.009 -0.1392  0.0615 -0.0790
  263loPI   C3B 4207  13.643   1.824   8.695  0.0733  0.0836 -0.3088
  263loPI   C4B 4208  13.759   2.198   8.550 -0.0900 -0.2407 -0.0367
  264loPI    C1 4209  11.238   5.594  10.360  0.3678  0.3220  0.1534
  264loPI    C2 4210  10.851   5.590  10.459  0.2798 -0.1701 -0.1759
  264loPI    C3 4211  11.096   5.862  10.621 -0.2404  0.2867 -0.1251
  264loPI   PO4 4212  11.245   5.269  10.155 -0.2673  0.0437 -0.0945
  264loPI   GL1 4213  11.121   5.331   9.729 -0.1612  0.3180  0.0945
  264loPI   GL2 4214  11.231   5.644   9.702 -0.0692  0.1127  0.1214
  264loPI   C1A 4215  10.891   5.510   9.367 -0.4575  0.2098  0.1079
  264loPI   C2A 4216  10.856   5.773   9.043  0.3430 -0.1823 -0.1488
  264loPI   C3A 4217  11.017   6.007   8.669 -0.2690  0.4318 -0.4155
  264loPI   C4A 4218  11.186   6.141   8.346 -0.2530 -0.2488 -0.0251
  264loPI   C5A 4219  11.570   6.265   8.133 -0.0323  0.1838 -0.1085
  264loPI   C6A 4220  12.029   6.264   8.164  0.3094  0.0578  0.0611
  264loPI   C1B 4221  11.340   5.813   9.263 -0.0638 -0.1228 -0.0988
  264loPI   C2B 4222  11.492   5.924   8.914  0.3413 -0.2339  0.0147
  264loPI   C3B 4223  11.713   5.914   8.559  0.0604 -0.1170 -0.0881
  264loPI   C4B 4224  11.805   5.826   8.153 -0.0271 -0.2451 -0.1143
  265loPI    C1 4225   1.547   1.633  10.698  0.0140 -0.3151 -0.1637
  265loPI    C2 4226   1.824   1.656  10.986  0.1490  0.0925 -0.3189
  265loPI    C3 4227   1.707   1.299  10.848  0.0358 -0.1127  0.2800
  265loPI   PO4 4228   1.576   1.693  10.518  0.0792  0.1887  0.1865
  265loPI   GL1 4229   1.520   1.524  10.078 -0.1853 -0.1206  0.1481
  265loPI   GL2 4230   1.638   1.334   9.710  0.1252 -0.0151 -0.3016
  265loPI   C1A 4231   1.374   1.721   9.719  0.2608 -0.1300 -0.3229
  265loPI   C2A 4232   1.237   1.975   9.444  0.3258 -0.3921  0.1754
  265loPI   C3A 4233   1.378   2.256   9.124 -0.0251  0.1326 -0.0892
  265loPI   C4A 4234   1.292   2.532   8.826 -0.1666 -0.0954  0.1282
  265loPI   C5A 4235   1.108   2.720   8.488  0.0933 -0.0971  0.2452
  265loPI   C6A 4236   0.824   3.064   8.514 -0.2668 -0.0451  0.0918
  265loPI   C1B 4237   1.498   1.427   9.280 -0.0502 -0.5625 -0.2725
  265loPI   C2B 4238   1.380   1.782   9.034 -0.1880 -0.2180  0.1179
  265loPI   C3B 4239   1.344   2.017   8.694 -0.1781  0.2480  0.0326
  265loPI   C4B 4240   1.045   2.183   8.469  0.3362  0.0240  0.2304
  266loPI    C1 4241  10.979   0.327  10.151 -0.0404  0.1900 -0.1508
  266loPI    C2 4242  11.124   0.610  10.394  0.0438 -0.0343  0.0634
  266loPI    C3 4243  11.041   0.245  10.537 -0.1791 -0.0840 -0.1845
  266loPI   PO4 4244  10.656   0.406   9.952  0.2389  0.1321  0.0143
  266loPI   GL1 4245  10.633   0.533   9.573 -0.2181 -0.2213  0.0150
  266loPI   GL2 4246  10.853   0.303   9.490 -0.0167 -0.0662  0.0313
  266loPI   C1A 4247  10.492   0.669   9.217 -0.3221 -0.2554  0.2127
  266loPI   C2A 4248  10.500   0.735   8.874  0.2047  0.0813  0.0137
  266loPI   C3A 4249  10.701   0.760   8.474  0.4312  0.3059 -0.1094
  266loPI   C4A 4250  10.673   0.804   7.986 -0.1028  0.0163 -0.1628
  266loPI   C5A 4251  10.810   1.134   7.633 -0.1806 -0.0503  0.2894
  266loPI   C6A 4252  11.173   1.228   7.329  0.4033  0.0006 -0.0211
  266loPI   C1B 4253  10.827   0.305   9.131  0.2538 -0.0042 -0.2857
  266loPI   C2B 4254  10.893   0.257   8.669 -0.0751  0.2611 -0.0389
  266loPI   C3B 4255  11.041   0.092   8.284  0.1031 -0.1067 -0.2860
  266loPI   C4B 4256  10.878  -0.066   7.909 -0.0706  0.4945  0.1122
  267loPI    C1 4257   5.063  11.151  10.301  0.1854 -0.0783 -0.1219
  267loPI    C2 4258   5.294  10.824  10.282  0.1653 -0.1042  0.0574
  267loPI    C3 4259   5.334  11.079  10.587 -0.2013 -0.2299  0.2162
  267loPI   PO4 4260   4.759  11.062  10.236  0.0325 -0.1103  0.1621
  267loPI   GL1 4261   4.562  11.066   9.808  0.0359  0.0253  0.1321
  267loPI   GL2 4262   4.353  10.893   9.664 -0.0104  0.3105  0.0682
  267loPI   C1A 4263   4.670  11.391   9.463 -0.1939 -0.1886  0.0364
  267loPI   C2A 4264   4.824  11.621   9.162  0.0674 -0.1931 -0.1133
  267loPI   C3A 4265   4.600  11.612   8.716 -0.2715 -0.1260 -0.3224
  267loPI   C4A 4266   4.500  11.664   8.324  0.1530  0.1190  0.1083
  267loPI   C5A 4267   4.178  11.728   7.970  0.0514 -0.0317  0.0918
  267loPI   C6A 4268   4.117  11.566   7.601 -0.0610  0.1441 -0.2761
  267loPI   C1B 4269   4.134  10.637   9.317  0.1661  0.0637  0.1794
  267loPI   C2B 4270   3.954  10.601   8.770  0.2942 -0.1720 -0.0308
  267loPI   C3B 4271   4.015  10.765   8.374 -0.1977  0.2372  0.2216
  267loPI   C4B 4272   3.912  11.052   8.117  0.3916 -0.0444  0.1291
  268loPI    C1 4273  15.694   8.215  10.223 -0.1784  0.0617 -0.0361
  268loPI    C2 4274  15.547   8.554  10.376 -0.0872 -0.0446  0.2953
  268loPI    C3 4275  15.391   8.202  10.485 -0.0457 -0.1212  0.1105
  268loPI   PO4 4276  15.991   8.354  10.245  0.0919 -0.3514 -0.2022
  268loPI   GL1 4277  16.427   8.580  10.254  0.1112  0.0339  0.1005
  268loPI   GL2 4278  16.683   8.386  10.346  0.2854 -0.0056 -0.3251
  268loPI   C1A 4279  16.278   8.696   9.796  0.2969 -0.0514 -0.1075
  268loPI   C2A 4280  16.185   8.550   9.432  0.1854  0.0177 -0.0771
  268loPI   C3A 4281  16.172   8.504   9.010  0.0280 -0.2227  0.3328
  268loPI   C4A 4282  16.218   8.505   8.523  0.2862 -0.1178 -0.0402
  268loPI   C5A 4283  16.034   8.196   8.122 -0.2374 -0.1767 -0.0839
  268loPI   C6A 4284  15.761   8.395   7.809 -0.0983  0.1244  0.0690
  268loPI   C1B 4285  16.643   8.180   9.954  0.1148 -0.1611  0.0363
  268loPI   C2B 4286  16.647   8.351   9.616 -0.1521 -0.1531 -0.0318
  268loPI   C3B 4287  16.668   8.440   9.249  0.2270 -0.0654  0.3320
  268loPI   C4B 4288  16.607   8.366   8.763 -0.1766 -0.5760 -0.1822
  269loPI    C1 4289  10.301   2.195  10.102 -0.0333  0.1467 -0.1442
  269loPI    C2 4290  10.257   1.970   9.774  0.2716 -0.0958 -0.0248
  269loPI    C3 4291  10.351   1.798  10.122 -0.0351  0.1608  0.1910
  269loPI   PO4 4292  10.511   2.399  10.036 -0.0884  0.2478  0.1582
  269loPI   GL1 4293  10.592   2.423   9.657  0.1794  0.4374 -0.1103
  269loPI   GL2 4294  10.340   2.577   9.353  0.1151 -0.2742  0.3082
  269loPI   C1A 4295  10.620   2.056   9.374 -0.2775 -0.2191 -0.0008
  269loPI   C2A 4296  10.910   1.935   9.106 -0.3398 -0.3031 -0.0637
  269loPI   C3A 4297  11.080   2.006   8.642 -0.0056  0.1183 -0.0534
  269loPI   C4A 4298  11.260   2.103   8.236  0.0553 -0.0340 -0.2337
  269loPI   C5A 4299  11.119   2.518   7.917 -0.0391  0.1546 -0.2526
  269loPI   C6A 4300  10.915   2.680   7.614  0.0017 -0.4086  0.0407
  269loPI   C1B 4301  10.431   2.418   9.065 -0.1353  0.2148  0.2604
  269loPI   C2B 4302  10.645   2.180   8.769  0.1312 -0.1916  0.1134
  269loPI   C3B 4303  10.673   2.302   8.457  0.0069 -0.2125  0.3987
  269loPI   C4B 4304  10.712   2.554   8.121  0.1317 -0.3212 -0.1713
  270loPI    C1 4305  15.187   4.240  10.498  0.3147 -0.3251 -0.0173
  270loPI    C2 4306  15.474   4.424  10.289  0.1247 -0.2260 -0.1940
  270loPI    C3 4307  15.387   4.547  10.660 -0.0172  0.0601 -0.3191
  270loPI   PO4 4308  15.079   4.165  10.215  0.1796  0.1461 -0.2784
  270loPI   GL1 4309  15.084   4.245   9.801  0.2613  0.2042  0.2184
  270loPI   GL2 4310  15.433   4.276   9.778 -0.0202 -0.0376 -0.1043
  270loPI   C1A 4311  15.065   4.319   9.421 -0.0406 -0.0417 -0.1247
  270loPI   C2A 4312  15.108   4.544   9.032  0.0898 -0.0289  0.0451
  270loPI   C3A 4313  15.159   4.668   8.524 -0.0087  0.3073 -0.1486
  270loPI   C4A 4314  15.247   4.903   8.217  0.0436  0.0114  0.3757
  270loPI   C5A 4315  15.643   4.986   8.068 -0.5024 -0.0647  0.1526
  270loPI   C6A 4316  16.063   4.875   8.117  0.1313  0.4282  0.0268
  270loPI   C1B 4317  15.581   4.451   9.384  0.3301 -0.0016  0.1658
  270loPI   C2B 4318  15.699   4.594   8.972  0.0071 -0.2227  0.2155
  270loPI   C3B 4319  15.881   4.759   8.662 -0.1543 -0.1858 -0.0452
  270loPI   C4B 4320  16.234   5.075   8.559 -0.2458 -0.0744 -0.0852
  271loPI    C1 4321   9.520  12.269  10.253 -0.0873  0.1300  0.0145
  271loPI    C2 4322   9.465  12.044  10.580  0.2578 -0.1902 -0.1408
  271loPI    C3 4323   9.647  12.399  10.609  0.5397 -0.3411 -0.0195
  271loPI   PO4 4324   9.657  12.091  10.011 -0.0995 -0.1590  0.0786
  271loPI   GL1 4325   9.709  12.228   9.564 -0.1131 -0.0814  0.0175
  271loPI   GL2 4326   9.490  11.989   9.449 -0.1316  0.0496 -0.2946
  271loPI   C1A 4327   9.853  12.594   9.304 -0.2260  0.1133 -0.4876
  271loPI   C2A 4328   9.917  12.797   8.977 -0.0637 -0.1914 -0.3187
  271loPI   C3A 4329   9.889  13.116   8.647 -0.1818  0.0418 -0.0451
  271loPI   C4A 4330   9.875  13.361   8.220  0.1586 -0.1310  0.0857
  271loPI   C5A 4331  10.053  13.410   7.836  0.0929  0.2137 -0.4112
  271loPI   C6A 4332  10.409  13.576   7.728  0.2444  0.2380  0.0379
  271loPI   C1B 4333   9.865  11.867   9.153  0.3084  0.0226  0.0049
  271loPI   C2B 4334  10.151  11.804   8.848 -0.0924 -0.0397  0.2253
  271loPI   C3B 4335  10.619  11.718   8.910  0.1491  0.0250 -0.0015
  271loPI   C4B 4336  10.889  11.537   9.204 -0.0171 -0.1019 -0.1684
  272loPI    C1 4337  17.289  12.137  10.527 -0.0658  0.1083 -0.0049
  272loPI    C2 4338  17.321  12.445  10.781  0.2080  0.1817 -0.1245
  272loPI    C3 4339  17.327  12.069  10.919  0.4353  0.2196 -0.0269
  272loPI   PO4 4340  17.430  12.237  10.294  0.2065  0.1165 -0.5236
  272loPI   GL1 4341  17.491  12.182   9.859 -0.1708 -0.1958 -0.2348
  272loPI   GL2 4342  17.376  12.567   9.884  0.2010  0.3675  0.3575
  272loPI   C1A 4343  17.473  11.915   9.548 -0.0973  0.0404 -0.1138
  272loPI   C2A 4344  17.376  11.885   9.084 -0.5343 -0.1692 -0.1669
  272loPI   C3A 4345  17.163  11.933   8.603 -0.0302  0.0339 -0.2384
  272loPI   C4A 4346  16.741  11.821   8.415  0.2100 -0.0194  0.0156
  272loPI   C5A 4347  16.319  11.839   8.262 -0.1628 -0.0267 -0.5905
  272loPI   C6A 4348  16.061  12.045   8.548 -0.1711 -0.0893 -0.0613
  272loPI   C1B 4349  17.225  12.533   9.537  0.0282 -0.3050 -0.2149
  272loPI   C2B 4350  16.857  12.683   9.132 -0.0018 -0.2391 -0.0003
  272loPI   C3B 4351  16.556  12.806   8.804  0.1330 -0.1899 -0.2241
  272loPI   C4B 4352  16.524  12.646   8.352 -0.1347 -0.2784  0.0923
  273loPI    C1 4353   7.439  11.181  10.190 -0.1414  0.0172  0.2167
  273loPI    C2 4354   7.468  10.903  10.477 -0.1567 -0.0566  0.1468
  273loPI    C3 4355   7.531  11.288  10.565  0.3041 -0.1289  0.1550
  273loPI   PO4 4356   7.286  11.177   9.998  0.3840 -0.0723  0.3182
  273loPI   GL1 4357   7.137  11.135   9.592  0.0285 -0.3246 -0.2422
  273loPI   GL2 4358   7.084  10.807   9.571 -0.2099  0.1538  0.0127
  273loPI   C1A 4359   7.036  11.499   9.258  0.0684 -0.0240  0.0909
  273loPI   C2A 4360   7.029  11.976   9.081 -0.1860 -0.1630 -0.0249
  273loPI   C3A 4361   7.039  12.034   8.690  0.0619 -0.0664  0.1033
  273loPI   C4A 4362   6.928  11.730   8.353 -0.1202  0.0495  0.1952
  273loPI   C5A 4363   6.649  11.448   8.066  0.1268 -0.0490 -0.0702
  273loPI   C6A 4364   6.418  11.607   7.765 -0.1716  0.2209 -0.4227
  273loPI   C1B 4365   6.841  10.747   9.163  0.3159 -0.2547  0.1188
  273loPI   C2B 4366   6.895  10.632   8.773 -0.1033  0.1677 -0.1301
  273loPI   C3B 4367   6.766  10.403   8.413 -0.3039  0.2538 -0.1156
  273loPI   C4B 4368   6.703  10.371   8.000  0.1152 -0.1193  0.4119
  274loPI    C1 4369   8.039  12.480   9.811  0.0483 -0.0790 -0.0763
  274loPI    C2 4370   8.351  12.262   9.934 -0.0663 -0.1436  0.1049
  274loPI    C3 4371   8.166  12.508  10.189  0.0335  0.1347 -0.0859
  274loPI   PO4 4372   8.118  12.545   9.548  0.0523 -0.2777  0.1657
  274loPI   GL1 4373   8.427  12.523   9.432 -0.0795 -0.0824 -0.1172
  274loPI   GL2 4374   8.690  12.739   9.404  0.1960  0.3803 -0.0907
  274loPI   C1A 4375   8.548  12.337   8.994  0.0064 -0.0406  0.2497
  274loPI   C2A 4376   8.825  12.434   8.623  0.0698  0.3491 -0.1822
  274loPI   C3A 4377   9.232  12.440   8.353 -0.2143 -0.0564  0.3638
  274loPI   C4A 4378   9.480  12.152   8.166  0.0165  0.4348  0.1740
  274loPI   C5A 4379   9.496  12.075   7.757 -0.1752  0.2349 -0.1255
  274loPI   C6A 4380   9.273  11.839   7.410 -0.2992  0.1939  0.2637
  274loPI   C1B 4381   8.934  12.704   9.038  0.1694 -0.3188 -0.2297
  274loPI   C2B 4382   9.082  12.844   8.608  0.0989 -0.1527  0.2838
  274loPI   C3B 4383   9.047  12.899   8.159  0.1934 -0.0399 -0.1230
  274loPI   C4B 4384   9.220  12.766   7.848 -0.0253 -0.3779  0.0130
  275loPI    C1 4385   3.992  10.280  10.376  0.1807  0.1110 -0.0608
  275loPI    C2 4386   3.961  10.616  10.592 -0.1532  0.1003 -0.0878
  275loPI    C3 4387   4.066  10.273  10.769 -0.2732  0.1235  0.0304
  275loPI   PO4 4388   3.686  10.301  10.187 -0.4463 -0.0108 -0.2909
  275loPI   GL1 4389   3.764  10.204   9.820 -0.0983  0.0866  0.1034
  275loPI   GL2 4390   3.594   9.839   9.812 -0.3554 -0.0160 -0.0175
  275loPI   C1A 4391   3.891  10.201   9.433  0.1725  0.1407 -0.0074
  275loPI   C2A 4392   4.034  10.172   8.950 -0.0296  0.2648  0.1407
  275loPI   C3A 4393   3.730  10.134   8.547 -0.1177  0.2480 -0.2993
  275loPI   C4A 4394   3.718  10.405   8.077  0.0311 -0.3987  0.1363
  275loPI   C5A 4395   3.293  10.344   7.773 -0.0789  0.1027 -0.2419
  275loPI   C6A 4396   2.815  10.284   7.779 -0.3889  0.2311  0.3486
  275loPI   C1B 4397   3.623   9.753   9.374 -0.0884  0.1618 -0.0918
  275loPI   C2B 4398   3.572   9.761   8.930  0.0401  0.0606  0.0590
  275loPI   C3B 4399   3.415   9.714   8.555 -0.1762  0.0945  0.0083
  275loPI   C4B 4400   3.228   9.761   8.117  0.0675  0.0077  0.1428
  276loPI    C1 4401   9.268  15.379   9.532  0.0771  0.0577 -0.1230
  276loPI    C2 4402   9.314  14.984   9.494  0.3134  0.0766 -0.0509
  276loPI    C3 4403   9.463  15.172   9.814 -0.1368  0.1696  0.1113
  276loPI   PO4 4404   9.023  15.431   9.454  0.2549 -0.0316 -0.3351
  276loPI   GL1 4405   8.822  15.617   9.158  0.0354 -0.0076 -0.1884
  276loPI   GL2 4406   8.969  15.429   8.961  0.1508 -0.0051 -0.2089
  276loPI   C1A 4407   8.693  15.899   8.870 -0.0872 -0.1402  0.1414
  276loPI   C2A 4408   8.672  16.096   8.498 -0.4654  0.1517 -0.0761
  276loPI   C3A 4409   8.799  16.224   8.145 -0.1914 -0.0654 -0.2617
  276loPI   C4A 4410   9.046  16.469   7.867  0.0067 -0.2625  0.3525
  276loPI   C5A 4411   9.287  16.882   7.710 -0.1178 -0.0369  0.0472
  276loPI   C6A 4412   9.222  17.349   7.721  0.1919  0.1092  0.2224
  276loPI   C1B 4413   8.884  15.482   8.571  0.0795 -0.1902  0.0059
  276loPI   C2B 4414   8.852  15.732   8.166  0.0882  0.1356  0.1492
  276loPI   C3B 4415   8.681  15.833   7.803  0.0394  0.2685  0.1841
  276loPI   C4B 4416   8.458  15.927   7.375  0.2013 -0.1878  0.1199
  277loPI    C1 4417  12.774  12.642  10.084  0.2784  0.2296 -0.2796
  277loPI    C2 4418  12.690  12.990  10.262 -0.0395  0.0413 -0.0518
  277loPI    C3 4419  12.813  12.678  10.480  0.1175 -0.0283 -0.2375
  277loPI   PO4 4420  12.477  12.684   9.903  0.1222 -0.4921  0.1782
  277loPI   GL1 4421  12.155  12.648   9.548  0.1363  0.1430 -0.1113
  277loPI   GL2 4422  12.414  12.535   9.364  0.2958  0.0604 -0.0334
  277loPI   C1A 4423  12.130  12.777   9.093  0.0666 -0.2766  0.0264
  277loPI   C2A 4424  12.235  12.667   8.741  0.2131  0.4708  0.3122
  277loPI   C3A 4425  12.542  12.760   8.578  0.0530  0.2980  0.2151
  277loPI   C4A 4426  12.950  12.665   8.326  0.2744  0.2704 -0.2908
  277loPI   C5A 4427  13.017  12.437   7.874 -0.1783  0.2357  0.0507
  277loPI   C6A 4428  13.345  12.529   7.584 -0.2638  0.3155  0.1179
  277loPI   C1B 4429  12.258  12.215   9.081  0.1124 -0.1371  0.1060
  277loPI   C2B 4430  12.178  12.131   8.614  0.0127  0.1134 -0.0628
  277loPI   C3B 4431  12.158  11.934   8.200  0.3799  0.2539  0.0404
  277loPI   C4B 4432  12.001  11.795   7.789  0.3625 -0.0966  0.0709
  278loPI    C1 4433   9.751  16.989   9.684 -0.1646 -0.1729 -0.1444
  278loPI    C2 4434   9.935  16.886  10.024  0.1718  0.2626 -0.1851
  278loPI    C3 4435   9.586  17.081  10.037  0.1223  0.1687 -0.0928
  278loPI   PO4 4436   9.970  17.052   9.533  0.3470  0.2683  0.1271
  278loPI   GL1 4437  10.012  16.885   9.144  0.0749  0.1501 -0.1562
  278loPI   GL2 4438  10.379  16.896   9.157  0.3779  0.0757  0.0404
  278loPI   C1A 4439   9.727  16.961   8.827 -0.0498  0.1663  0.3347
  278loPI   C2A 4440  10.009  17.160   8.505  0.2907  0.2164 -0.0423
  278loPI   C3A 4441  10.251  17.110   8.167 -0.1746  0.2756 -0.2553
  278loPI   C4A 4442  10.145  17.205   7.767 -0.2494 -0.0461  0.0055
  278loPI   C5A 4443  10.033  17.126   7.328  0.1125  0.1693  0.1167
  278loPI   C6A 4444   9.792  17.321   6.995  0.0881  0.0193 -0.0615
  278loPI   C1B 4445  10.395  16.867   8.781  0.1261  0.1661  0.1110
  278loPI   C2B 4446  10.532  16.734   8.436 -0.1940  0.0153  0.0179
  278loPI   C3B 4447  10.609  16.665   8.031  0.0259  0.1235  0.0095
  278loPI   C4B 4448  10.866  16.753   7.612 -0.0742  0.0392 -0.2304
  279loPI    C1 4449  16.143   7.012  10.880 -0.1626  0.1678  0.0862
  279loPI    C2 4450  16.465   7.236  10.798 -0.2353  0.2021 -0.1113
  279loPI    C3 4451  16.443   7.036  11.143  0.1521 -0.0731 -0.2402
  279loPI   PO4 4452  15.949   7.130  10.800  0.0194 -0.0397  0.0676
  279loPI   GL1 4453  15.826   6.836  10.431 -0.0954  0.0207 -0.0529
  279loPI   GL2 4454  15.567   6.751  10.604  0.1546  0.3066 -0.0051
  279loPI   C1A 4455  16.127   6.932  10.063  0.0967  0.1115 -0.4120
  279loPI   C2A 4456  16.007   6.886   9.580 -0.2976  0.0251 -0.0481
  279loPI   C3A 4457  16.084   6.921   9.105 -0.0729  0.0653 -0.1914
  279loPI   C4A 4458  15.907   6.885   8.740 -0.0260 -0.3699  0.0446
  279loPI   C5A 4459  15.452   6.921   8.551  0.0403  0.1079 -0.2028
  279loPI   C6A 4460  15.028   6.770   8.532  0.3885  0.3261  0.2866
  279loPI   C1B 4461  15.350   6.486  10.281 -0.4017  0.2599 -0.1017
  279loPI   C2B 4462  15.214   6.334   9.891 -0.2720  0.1316 -0.0679
  279loPI   C3B 4463  15.498   6.318   9.460 -0.1496 -0.2263  0.2735
  279loPI   C4B 4464  15.656   6.715   9.200  0.0687  0.0625  0.1098
  280loPI    C1 4465   1.835  14.841  10.556  0.1025 -0.0925  0.1080
  280loPI    C2 4466   2.199  14.771  10.707 -0.0178 -0.0525  0.4260
  280loPI    C3 4467   1.895  14.529  10.800 -0.0504 -0.1570  0.0642
  280loPI   PO4 4468   1.874  14.862  10.353 -0.0288  0.1794  0.0766
  280loPI   GL1 4469   1.697  14.810   9.906 -0.0246  0.1606  0.0752
  280loPI   GL2 4470   1.443  14.974   9.791 -0.1675 -0.0523  0.0187
  280loPI   C1A 4471   1.953  14.512   9.772 -0.0936 -0.5150  0.1573
  280loPI   C2A 4472   2.106  14.467   9.292  0.0358 -0.1156 -0.0752
  280loPI   C3A 4473   2.405  14.655   9.019  0.0507  0.2673  0.1298
  280loPI   C4A 4474   2.221  14.812   8.642 -0.2627  0.0480  0.3707
  280loPI   C5A 4475   1.939  14.998   8.383 -0.2094 -0.0155  0.1357
  280loPI   C6A 4476   2.091  15.130   7.891 -0.1460 -0.2306 -0.0703
  280loPI   C1B 4477   1.531  14.595   9.481  0.2348  0.0066  0.0132
  280loPI   C2B 4478   1.524  14.603   9.038  0.2410  0.0925  0.2647
  280loPI   C3B 4479   1.411  14.474   8.636 -0.3036  0.3676  0.0503
  280loPI   C4B 4480   1.585  14.050   8.429 -0.1387 -0.5743 -0.1869
  281loPI    C1 4481  13.707  17.763  10.088  0.0440 -0.1033 -0.0995
  281loPI    C2 4482  13.619  17.975  10.416 -0.0194  0.0113 -0.1896
  281loPI    C3 4483  13.558  17.580  10.411  0.1850 -0.0251  0.0112
  281loPI   PO4 4484  13.743  17.957   9.923 -0.2087  0.1233 -0.1044
  281loPI   GL1 4485  13.580  18.058   9.520  0.0323 -0.1005 -0.2401
  281loPI   GL2 4486  13.286  17.905   9.229  0.0978  0.0478  0.2181
  281loPI   C1A 4487  13.562  18.252   9.057 -0.2693  0.4156 -0.0378
  281loPI   C2A 4488  13.667  18.351   8.670 -0.0811 -0.3743  0.3363
  281loPI   C3A 4489  13.536  18.393   8.346 -0.3062  0.2948  0.2907
  281loPI   C4A 4490  13.536  18.405   7.869  0.1218  0.2737  0.0543
  281loPI   C5A 4491  13.684  18.410   7.485 -0.1230  0.0246  0.2305
  281loPI   C6A 4492  14.138  18.465   7.334 -0.1329 -0.1831 -0.0392
  281loPI   C1B 4493  13.321  17.928   8.761  0.0684 -0.0695 -0.0841
  281loPI   C2B 4494  13.309  17.893   8.375  0.1333  0.3355  0.0855
  281loPI   C3B 4495  13.503  17.936   8.052  0.0773 -0.0824  0.1831
  281loPI   C4B 4496  13.773  17.960   7.788 -0.1600 -0.0485 -0.4317
  282loPI    C1 4497   4.989  12.325   9.815  0.3373  0.0556  0.0937
  282loPI    C2 4498   4.837  12.322   9.446 -0.0997  0.0628  0.2684
  282loPI    C3 4499   5.221  12.418   9.502 -0.0524  0.1557 -0.1723
  282loPI   PO4 4500   4.669  12.069   9.962  0.2350 -0.0385 -0.1484
  282loPI   GL1 4501   4.512  11.877   9.556 -0.1923  0.0402  0.1327
  282loPI   GL2 4502   4.180  11.898   9.496  0.0887 -0.1105 -0.1331
  282loPI   C1A 4503   4.587  12.089   9.065  0.1017  0.1111 -0.1137
  282loPI   C2A 4504   4.573  12.236   8.705 -0.0290  0.3692  0.1678
  282loPI   C3A 4505   4.574  12.496   8.291  0.1771 -0.2929 -0.1601
  282loPI   C4A 4506   4.852  12.627   7.903 -0.2478  0.1658  0.1873
  282loPI   C5A 4507   5.142  12.848   7.638  0.0814  0.2511 -0.3093
  282loPI   C6A 4508   5.273  13.256   7.725  0.2629 -0.0025  0.4174
  282loPI   C1B 4509   3.866  11.644   9.277 -0.1862  0.0998  0.2417
  282loPI   C2B 4510   3.724  11.406   8.885  0.1656 -0.1198  0.2083
  282loPI   C3B 4511   3.431  11.422   8.469  0.3013 -0.0839  0.0213
  282loPI   C4B 4512   3.374  11.242   8.108 -0.3114  0.1154 -0.0146
  283loPI    C1 4513   2.617  15.217  10.407 -0.1117 -0.0598  0.0980
  283loPI    C2 4514   2.288  15.171  10.184 -0.1123 -0.0574  0.0983
  283loPI    C3 4515   2.257  15.224  10.579 -0.1137 -0.0087  0.0917
  283loPI   PO4 4516   2.765  15.338  10.218  0.0067  0.0954  0.0763
  283loPI   GL1 4517   3.040  15.328   9.808 -0.1204  0.2177 -0.1210
  283loPI   GL2 4518   3.060  15.618   9.888 -0.1315  0.2188 -0.2868
  283loPI   C1A 4519   2.957  15.262   9.348  0.1132  0.0596 -0.1729
  283loPI   C2A 4520   3.036  15.280   8.922  0.2130  0.1085 -0.2269
  283loPI   C3A 4521   3.253  15.208   8.557  0.1671  0.2429 -0.5173
  283loPI   C4A 4522   3.543  14.961   8.280  0.2023  0.0090 -0.1988
  283loPI   C5A 4523   3.858  14.764   8.001  0.2545  0.2875 -0.0070
  283loPI   C6A 4524   4.194  14.450   8.002 -0.3428 -0.1368  0.1035
  283loPI   C1B 4525   2.855  15.691   9.526 -0.0229  0.1769  0.2371
  283loPI   C2B 4526   2.683  15.659   9.058  0.0086 -0.0982  0.3119
  283loPI   C3B 4527   2.568  15.634   8.607 -0.4951  0.0792  0.2811
  283loPI   C4B 4528   2.287  15.390   8.256 -0.0901  0.2144  0.1058
  284loPI    C1 4529  10.687   3.612   9.855  0.0348 -0.3363  0.2452
  284loPI    C2 4530  10.404   3.794  10.071  0.2071  0.1302  0.0911
  284loPI    C3 4531  10.789   3.887  10.126  0.2929 -0.1205 -0.0623
  284loPI   PO4 4532  10.584   3.302   9.877  0.2196 -0.0107 -0.2075
  284loPI   GL1 4533  10.674   3.147   9.561 -0.0316 -0.1250 -0.2470
  284loPI   GL2 4534  10.831   2.844   9.561  0.0524  0.0082  0.1300
  284loPI   C1A 4535  11.014   3.187   9.248 -0.0778  0.2830  0.2075
  284loPI   C2A 4536  11.022   3.191   8.885  0.3522  0.0967 -0.0128
  284loPI   C3A 4537  10.710   3.197   8.649  0.0820  0.1681  0.0292
  284loPI   C4A 4538  10.637   3.238   8.220 -0.0148  0.0962  0.3077
  284loPI   C5A 4539  10.330   2.968   8.093 -0.0643 -0.0509  0.1206
  284loPI   C6A 4540   9.992   2.812   8.096  0.1768 -0.0388 -0.0978
  284loPI   C1B 4541  10.880   2.550   9.300 -0.0722  0.0421  0.3244
  284loPI   C2B 4542  11.031   2.565   8.830  0.1487 -0.3161 -0.1199
  284loPI   C3B 4543  11.033   2.903   8.375 -0.1431  0.3164 -0.3205
  284loPI   C4B 4544  11.254   3.011   8.099 -0.0189 -0.0686 -0.4942
  285loPI    C1 4545   3.459  15.985  10.176  0.0051  0.0395 -0.2824
  285loPI    C2 4546   3.648  16.249  10.409 -0.2997  0.1875 -0.1988
  285loPI    C3 4547   3.356  16.022  10.560 -0.0169 -0.2286 -0.2604
  285loPI   PO4 4548   3.273  16.123   9.967 -0.1609  0.0356  0.3761
  285loPI   GL1 4549   3.190  16.049   9.572 -0.1090 -0.2701  0.4141
  285loPI   GL2 4550   3.102  16.394   9.550 -0.2985  0.0893  0.3568
  285loPI   C1A 4551   2.967  16.145   9.134  0.3496 -0.2764 -0.3982
  285loPI   C2A 4552   3.008  16.111   8.727  0.4332  0.2050  0.3699
  285loPI   C3A 4553   2.712  16.086   8.378 -0.2675 -0.2436  0.0136
  285loPI   C4A 4554   2.844  16.111   7.941  0.0223  0.0682 -0.4949
  285loPI   C5A 4555   3.049  16.386   7.577  0.0773 -0.2170 -0.2947
  285loPI   C6A 4556   3.117  16.728   7.227 -0.0969  0.2541 -0.0352
  285loPI   C1B 4557   3.309  16.645   9.232  0.2950  0.2413  0.3423
  285loPI   C2B 4558   3.100  16.640   8.851  0.1314 -0.0898  0.0847
  285loPI   C3B 4559   3.014  16.567   8.440 -0.0612 -0.3123  0.2600
  285loPI   C4B 4560   2.899  16.586   8.033  0.2158 -0.0191 -0.1148
  286loPI    C1 4561   9.940   4.865  10.423  0.0038 -0.0308  0.1097
  286loPI    C2 4562  10.301   4.961  10.565  0.0619  0.0610 -0.0961
  286loPI    C3 4563  10.198   4.577  10.525 -0.0018  0.0319  0.3040
  286loPI   PO4 4564   9.916   5.112  10.219 -0.1044 -0.0212 -0.0610
  286loPI   GL1 4565  10.116   5.245   9.876 -0.4439  0.0472  0.0140
  286loPI   GL2 4566   9.936   5.512   9.769  0.2668  0.1338 -0.0059
  286loPI   C1A 4567  10.247   4.967   9.667 -0.2030  0.0756  0.1678
  286loPI   C2A 4568  10.140   4.745   9.311 -0.2730 -0.3687 -0.0263
  286loPI   C3A 4569  10.100   4.712   8.949  0.3445 -0.3322  0.1003
  286loPI   C4A 4570   9.980   4.655   8.528  0.0991 -0.1118  0.1538
  286loPI   C5A 4571  10.016   4.799   8.040 -0.0109 -0.2814 -0.1525
  286loPI   C6A 4572  10.091   5.120   7.839 -0.0723 -0.2305  0.0827
  286loPI   C1B 4573   9.674   5.526   9.386 -0.0204 -0.1472 -0.4519
  286loPI   C2B 4574   9.657   5.823   9.001  0.1252  0.4219  0.1782
  286loPI   C3B 4575   9.454   5.988   8.682 -0.0602  0.1742 -0.0153
  286loPI   C4B 4576   9.369   6.126   8.232 -0.0867 -0.1376  0.0741
  287loPI    C1 4577  15.812   4.583  10.981  0.0530  0.1069 -0.3077
  287loPI    C2 4578  15.599   4.921  10.962  0.1920  0.2093 -0.0888
  287loPI    C3 4579  15.942   4.912  11.168  0.1142 -0.1059  0.0333
  287loPI   PO4 4580  15.877   4.494  10.642  0.2501  0.2493 -0.0982
  287loPI   GL1 4581  15.905   4.571  10.203 -0.1548  0.1774  0.2424
  287loPI   GL2 4582  15.902   4.233  10.085  0.1766 -0.0177 -0.0824
  287loPI   C1A 4583  15.763   4.624   9.787  0.0163 -0.0163  0.0056
  287loPI   C2A 4584  15.735   4.946   9.403 -0.2202 -0.1777 -0.3446
  287loPI   C3A 4585  15.870   5.078   9.052  0.1434 -0.2697 -0.0897
  287loPI   C4A 4586  15.912   5.405   8.963 -0.1526  0.2835  0.0436
  287loPI   C5A 4587  15.709   5.777   9.038 -0.0687  0.0125 -0.2977
  287loPI   C6A 4588  15.423   5.854   9.385 -0.2446 -0.1191 -0.0031
  287loPI   C1B 4589  15.897   4.082   9.722 -0.3658 -0.2667 -0.0703
  287loPI   C2B 4590  15.761   3.827   9.422  0.0313  0.1037 -0.1402
  287loPI   C3B 4591  15.645   4.032   9.178  0.0848  0.1267  0.0201
  287loPI   C4B 4592  15.392   4.217   8.768 -0.0849 -0.0763  0.3552
  288loPI    C1 4593   9.885  10.909  10.063  0.0817  0.1226 -0.2135
  288loPI    C2 4594   9.679  11.230   9.943  0.0680  0.2849  0.2295
  288loPI    C3 4595   9.735  11.162  10.334 -0.1027 -0.3621  0.1516
  288loPI   PO4 4596   9.783  10.765   9.900  0.0982  0.1125  0.0917
  288loPI   GL1 4597  10.030  10.602   9.520 -0.2465 -0.1174  0.1964
  288loPI   GL2 4598   9.819  10.309   9.619 -0.1981 -0.1355 -0.1360
  288loPI   C1A 4599  10.071  10.788   9.039  0.2245 -0.0328 -0.0091
  288loPI   C2A 4600  10.165  10.868   8.683 -0.4097  0.1593 -0.2850
  288loPI   C3A 4601  10.515  10.955   8.439 -0.1473 -0.0025 -0.0345
  288loPI   C4A 4602  10.905  10.900   8.371  0.1339 -0.1339 -0.3391
  288loPI   C5A 4603  11.162  10.739   8.045  0.2438 -0.0444 -0.0441
  288loPI   C6A 4604  11.233  11.059   7.758  0.1979  0.0197  0.3309
  288loPI   C1B 4605   9.813  10.247   9.159  0.2050  0.2288  0.1912
  288loPI   C2B 4606   9.652  10.373   8.826 -0.3920  0.2619  0.0181
  288loPI   C3B 4607   9.761  10.661   8.505  0.3360 -0.0454 -0.3051
  288loPI   C4B 4608   9.775  10.687   7.942  0.2028  0.1237 -0.2262
  289loPI    C1 4609   1.624  10.440  10.328  0.0300 -0.0469  0.0929
  289loPI    C2 4610   1.711  10.195  10.024  0.0653 -0.0797  0.1293
  289loPI    C3 4611   1.931  10.523  10.086  0.0409 -0.0583  0.1028
  289loPI   PO4 4612   1.366  10.538  10.272 -0.2809 -0.1340  0.0515
  289loPI   GL1 4613   1.359  10.615   9.838  0.1212 -0.0944 -0.2553
  289loPI   GL2 4614   1.549  10.779   9.866  0.2346 -0.0337 -0.0547
  289loPI   C1A 4615   1.225  10.613   9.415 -0.1530 -0.3539 -0.0560
  289loPI   C2A 4616   1.484  10.671   9.071  0.2119 -0.3914  0.0062
  289loPI   C3A 4617   1.752  10.716   8.750 -0.0095  0.1183 -0.2962
  289loPI   C4A 4618   1.953  10.791   8.407 -0.1118 -0.1324  0.1153
  289loPI   C5A 4619   1.796  10.602   8.017  0.1281 -0.2358  0.0114
  289loPI   C6A 4620   1.810  10.276   7.757  0.1293 -0.0983 -0.2062
  289loPI   C1B 4621   1.455  11.035   9.429 -0.0492 -0.0559 -0.1588
  289loPI   C2B 4622   1.639  11.179   9.028  0.1057 -0.0194  0.1582
  289loPI   C3B 4623   1.560  11.108   8.527 -0.2749 -0.1746 -0.2070
  289loPI   C4B 4624   1.651  11.204   8.238 -0.0606 -0.3305  0.0750
  290loPI    C1 4625   8.541  15.627   9.806 -0.0412 -0.1102  0.2434
  290loPI    C2 4626   8.256  15.777  10.043 -0.0273  0.1297  0.1117
  290loPI    C3 4627   8.550  15.556  10.200 -0.2054  0.0002  0.2684
  290loPI   PO4 4628   8.592  15.858   9.598 -0.0934  0.4133  0.0515
  290loPI   GL1 4629   8.576  16.136   9.332  0.0663  0.1102  0.0227
  290loPI   GL2 4630   8.375  16.037   9.201  0.0286 -0.1525 -0.2484
  290loPI   C1A 4631   8.757  16.439   8.907  0.2935  0.0343 -0.1682
  290loPI   C2A 4632   8.948  16.524   8.519 -0.1259 -0.1522  0.0978
  290loPI   C3A 4633   8.909  16.824   8.183 -0.2243  0.2024  0.0434
  290loPI   C4A 4634   8.760  16.976   7.928  0.0220 -0.0642  0.2510
  290loPI   C5A 4635   8.799  17.066   7.517  0.0305  0.1249  0.2859
  290loPI   C6A 4636   8.912  17.376   7.169  0.1008 -0.1887  0.1572
  290loPI   C1B 4637   8.235  16.105   8.836 -0.1411 -0.0979 -0.0131
  290loPI   C2B 4638   8.206  16.143   8.257 -0.1996  0.0061 -0.3192
  290loPI   C3B 4639   8.105  15.973   7.863  0.2201 -0.0618  0.1104
  290loPI   C4B 4640   8.023  15.770   7.528  0.0608 -0.1055 -0.2119
  291loPI    C1 4641  11.393   3.506  10.276 -0.1002  0.0948 -0.1366
  291loPI    C2 4642  11.701   3.517  10.020 -0.1613 -0.1535 -0.2237
  291loPI    C3 4643  11.679   3.227  10.294 -0.0923  0.1151  0.0729
  291loPI   PO4 4644  11.184   3.650  10.035 -0.2029 -0.2241  0.4125
  291loPI   GL1 4645  11.191   3.508   9.689  0.3595  0.1443  0.2421
  291loPI   GL2 4646  11.468   3.271   9.534 -0.4236 -0.2658  0.0992
  291loPI   C1A 4647  10.871   3.651   9.394 -0.1504 -0.0523  0.0490
  291loPI   C2A 4648  10.972   3.674   9.007 -0.0636  0.3006 -0.2590
  291loPI   C3A 4649  10.984   3.614   8.612  0.0967 -0.2969  0.0335
  291loPI   C4A 4650  10.975   3.549   8.234 -0.2898  0.0509  0.1171
  291loPI   C5A 4651  11.042   3.744   7.787 -0.0631  0.0974 -0.3972
  291loPI   C6A 4652  11.316   3.855   7.542 -0.0305  0.0058 -0.1962
  291loPI   C1B 4653  11.459   3.405   9.015  0.1450 -0.0073  0.1162
  291loPI   C2B 4654  11.388   3.377   8.601 -0.1257 -0.0525  0.0802
  291loPI   C3B 4655  11.563   3.451   8.257  0.0972 -0.1220 -0.0510
  291loPI   C4B 4656  11.663   3.828   7.990  0.2168 -0.0216  0.2350
  292loPI    C1 4657   4.959  18.572   9.843 -0.1320 -0.2391  0.1098
  292loPI    C2 4658   4.678  18.751  10.064  0.0453  0.4188 -0.1714
  292loPI    C3 4659   5.064  18.805  10.151  0.1070 -0.4050  0.1562
  292loPI   PO4 4660   4.719  18.358   9.796 -0.0283 -0.0041 -0.1614
  292loPI   GL1 4661   4.488  18.367   9.358  0.0205 -0.3947  0.1644
  292loPI   GL2 4662   4.359  18.605   9.542  0.0708 -0.0954 -0.2406
  292loPI   C1A 4663   4.250  18.478   8.921 -0.0539 -0.2916 -0.0524
  292loPI   C2A 4664   4.078  18.166   8.746  0.1343 -0.3692 -0.3575
  292loPI   C3A 4665   3.770  18.213   8.306 -0.0416 -0.1049 -0.3147
  292loPI   C4A 4666   3.587  18.004   7.973  0.1154 -0.2779 -0.1241
  292loPI   C5A 4667   3.170  17.806   7.840 -0.2222 -0.1833 -0.0145
  292loPI   C6A 4668   2.921  17.398   7.815  0.0200 -0.0969  0.1653
  292loPI   C1B 4669   3.991  18.472   9.376  0.2003 -0.2828 -0.1516
  292loPI   C2B 4670   3.846  18.150   9.172 -0.0039  0.2263 -0.2033
  292loPI   C3B 4671   3.604  17.969   8.861 -0.1554 -0.2318  0.0410
  292loPI   C4B 4672   3.435  17.934   8.455  0.0047 -0.5370  0.0672
  293loPI    C1 4673  17.465  17.756  10.397 -0.6975  0.1070  0.0833
  293loPI    C2 4674  17.473  18.135  10.524 -0.2838  0.0271  0.3141
  293loPI    C3 4675  17.620  17.844  10.755  0.2008 -0.1648 -0.2113
  293loPI   PO4 4676  17.262  17.752  10.231  0.0817  0.1352  0.0237
  293loPI   GL1 4677  17.025  17.829   9.886 -0.2125  0.0165 -0.0811
  293loPI   GL2 4678  16.676  17.913   9.930  0.3133 -0.1760  0.0313
  293loPI   C1A 4679  17.056  17.773   9.439 -0.1070 -0.1136 -0.1291
  293loPI   C2A 4680  17.226  17.745   9.033 -0.2651  0.4022  0.1124
  293loPI   C3A 4681  17.516  17.910   8.737 -0.1967 -0.1823 -0.2686
  293loPI   C4A 4682  17.494  18.013   8.334  0.0078  0.1616 -0.0845
  293loPI   C5A 4683  17.587  17.961   7.894  0.0591  0.2932 -0.0128
  293loPI   C6A 4684  17.404  18.212   7.562 -0.0194  0.1122  0.3615
  293loPI   C1B 4685  16.528  17.819   9.513 -0.3961 -0.2378 -0.3267
  293loPI   C2B 4686  16.625  17.818   9.097  0.1610 -0.0821  0.0566
  293loPI   C3B 4687  16.806  17.639   8.791  0.0144 -0.0247  0.0442
  293loPI   C4B 4688  16.996  17.828   8.560  0.5143  0.3842 -0.1553
  294loPI    C1 4689   3.614   5.321  10.262  0.0136 -0.1997  0.0291
  294loPI    C2 4690   3.523   5.106  10.587  0.0654  0.0437  0.2074
  294loPI    C3 4691   3.497   5.505  10.597  0.3303  0.0693 -0.0028
  294loPI   PO4 4692   3.514   5.206  10.078  0.0265  0.2948 -0.2375
  294loPI   GL1 4693   3.437   5.172   9.647  0.1611 -0.2935 -0.0192
  294loPI   GL2 4694   3.156   5.337   9.665  0.0675  0.2412  0.4576
  294loPI   C1A 4695   3.427   4.839   9.300  0.2482 -0.0878  0.0480
  294loPI   C2A 4696   3.599   4.791   8.857  0.0325 -0.1754  0.1526
  294loPI   C3A 4697   3.814   4.457   8.734  0.0694  0.1496 -0.0626
  294loPI   C4A 4698   3.959   4.072   8.497 -0.3377 -0.0850 -0.1557
  294loPI   C5A 4699   4.115   3.784   8.186  0.0299 -0.3876  0.2642
  294loPI   C6A 4700   4.320   3.813   7.766 -0.0464 -0.0448  0.0904
  294loPI   C1B 4701   2.924   5.025   9.300 -0.2950  0.0997 -0.0891
  294loPI   C2B 4702   2.707   4.862   9.025  0.1566  0.0798  0.0877
  294loPI   C3B 4703   2.702   4.707   8.543 -0.1840 -0.0011  0.0063
  294loPI   C4B 4704   2.845   4.370   8.420  0.2804 -0.2213 -0.2216
  295loPI    C1 4705   2.371   4.835  10.523  0.1826  0.0161  0.4724
  295loPI    C2 4706   2.681   4.793  10.274 -0.0902  0.2144  0.0898
  295loPI    C3 4707   2.594   5.153  10.426  0.0589  0.0990  0.4583
  295loPI   PO4 4708   2.119   4.640  10.459  0.1217 -0.2256  0.2710
  295loPI   GL1 4709   1.823   4.443  10.170 -0.1056 -0.2354 -0.3473
  295loPI   GL2 4710   2.119   4.303  10.122 -0.1730 -0.1740  0.2524
  295loPI   C1A 4711   1.821   4.775   9.795 -0.0933  0.0648  0.1396
  295loPI   C2A 4712   1.869   5.025   9.332 -0.0296 -0.0243  0.0071
  295loPI   C3A 4713   1.825   5.196   8.988  0.0128  0.2733  0.0743
  295loPI   C4A 4714   1.569   5.267   8.647  0.1773  0.2652  0.1917
  295loPI   C5A 4715   1.610   5.604   8.295 -0.0622 -0.2435 -0.2384
  295loPI   C6A 4716   1.632   5.812   7.912 -0.1251 -0.0034  0.0376
  295loPI   C1B 4717   2.094   4.394   9.700 -0.0191 -0.0830 -0.0126
  295loPI   C2B 4718   2.021   4.489   9.280  0.0045 -0.0258  0.3284
  295loPI   C3B 4719   2.135   4.787   8.928  0.3093  0.1520  0.0856
  295loPI   C4B 4720   1.941   4.941   8.462  0.2189  0.1874  0.0835
  296loPI    C1 4721   9.173   3.556  10.292  0.0927  0.2490 -0.1250
  296loPI    C2 4722   9.479   3.337  10.427 -0.2208 -0.2139 -0.1428
  296loPI    C3 4723   9.292   3.592  10.672  0.0386 -0.0866 -0.0733
  296loPI   PO4 4724   9.108   3.376  10.043  0.0128 -0.0788 -0.0573
  296loPI   GL1 4725   8.876   3.329   9.617 -0.1549 -0.0954  0.1497
  296loPI   GL2 4726   9.222   3.369   9.581  0.0939  0.3391  0.1722
  296loPI   C1A 4727   8.748   3.271   9.283  0.1882  0.0235  0.0514
  296loPI   C2A 4728   8.756   3.405   8.822 -0.0358  0.0578 -0.2098
  296loPI   C3A 4729   8.758   3.696   8.361  0.0984  0.2842  0.2478
  296loPI   C4A 4730   8.982   4.024   8.120 -0.1464  0.0043 -0.2092
  296loPI   C5A 4731   9.067   4.392   7.785 -0.1490  0.0408 -0.1931
  296loPI   C6A 4732   9.362   4.718   7.649  0.1875 -0.1353 -0.0783
  296loPI   C1B 4733   9.274   3.560   9.096 -0.5254  0.2981 -0.0707
  296loPI   C2B 4734   9.361   3.645   8.626 -0.2281  0.3129 -0.1110
  296loPI   C3B 4735   9.441   3.881   8.246 -0.2821 -0.0732  0.2576
  296loPI   C4B 4736   9.577   4.044   7.886  0.0126  0.2430 -0.0797
  297loPI    C1 4737   1.467   9.473  10.313  0.1882  0.2329 -0.1507
  297loPI    C2 4738   1.132   9.533  10.102 -0.1228 -0.2473  0.1874
  297loPI    C3 4739   1.114   9.486  10.499  0.3736 -0.0820  0.2372
  297loPI   PO4 4740   1.586   9.245  10.086 -0.2053  0.2624 -0.1022
  297loPI   GL1 4741   1.625   9.248   9.689  0.3918  0.3462  0.1698
  297loPI   GL2 4742   1.911   8.983   9.791 -0.1687 -0.2286  0.0915
  297loPI   C1A 4743   1.765   9.056   9.350 -0.3453 -0.1963 -0.0429
  297loPI   C2A 4744   1.969   9.056   8.978  0.1437  0.1173 -0.0619
  297loPI   C3A 4745   2.175   8.926   8.609  0.0490  0.0431 -0.2747
  297loPI   C4A 4746   2.271   9.005   8.185  0.0331  0.0182  0.2396
  297loPI   C5A 4747   2.652   9.075   8.017 -0.0919  0.1521  0.1292
  297loPI   C6A 4748   3.053   9.145   7.852  0.1111  0.3342  0.0387
  297loPI   C1B 4749   2.205   8.863   9.390  0.0666  0.3944 -0.4221
  297loPI   C2B 4750   2.343   8.662   9.043  0.1136  0.0074 -0.0475
  297loPI   C3B 4751   2.615   8.663   8.657  0.1550 -0.1900  0.2712
  297loPI   C4B 4752   2.631   8.436   8.281 -0.0399 -0.1946  0.0607
  298loPI    C1 4753   3.236   0.348  10.331  0.0111 -0.0588  0.0987
  298loPI    C2 4754   3.553   0.187  10.514 -0.0855 -0.1828  0.1581
  298loPI    C3 4755   3.275   0.380  10.727 -0.0781 -0.1222  0.1131
  298loPI   PO4 4756   3.079   0.128  10.152 -0.2636 -0.0988 -0.0393
  298loPI   GL1 4757   2.904   0.062   9.813  0.0302 -0.2142 -0.2015
  298loPI   GL2 4758   2.733   0.297   9.651  0.2022 -0.0451  0.1737
  298loPI   C1A 4759   2.872  -0.036   9.309 -0.2662 -0.1081 -0.1111
  298loPI   C2A 4760   2.769   0.067   8.853  0.1086  0.2333  0.2214
  298loPI   C3A 4761   2.828  -0.085   8.362  0.2476 -0.0702  0.1170
  298loPI   C4A 4762   3.043  -0.178   7.927  0.0528  0.1482 -0.3832
  298loPI   C5A 4763   3.408  -0.209   7.722 -0.0219  0.2468  0.1231
  298loPI   C6A 4764   3.899  -0.147   7.871  0.1128 -0.0238 -0.0941
  298loPI   C1B 4765   2.775   0.519   9.264 -0.2434  0.1730  0.3932
  298loPI   C2B 4766   2.708   0.554   8.777  0.0147  0.1396  0.0376
  298loPI   C3B 4767   2.510   0.438   8.428 -0.5465  0.2705  0.0337
  298loPI   C4B 4768   2.286   0.045   8.312  0.4002 -0.1522 -0.0024
  299loPI    C1 4769   6.690  12.156   9.775  0.0667  0.0463  0.0660
  299loPI    C2 4770   6.876  12.416  10.016 -0.0920  0.0528  0.1830
  299loPI    C3 4771   6.683  12.547   9.691  0.0153  0.0571  0.1204
  299loPI   PO4 4772   6.805  11.960   9.726 -0.0339 -0.1639  0.1890
  299loPI   GL1 4773   6.689  11.612   9.604  0.0350 -0.1179  0.0376
  299loPI   GL2 4774   6.526  11.834   9.385  0.0431  0.1395  0.1640
  299loPI   C1A 4775   6.605  11.308   9.321  0.1721  0.1301  0.0547
  299loPI   C2A 4776   6.722  11.227   8.905  0.0054  0.0491 -0.1164
  299loPI   C3A 4777   6.764  11.094   8.549  0.2976 -0.0482 -0.1123
  299loPI   C4A 4778   6.641  10.851   8.299  0.1345 -0.2290  0.1049
  299loPI   C5A 4779   6.750  10.875   7.940 -0.0835  0.0884  0.0175
  299loPI   C6A 4780   7.067  10.909   7.563 -0.1308  0.2484  0.3326
  299loPI   C1B 4781   6.666  11.711   8.983 -0.1940  0.2834  0.0079
  299loPI   C2B 4782   6.424  11.728   8.535  0.1027  0.1007 -0.1247
  299loPI   C3B 4783   6.245  11.735   8.222  0.0715 -0.4437  0.1334
  299loPI   C4B 4784   5.896  11.582   7.951  0.0976 -0.1297  0.1486
  300loPI    C1 4785   3.120   3.065  10.469  0.1269 -0.0639 -0.0519
  300loPI    C2 4786   3.135   3.128  10.864 -0.0981 -0.0571 -0.0427
  300loPI    C3 4787   3.358   2.839  10.698  0.0918  0.0225  0.0706
  300loPI   PO4 4788   3.206   3.291  10.389  0.2609  0.0813 -0.0300
  300loPI   GL1 4789   3.220   3.403  10.027 -0.0783  0.2890  0.1112
  300loPI   GL2 4790   3.270   3.705   9.819 -0.1000  0.0789  0.2130
  300loPI   C1A 4791   3.210   3.331   9.551  0.2449  0.1600  0.4813
  300loPI   C2A 4792   3.101   3.003   9.200  0.0742  0.1676  0.0859
  300loPI   C3A 4793   2.963   2.890   8.765  0.0376  0.3874 -0.0137
  300loPI   C4A 4794   2.922   2.506   8.464 -0.0535 -0.2806  0.0655
  300loPI   C5A 4795   2.661   2.325   8.202  0.1000 -0.0735  0.1551
  300loPI   C6A 4796   2.578   2.223   7.912  0.0959 -0.3363  0.0852
  300loPI   C1B 4797   3.246   3.866   9.493  0.1337 -0.0995  0.1069
  300loPI   C2B 4798   2.997   3.980   9.131  0.0165 -0.5549  0.0245
  300loPI   C3B 4799   2.903   3.949   8.752  0.1548  0.1188 -0.3500
  300loPI   C4B 4800   3.059   3.840   8.345 -0.0880  0.3354  0.2482
  301loPI    C1 4801   1.254   4.539  10.890  0.0859  0.0685  0.4456
  301loPI    C2 4802   1.626   4.537  10.741 -0.0586  0.2426  0.0688
  301loPI    C3 4803   1.453   4.194  10.853  0.0038  0.0844 -0.3051
  301loPI   PO4 4804   0.991   4.583  10.650  0.1653 -0.0512  0.0350
  301loPI   GL1 4805   0.798   4.306  10.363 -0.0931  0.0669  0.1987
  301loPI   GL2 4806   1.112   4.290  10.285  0.1324  0.1275  0.0812
  301loPI   C1A 4807   0.697   4.193   9.918 -0.1164 -0.4548  0.2117
  301loPI   C2A 4808   0.645   3.997   9.467 -0.0067  0.0005  0.4510
  301loPI   C3A 4809   0.468   3.845   8.999 -0.1202  0.0643  0.0277
  301loPI   C4A 4810   0.473   3.597   8.587  0.1216 -0.1586 -0.0550
  301loPI   C5A 4811   0.255   3.591   8.152  0.0144 -0.1280  0.0803
  301loPI   C6A 4812  -0.072   3.796   8.029  0.0934  0.0097 -0.1049
  301loPI   C1B 4813   1.326   4.603  10.110  0.3426 -0.3771 -0.2664
  301loPI   C2B 4814   1.304   4.732   9.618  0.0418  0.1039  0.1629
  301loPI   C3B 4815   1.261   4.998   9.129 -0.2290 -0.0115  0.0325
  301loPI   C4B 4816   1.303   5.327   9.008  0.0324  0.0564  0.0757
  302loPI    C1 4817   2.311  16.125  10.349 -0.0655  0.3057  0.0926
  302loPI    C2 4818   1.997  16.094  10.594 -0.0691 -0.1231  0.0406
  302loPI    C3 4819   2.368  16.102  10.744 -0.0896  0.0695  0.0836
  302loPI   PO4 4820   2.194  16.074  10.102 -0.3607  0.2829 -0.2122
  302loPI   GL1 4821   1.992  15.907   9.725  0.1613 -0.1389 -0.2124
  302loPI   GL2 4822   2.364  15.884   9.680  0.3645 -0.1652  0.0523
  302loPI   C1A 4823   1.732  15.825   9.436  0.2806 -0.1793 -0.0291
  302loPI   C2A 4824   1.545  15.979   9.102 -0.0817 -0.0469  0.1627
  302loPI   C3A 4825   1.209  15.987   8.749 -0.1170  0.0651 -0.3252
  302loPI   C4A 4826   0.802  16.048   8.424 -0.4612  0.3674 -0.0225
  302loPI   C5A 4827   0.567  15.748   8.151  0.1493  0.0645  0.0193
  302loPI   C6A 4828   0.425  15.358   8.086  0.0765  0.4340 -0.1546
  302loPI   C1B 4829   2.499  16.102   9.314  0.3334 -0.1050  0.2689
  302loPI   C2B 4830   2.397  16.031   8.838  0.0409 -0.0471 -0.0460
  302loPI   C3B 4831   2.227  15.945   8.429 -0.1778 -0.0354 -0.0490
  302loPI   C4B 4832   2.305  15.875   8.051  0.1314  0.0678 -0.1027
  303loPI    C1 4833  16.217   4.875  10.422 -0.0630 -0.0919 -0.0552
  303loPI    C2 4834  15.873   5.060  10.337  0.0590  0.1954  0.0659
  303loPI    C3 4835  16.012   5.058  10.712  0.1948  0.0903  0.0157
  303loPI   PO4 4836  16.385   4.997  10.223  0.1148 -0.0038  0.0775
  303loPI   GL1 4837  16.656   4.764   9.919  0.2127 -0.0020 -0.0577
  303loPI   GL2 4838  16.390   4.561  10.015  0.0161 -0.1259  0.2010
  303loPI   C1A 4839  16.982   4.905   9.693  0.1498 -0.0027  0.0965
  303loPI   C2A 4840  17.164   4.922   9.222  0.0511  0.3491 -0.0096
  303loPI   C3A 4841  16.996   4.810   8.815 -0.0576  0.3641  0.3199
  303loPI   C4A 4842  17.218   4.727   8.432 -0.0073 -0.0146  0.0005
  303loPI   C5A 4843  17.657   4.712   8.397  0.2336  0.0143 -0.5320
  303loPI   C6A 4844  17.968   4.634   8.124 -0.0520  0.3963 -0.0188
  303loPI   C1B 4845  16.245   4.416   9.661 -0.0623 -0.0919 -0.3633
  303loPI   C2B 4846  16.077   4.377   9.325 -0.1445 -0.1114  0.1724
  303loPI   C3B 4847  16.057   4.325   8.878 -0.4488 -0.0040 -0.0384
  303loPI   C4B 4848  15.910   3.996   8.679 -0.0921  0.3052 -0.2207
  304loPI    C1 4849  13.826   5.353  10.455 -0.0870  0.0908 -0.2200
  304loPI    C2 4850  13.655   5.607  10.713 -0.0962 -0.1060 -0.0299
  304loPI    C3 4851  13.629   5.212  10.773  0.1190 -0.1473 -0.1945
  304loPI   PO4 4852  13.726   5.417  10.211 -0.3010 -0.1286  0.0909
  304loPI   GL1 4853  13.411   5.373   9.931 -0.0962  0.5043  0.1710
  304loPI   GL2 4854  13.073   5.348  10.034 -0.1492  0.1921  0.1354
  304loPI   C1A 4855  13.573   5.303   9.553 -0.0041 -0.2721 -0.0045
  304loPI   C2A 4856  13.938   5.166   9.126 -0.2234  0.4021  0.3099
  304loPI   C3A 4857  14.239   5.056   8.730 -0.2631  0.0042  0.1466
  304loPI   C4A 4858  14.473   5.344   8.536 -0.0713  0.1665  0.1032
  304loPI   C5A 4859  14.464   5.784   8.514  0.3948  0.2689  0.2597
  304loPI   C6A 4860  14.286   6.227   8.496 -0.1546  0.1232 -0.0360
  304loPI   C1B 4861  13.077   5.360   9.501 -0.0635 -0.2095 -0.0105
  304loPI   C2B 4862  13.033   5.113   9.078 -0.1453  0.2059 -0.3509
  304loPI   C3B 4863  12.758   5.199   8.677 -0.0960 -0.1805  0.3982
  304loPI   C4B 4864  12.353   5.089   8.515  0.4252 -0.1709 -0.2397
  305loPI    C1 4865  18.186  12.971  10.348 -0.0890  0.0695 -0.1432
  305loPI    C2 4866  17.929  12.864  10.635 -0.0953  0.1397 -0.1226
  305loPI    C3 4867  18.048  13.245  10.604  0.0765  0.0907 -0.0748
  305loPI   PO4 4868  18.192  12.780  10.237 -0.2063  0.0719  0.0241
  305loPI   GL1 4869  17.957  12.663   9.976 -0.3898 -0.0025 -0.0472
  305loPI   GL2 4870  17.754  12.901   9.979  0.0590 -0.1262 -0.2674
  305loPI   C1A 4871  17.820  12.487   9.634 -0.0287 -0.0001  0.0386
  305loPI   C2A 4872  17.574  12.390   9.261 -0.2183 -0.2950 -0.0691
  305loPI   C3A 4873  17.239  12.435   8.940  0.1203 -0.1551 -0.1516
  305loPI   C4A 4874  16.997  12.541   8.590  0.0686 -0.0343  0.1527
  305loPI   C5A 4875  17.127  12.506   8.147 -0.0945 -0.0094 -0.0541
  305loPI   C6A 4876  17.086  12.571   7.744 -0.1597 -0.1082 -0.1330
  305loPI   C1B 4877  17.702  13.014   9.574 -0.1017  0.3510  0.1159
  305loPI   C2B 4878  17.403  12.870   9.165 -0.3229  0.0352 -0.0038
  305loPI   C3B 4879  17.345  12.891   8.761  0.0077 -0.0189 -0.2248
  305loPI   C4B 4880  17.194  13.047   8.365  0.2101 -0.1673  0.3758
  306loPI    C1 4881   3.221   7.115  10.287 -0.0393  0.1994  0.0452
  306loPI    C2 4882   3.432   7.137  10.626  0.2503  0.0691 -0.1229
  306loPI    C3 4883   3.250   6.795  10.526  0.1970  0.0959 -0.1175
  306loPI   PO4 4884   3.092   7.310  10.257  0.3168 -0.2735  0.0188
  306loPI   GL1 4885   2.753   7.426  10.000 -0.4165  0.0806 -0.1625
  306loPI   GL2 4886   2.666   7.823   9.875  0.1695 -0.0419 -0.0914
  306loPI   C1A 4887   2.539   7.425   9.618  0.2559 -0.4341 -0.1244
  306loPI   C2A 4888   2.456   7.228   9.270 -0.2610 -0.3559  0.0575
  306loPI   C3A 4889   2.465   7.032   8.818  0.1928  0.1029  0.0132
  306loPI   C4A 4890   2.404   6.863   8.469  0.2510  0.0465 -0.3955
  306loPI   C5A 4891   2.090   6.677   8.195  0.1554  0.0122 -0.1513
  306loPI   C6A 4892   1.723   6.669   8.245 -0.0184 -0.1292  0.2484
  306loPI   C1B 4893   2.615   7.910   9.507 -0.1048 -0.1689 -0.3369
  306loPI   C2B 4894   2.528   7.742   9.161  0.1222 -0.0747  0.2280
  306loPI   C3B 4895   2.511   7.661   8.769  0.3692 -0.0670 -0.3027
  306loPI   C4B 4896   2.319   7.442   8.526 -0.0645 -0.1292  0.0764
  307loPI    C1 4897  13.343  15.751   9.907  0.0828 -0.0612 -0.0411
  307loPI    C2 4898  13.071  15.696  10.195  0.0157  0.0238 -0.0874
  307loPI    C3 4899  13.449  15.575  10.249 -0.0355 -0.1122 -0.0305
  307loPI   PO4 4900  13.302  15.933   9.814 -0.1892  0.1012  0.3333
  307loPI   GL1 4901  13.042  16.103   9.448 -0.0560 -0.0528 -0.0193
  307loPI   GL2 4902  12.996  16.286   9.248 -0.2504 -0.2711  0.0403
  307loPI   C1A 4903  13.400  15.992   9.170 -0.1086  0.0371  0.0401
  307loPI   C2A 4904  13.414  16.040   8.717 -0.3591  0.0631  0.0515
  307loPI   C3A 4905  13.743  16.133   8.435  0.3066 -0.2456  0.0570
  307loPI   C4A 4906  13.838  16.269   8.083  0.0765  0.1455 -0.1371
  307loPI   C5A 4907  13.969  16.311   7.713 -0.2327 -0.0261 -0.0966
  307loPI   C6A 4908  14.068  16.542   7.346 -0.3243 -0.2309  0.2458
  307loPI   C1B 4909  12.961  16.195   8.877  0.2841 -0.1038 -0.1656
  307loPI   C2B 4910  13.085  16.365   8.515 -0.1610 -0.2006  0.0292
  307loPI   C3B 4911  13.279  16.328   8.234  0.0368  0.2684  0.2005
  307loPI   C4B 4912  13.437  16.457   7.789  0.1507  0.3530 -0.1638
  308loPI    C1 4913   7.105  15.929  10.147 -0.1236  0.1206 -0.0472
  308loPI    C2 4914   7.031  16.292  10.298 -0.3439  0.0461  0.0284
  308loPI    C3 4915   6.791  15.985  10.390 -0.1608 -0.1184 -0.0376
  308loPI   PO4 4916   7.060  15.903   9.900  0.1265  0.0747  0.4464
  308loPI   GL1 4917   7.208  15.931   9.547 -0.2506  0.1589  0.0885
  308loPI   GL2 4918   7.107  15.669   9.354  0.2246 -0.3559 -0.2756
  308loPI   C1A 4919   7.379  16.023   9.131  0.1319 -0.2758  0.2320
  308loPI   C2A 4920   7.423  16.012   8.685 -0.1233 -0.0127 -0.0758
  308loPI   C3A 4921   7.328  16.107   8.313 -0.0630  0.1290  0.0632
  308loPI   C4A 4922   7.303  15.889   7.937 -0.1050  0.1669  0.1029
  308loPI   C5A 4923   7.137  15.850   7.501 -0.0617 -0.1018  0.0676
  308loPI   C6A 4924   7.118  16.051   7.172  0.1263 -0.0787  0.0755
  308loPI   C1B 4925   7.022  15.310   9.015 -0.0593  0.0372 -0.1124
  308loPI   C2B 4926   7.019  15.125   8.606  0.2084  0.0727  0.1008
  308loPI   C3B 4927   7.007  15.035   8.186  0.2195  0.0495  0.1199
  308loPI   C4B 4928   7.086  14.963   7.799  0.0538  0.3361  0.1949
  309loPI    C1 4929   0.014   6.572  10.807 -0.0072  0.1409  0.0791
  309loPI    C2 4930   0.244   6.267  10.925 -0.4048 -0.2121 -0.0344
  309loPI    C3 4931   0.173   6.572  11.174 -0.1708 -0.3094  0.1559
  309loPI   PO4 4932   0.051   6.592  10.485 -0.0311  0.1858 -0.1094
  309loPI   GL1 4933  -0.168   6.275  10.159 -0.2370 -0.0767  0.0031
  309loPI   GL2 4934  -0.552   6.257  10.082  0.3888  0.1553 -0.2550
  309loPI   C1A 4935  -0.153   6.501   9.656  0.0305  0.0461 -0.0519
  309loPI   C2A 4936  -0.216   6.707   9.368  0.1721 -0.2591 -0.2722
  309loPI   C3A 4937  -0.238   6.722   8.897 -0.2218 -0.3552 -0.0126
  309loPI   C4A 4938  -0.259   6.579   8.499 -0.0712  0.0966  0.1297
  309loPI   C5A 4939  -0.101   6.147   8.394 -0.3185 -0.0794 -0.2069
  309loPI   C6A 4940  -0.329   5.718   8.287 -0.0853 -0.0915 -0.1196
  309loPI   C1B 4941  -0.621   6.440   9.721  0.0807 -0.1539  0.3267
  309loPI   C2B 4942  -0.925   6.469   9.338  0.4241 -0.6087  0.0905
  309loPI   C3B 4943  -1.049   6.426   8.962  0.4391  0.1044  0.1712
  309loPI   C4B 4944  -0.990   6.052   8.633  0.3092 -0.4549  0.1344
  310loPI    C1 4945  17.504  11.588  10.274  0.1004  0.2112  0.1112
  310loPI    C2 4946  17.168  11.743  10.122  0.0670 -0.0735 -0.1140
  310loPI    C3 4947  17.178  11.620  10.502 -0.0406  0.0635 -0.0662
  310loPI   PO4 4948  17.693  11.774  10.131 -0.0399  0.1976 -0.1176
  310loPI   GL1 4949  17.848  11.764   9.781  0.1615  0.0670 -0.1683
  310loPI   GL2 4950  17.997  11.981   9.670  0.0161  0.1228  0.1482
  310loPI   C1A 4951  17.820  11.569   9.250 -0.1812  0.0761 -0.3108
  310loPI   C2A 4952  17.858  11.287   8.932 -0.0985  0.2341  0.0931
  310loPI   C3A 4953  17.939  10.985   8.678 -0.1978 -0.2639 -0.0481
  310loPI   C4A 4954  18.346  10.959   8.409 -0.3428  0.0141 -0.2114
  310loPI   C5A 4955  18.597  11.380   8.324  0.1681 -0.0428  0.3838
  310loPI   C6A 4956  18.505  11.693   7.945  0.0427  0.0311  0.2500
  310loPI   C1B 4957  18.013  12.141   9.200 -0.0904 -0.0466  0.4079
  310loPI   C2B 4958  17.744  12.130   8.855 -0.1307  0.0060 -0.0103
  310loPI   C3B 4959  17.670  12.070   8.460  0.0764 -0.1883  0.0317
  310loPI   C4B 4960  17.777  11.976   8.021  0.0159  0.0965  0.6172
  311loPI    C1 4961   5.453  12.327  10.086  0.3040 -0.0400 -0.2250
  311loPI    C2 4962   5.576  12.237  10.456 -0.0504 -0.0229 -0.0993
  311loPI    C3 4963   5.449  12.607  10.371 -0.0603 -0.0520 -0.2132
  311loPI   PO4 4964   5.375  12.042   9.991 -0.0433 -0.0458  0.1018
  311loPI   GL1 4965   5.362  11.805   9.591 -0.0072  0.1310  0.0987
  311loPI   GL2 4966   5.012  11.831   9.626  0.0807 -0.2906  0.2124
  311loPI   C1A 4967   5.423  11.658   9.046  0.3402 -0.1323 -0.2571
  311loPI   C2A 4968   5.208  11.429   8.735  0.0866  0.0410 -0.1463
  311loPI   C3A 4969   4.998  11.477   8.398 -0.0630  0.3535  0.2025
  311loPI   C4A 4970   4.879  11.553   8.052 -0.1143 -0.0330 -0.1493
  311loPI   C5A 4971   4.629  11.769   7.692  0.2222  0.0774  0.0656
  311loPI   C6A 4972   4.637  12.113   7.488 -0.1220  0.2124  0.1333
  311loPI   C1B 4973   5.093  12.033   9.191  0.3465  0.1851 -0.0531
  311loPI   C2B 4974   5.016  11.881   8.820  0.1173  0.0954  0.0529
  311loPI   C3B 4975   4.854  11.977   8.419  0.1549 -0.0457 -0.1898
  311loPI   C4B 4976   4.770  12.173   8.023 -0.0862  0.0547 -0.1343
  312loPI    C1 4977   4.820   4.562  10.095 -0.1866  0.1682  0.0021
  312loPI    C2 4978   5.204   4.452  10.112 -0.2494 -0.0920 -0.1992
  312loPI    C3 4979   5.005   4.535  10.449 -0.0319 -0.0059 -0.0900
  312loPI   PO4 4980   4.846   4.666   9.886 -0.0221 -0.2659 -0.1926
  312loPI   GL1 4981   5.171   4.646   9.570  0.0234 -0.1430  0.3347
  312loPI   GL2 4982   4.834   4.551   9.384 -0.2548 -0.0285  0.3057
  312loPI   C1A 4983   5.270   4.633   9.154  0.0698 -0.2052 -0.0491
  312loPI   C2A 4984   5.254   4.562   8.737  0.0630  0.0330 -0.0278
  312loPI   C3A 4985   5.315   4.182   8.419 -0.0006 -0.2798 -0.0372
  312loPI   C4A 4986   5.363   3.766   8.242 -0.0474  0.1275  0.2446
  312loPI   C5A 4987   5.387   3.387   7.879 -0.0168 -0.4141  0.0157
  312loPI   C6A 4988   5.360   3.017   7.877  0.1309  0.1106 -0.1203
  312loPI   C1B 4989   4.810   4.837   8.953  0.0626  0.1391 -0.2341
  312loPI   C2B 4990   4.914   4.909   8.497 -0.0949  0.0575 -0.0698
  312loPI   C3B 4991   5.165   4.706   8.208  0.0335 -0.2645  0.0206
  312loPI   C4B 4992   5.507   4.550   7.986 -0.4216  0.3931 -0.0588
  313loPI    C1 4993  13.594   6.771  10.554 -0.0834 -0.1642  0.1126
  313loPI    C2 4994  13.498   7.111  10.367  0.1305 -0.1460  0.0333
  313loPI    C3 4995  13.460   7.084  10.764 -0.0344 -0.0821  0.0224
  313loPI   PO4 4996  13.826   6.640  10.434 -0.1508  0.2311  0.2109
  313loPI   GL1 4997  14.156   6.400  10.119 -0.0393  0.0428 -0.0207
  313loPI   GL2 4998  14.384   6.150  10.147  0.1259 -0.1498 -0.3093
  313loPI   C1A 4999  14.069   6.614   9.708  0.2385  0.1841  0.1698
  313loPI   C2A 5000  13.927   6.595   9.323 -0.3994  0.2126 -0.4734
  313loPI   C3A 5001  14.010   6.509   8.940  0.0505  0.2606  0.4431
  313loPI   C4A 5002  13.796   6.619   8.659  0.1968 -0.0467 -0.0807
  313loPI   C5A 5003  13.931   6.551   8.192 -0.0370  0.0420 -0.3388
  313loPI   C6A 5004  13.645   6.483   7.875  0.2057 -0.2567 -0.0249
  313loPI   C1B 5005  14.225   6.015   9.727  0.1368 -0.0911  0.0799
  313loPI   C2B 5006  14.071   6.078   9.271  0.1917  0.2285 -0.1170
  313loPI   C3B 5007  13.870   5.982   8.817  0.1375 -0.2366  0.3047
  313loPI   C4B 5008  13.785   6.061   8.370 -0.0630  0.2992  0.1032
  314loPI    C1 5009  16.779   6.857  10.817  0.0816 -0.0112 -0.0696
  314loPI    C2 5010  16.958   7.153  10.617  0.0156  0.1021  0.0375
  314loPI    C3 5011  17.017   7.113  11.010 -0.0478  0.0275  0.0398
  314loPI   PO4 5012  16.853   6.607  10.478  0.2269  0.0456 -0.0329
  314loPI   GL1 5013  16.983   6.646   9.961  0.0627  0.1868  0.0696
  314loPI   GL2 5014  16.748   6.961  10.136  0.0311  0.1163 -0.0138
  314loPI   C1A 5015  16.838   6.316   9.776 -0.0374  0.0459 -0.0251
  314loPI   C2A 5016  16.611   6.174   9.434  0.2163  0.1394 -0.0063
  314loPI   C3A 5017  16.540   6.268   9.011 -0.2061  0.0178  0.0065
  314loPI   C4A 5018  16.509   6.311   8.367 -0.1707 -0.2073 -0.0948
  314loPI   C5A 5019  16.573   6.628   8.067  0.1078  0.2067  0.0622
  314loPI   C6A 5020  16.758   6.918   7.696 -0.3414  0.0891  0.2985
  314loPI   C1B 5021  16.824   7.279   9.783 -0.2185 -0.2675  0.1846
  314loPI   C2B 5022  16.970   7.203   9.330  0.1000  0.2269 -0.1838
  314loPI   C3B 5023  16.941   7.169   8.947 -0.1682  0.2886 -0.1076
  314loPI   C4B 5024  16.947   7.320   8.505  0.2461  0.0819  0.0786
  315loPI    C1 5025  11.603  12.553   9.920 -0.1718 -0.0864 -0.1694
  315loPI    C2 5026  11.752  12.858   9.709  0.2334 -0.2768 -0.1688
  315loPI    C3 5027  11.912  12.762  10.063 -0.1379 -0.2554  0.0102
  315loPI   PO4 5028  11.638  12.298   9.799 -0.2779 -0.0156  0.1227
  315loPI   GL1 5029  11.762  12.372   9.349  0.1220 -0.1800 -0.2552
  315loPI   GL2 5030  12.014  12.193   9.480 -0.0477  0.0347  0.1771
  315loPI   C1A 5031  11.804  12.296   8.939 -0.1964  0.2168  0.1603
  315loPI   C2A 5032  11.614  12.239   8.460  0.0099 -0.0453  0.1174
  315loPI   C3A 5033  11.722  12.300   7.975 -0.2034 -0.1198  0.1114
  315loPI   C4A 5034  12.054  12.618   7.619  0.1380 -0.1495  0.4123
  315loPI   C5A 5035  12.403  12.918   7.446  0.0395 -0.1370  0.0509
  315loPI   C6A 5036  12.601  13.227   7.527  0.2317 -0.0489  0.4279
  315loPI   C1B 5037  11.754  11.870   9.323 -0.3927  0.1059 -0.1713
  315loPI   C2B 5038  11.977  11.797   8.912  0.0487 -0.0456 -0.2369
  315loPI   C3B 5039  11.812  11.703   8.547 -0.0795  0.1260  0.2639
  315loPI   C4B 5040  11.494  11.763   8.138 -0.2160  0.1714 -0.1932
  316loPI    C1 5041   7.362  16.653  10.162 -0.1479 -0.0399 -0.1049
  316loPI    C2 5042   7.608  16.809  10.436  0.0359 -0.0361 -0.2701
  316loPI    C3 5043   7.230  16.724  10.533  0.0811  0.0249 -0.0339
  316loPI   PO4 5044   7.446  16.705   9.846  0.2594  0.3690  0.1694
  316loPI   GL1 5045   7.335  16.753   9.469  0.0734 -0.0431 -0.2038
  316loPI   GL2 5046   7.421  16.369   9.436  0.1049  0.0202  0.0628
  316loPI   C1A 5047   7.351  16.636   9.039  0.1429  0.3759  0.0105
  316loPI   C2A 5048   7.375  16.482   8.713  0.0827 -0.2772 -0.1392
  316loPI   C3A 5049   7.404  16.681   8.220 -0.0254 -0.0341 -0.2863
  316loPI   C4A 5050   7.249  16.415   7.880  0.0371 -0.0144  0.0226
  316loPI   C5A 5051   7.163  16.409   7.470  0.2107 -0.0629  0.0880
  316loPI   C6A 5052   7.496  16.371   7.160  0.1474  0.2441 -0.1898
  316loPI   C1B 5053   7.008  16.338   9.250 -0.0703 -0.0856 -0.1090
  316loPI   C2B 5054   6.959  16.290   8.872  0.2985  0.2322  0.1027
  316loPI   C3B 5055   6.913  16.521   8.505  0.3009 -0.0534  0.1240
  316loPI   C4B 5056   6.846  16.561   8.106 -0.0493 -0.0055  0.0527
  317loPI    C1 5057  13.265   2.544  10.188 -0.2694  0.2932 -0.1472
  317loPI    C2 5058  13.312   2.931  10.277 -0.1081  0.1978  0.1971
  317loPI    C3 5059  13.099   2.695  10.519 -0.1865  0.0644  0.0003
  317loPI   PO4 5060  13.221   2.513   9.946  0.4259 -0.1357  0.5085
  317loPI   GL1 5061  12.930   2.501   9.576  0.0606 -0.0416  0.0925
  317loPI   GL2 5062  13.256   2.413   9.428 -0.2214  0.0632 -0.1890
  317loPI   C1A 5063  12.687   2.815   9.360  0.4834  0.2219 -0.0165
  317loPI   C2A 5064  12.794   3.011   9.023  0.0767  0.1904 -0.1711
  317loPI   C3A 5065  12.804   3.250   8.704 -0.1967 -0.1917 -0.0576
  317loPI   C4A 5066  12.866   3.206   8.169 -0.2899  0.0368  0.0472
  317loPI   C5A 5067  12.945   3.649   8.007  0.0443 -0.3126  0.0114
  317loPI   C6A 5068  12.977   3.984   7.693 -0.1822  0.3373 -0.3305
  317loPI   C1B 5069  13.023   2.540   9.042 -0.1559 -0.1140  0.1341
  317loPI   C2B 5070  12.909   2.577   8.597  0.0762 -0.2189 -0.6454
  317loPI   C3B 5071  12.666   2.732   8.283  0.0262 -0.0938  0.0352
  317loPI   C4B 5072  12.559   2.889   7.818  0.2846 -0.1534 -0.0304
  318loPI    C1 5073   3.160  13.329  10.403  0.0123  0.3634 -0.4145
  318loPI    C2 5074   2.984  13.040  10.189  0.1496 -0.0892  0.0642
  318loPI    C3 5075   2.816  13.168  10.528  0.2026  0.2425 -0.0315
  318loPI   PO4 5076   3.221  13.523  10.173 -0.2256  0.0883 -0.3633
  318loPI   GL1 5077   3.081  13.479   9.733  0.0785 -0.1546  0.0235
  318loPI   GL2 5078   2.841  13.331   9.849  0.0159 -0.3148  0.0528
  318loPI   C1A 5079   2.944  13.721   9.410 -0.2556 -0.0899 -0.3251
  318loPI   C2A 5080   2.767  13.811   8.940  0.0795 -0.0917  0.0681
  318loPI   C3A 5081   2.443  13.648   8.678  0.0254  0.4441  0.0227
  318loPI   C4A 5082   2.012  13.570   8.527  0.0054  0.2168  0.1347
  318loPI   C5A 5083   1.699  13.629   8.247 -0.2996 -0.0967 -0.2516
  318loPI   C6A 5084   1.311  13.840   8.064  0.1730  0.3829 -0.1380
  318loPI   C1B 5085   2.803  13.221   9.427  0.2182  0.2112  0.0638
  318loPI   C2B 5086   2.566  13.419   9.085 -0.1481 -0.0812  0.0273
  318loPI   C3B 5087   2.414  13.789   9.252  0.1725 -0.3985 -0.0090
  318loPI   C4B 5088   2.150  13.956   9.504 -0.3218 -0.1977 -0.0539
  319loPI    C1 5089  11.069  10.118  10.130  0.1213  0.0378  0.1451
  319loPI    C2 5090  11.433  10.012  10.257  0.2225 -0.2241 -0.3396
  319loPI    C3 5091  11.108   9.842  10.416  0.2910  0.1635  0.2454
  319loPI   PO4 5092  11.042  10.161   9.830  0.2031  0.1404  0.2396
  319loPI   GL1 5093  11.322  10.210   9.572 -0.0947  0.1557  0.0721
  319loPI   GL2 5094  11.244  10.537   9.549  0.0900 -0.0892 -0.2327
  319loPI   C1A 5095  11.603  10.254   9.165 -0.0688 -0.2365  0.2556
  319loPI   C2A 5096  11.694  10.115   8.773  0.1086  0.0880  0.0767
  319loPI   C3A 5097  11.803  10.033   8.336  0.3302  0.1110 -0.3199
  319loPI   C4A 5098  11.978   9.742   8.024 -0.3075  0.1239  0.2818
  319loPI   C5A 5099  12.294   9.715   7.764  0.0263 -0.3061 -0.1059
  319loPI   C6A 5100  12.661   9.601   7.602  0.1245  0.0054  0.0383
  319loPI   C1B 5101  11.183  10.582   9.079  0.4024 -0.0059 -0.0933
  319loPI   C2B 5102  11.254  10.865   8.908 -0.2477 -0.4763  0.2669
  319loPI   C3B 5103  11.403  10.922   8.457  0.0668 -0.0564  0.0791
  319loPI   C4B 5104  11.644  10.937   8.038 -0.1214 -0.3454  0.0119
  320loPI    C1 5105  17.756  10.189  10.456 -0.0743  0.2494 -0.0516
  320loPI    C2 5106  17.483  10.006  10.684 -0.2372  0.2495 -0.2444
  320loPI    C3 5107  17.700  10.306  10.834 -0.0263 -0.0426  0.0493
  320loPI   PO4 5108  17.835   9.986  10.302  0.4197 -0.4090  0.0986
  320loPI   GL1 5109  17.695   9.821   9.906  0.0035  0.0439  0.1924
  320loPI   GL2 5110  17.414  10.029  10.073 -0.1424 -0.1933  0.2259
  320loPI   C1A 5111  17.808   9.643   9.453 -0.4028 -0.0508  0.1756
  320loPI   C2A 5112  17.944   9.737   8.951  0.3637 -0.1200 -0.5657
  320loPI   C3A 5113  17.964   9.615   8.520  0.0672 -0.4734 -0.2542
  320loPI   C4A 5114  17.760   9.875   8.189 -0.1776 -0.4521 -0.0128
  320loPI   C5A 5115  17.404   9.962   7.843 -0.4952  0.3009 -0.0973
  320loPI   C6A 5116  17.029  10.028   7.712  0.1010 -0.1578  0.0087
  320loPI   C1B 5117  17.543  10.381   9.776 -0.2340  0.3874  0.2033
  320loPI   C2B 5118  17.793  10.565   9.403  0.1761  0.0418 -0.0395
  320loPI   C3B 5119  18.187  10.789   9.355 -0.0334 -0.0386 -0.3958
  320loPI   C4B 5120  18.606  10.826   9.422  0.2508  0.2438  0.1303
  321loPI    C1 5121  15.690  10.636  10.514 -0.2948  0.1516 -0.1131
  321loPI    C2 5122  15.319  10.505  10.583 -0.1669 -0.0969  0.1235
  321loPI    C3 5123  15.615  10.407  10.833  0.0625  0.0859 -0.0719
  321loPI   PO4 5124  15.648  10.611  10.239  0.2888 -0.1127 -0.0658
  321loPI   GL1 5125  15.512  10.359   9.883  0.0627  0.3161 -0.1301
  321loPI   GL2 5126  15.803  10.347   9.782  0.0617 -0.1226 -0.1116
  321loPI   C1A 5127  15.394  10.408   9.416  0.1459  0.2553  0.0080
  321loPI   C2A 5128  15.372  10.271   9.032  0.3116  0.1438 -0.0139
  321loPI   C3A 5129  15.748  10.254   8.802 -0.0463  0.2817  0.0035
  321loPI   C4A 5130  15.686   9.901   8.534 -0.0889 -0.0088  0.1433
  321loPI   C5A 5131  15.784   9.713   8.170 -0.2789 -0.4239 -0.0901
  321loPI   C6A 5132  15.887   9.467   7.784 -0.2205 -0.0696  0.2683
  321loPI   C1B 5133  15.740  10.074   9.333 -0.1121  0.0448  0.2079
  321loPI   C2B 5134  15.990   9.885   8.994  0.4835  0.1898  0.2105
  321loPI   C3B 5135  16.232   9.931   8.652  0.1137 -0.1361  0.1345
  321loPI   C4B 5136  16.272   9.999   8.246  0.0534 -0.1466 -0.1246
  322loPI    C1 5137   0.133  12.583  10.283 -0.2487 -0.0919  0.1770
  322loPI    C2 5138   0.457  12.612  10.516 -0.1077 -0.0658 -0.0197
  322loPI    C3 5139   0.172  12.346  10.603  0.0241 -0.1742  0.0856
  322loPI   PO4 5140   0.248  12.580  10.059 -0.0612  0.0104  0.0086
  322loPI   GL1 5141   0.294  12.473   9.611 -0.2750 -0.2606  0.0892
  322loPI   GL2 5142   0.328  12.128   9.606  0.0070  0.3836  0.3267
  322loPI   C1A 5143  -0.097  12.330   9.390  0.4924  0.0839 -0.0359
  322loPI   C2A 5144  -0.073  12.274   8.986 -0.1662  0.0190 -0.1204
  322loPI   C3A 5145  -0.354  12.354   8.760  0.3898  0.0908 -0.1694
  322loPI   C4A 5146  -0.459  12.363   8.336  0.0317  0.0556 -0.0552
  322loPI   C5A 5147  -0.396  12.221   7.978  0.2039 -0.2437  0.1227
  322loPI   C6A 5148  -0.730  12.061   7.552 -0.3290  0.1073  0.0126
  322loPI   C1B 5149   0.295  11.970   9.125 -0.3939  0.1592  0.1732
  322loPI   C2B 5150   0.234  11.948   8.660  0.0852  0.1345  0.1122
  322loPI   C3B 5151   0.059  11.877   8.371 -0.0675 -0.1601 -0.2826
  322loPI   C4B 5152  -0.363  11.927   8.355  0.0591 -0.0285  0.1260
  323loPI    C1 5153  17.175   1.373  10.217 -0.2117  0.2068  0.1781
  323loPI    C2 5154  17.561   1.309  10.132 -0.3004  0.0326 -0.1098
  323loPI    C3 5155  17.443   1.344  10.512 -0.0500 -0.2458 -0.0023
  323loPI   PO4 5156  17.082   1.239  10.038 -0.2964  0.1824  0.1747
  323loPI   GL1 5157  17.286   1.195   9.712 -0.0361  0.2176 -0.2416
  323loPI   GL2 5158  17.350   1.480   9.669  0.0656 -0.4223 -0.0668
  323loPI   C1A 5159  17.382   0.894   9.362  0.3343  0.4284  0.0001
  323loPI   C2A 5160  17.397   0.943   8.967 -0.2415 -0.2051 -0.1822
  323loPI   C3A 5161  17.414   1.008   8.621 -0.0112  0.0429 -0.1425
  323loPI   C4A 5162  17.481   0.982   8.239 -0.2630  0.0063 -0.2879
  323loPI   C5A 5163  17.321   1.068   7.894 -0.2878 -0.2235  0.3295
  323loPI   C6A 5164  16.892   0.878   7.797 -0.0857 -0.2852  0.2493
  323loPI   C1B 5165  17.635   1.454   9.402 -0.0554  0.0676  0.0319
  323loPI   C2B 5166  17.698   1.340   8.947  0.0079 -0.3197  0.1146
  323loPI   C3B 5167  18.080   1.200   8.706  0.1162  0.0259  0.3304
  323loPI   C4B 5168  18.278   1.048   8.261  0.0611  0.1030  0.1991
  324loPI    C1 5169  15.704   5.980  10.464  0.2245  0.1161  0.0388
  324loPI    C2 5170  15.574   5.907  10.835  0.5541 -0.3793  0.0665
  324loPI    C3 5171  15.570   6.281  10.692 -0.1965 -0.2726  0.3207
  324loPI   PO4 5172  15.562   5.796  10.268  0.2098  0.1989  0.2515
  324loPI   GL1 5173  15.405   5.388  10.059  0.0823  0.0024 -0.1855
  324loPI   GL2 5174  15.093   5.259  10.092 -0.4292 -0.1416 -0.1837
  324loPI   C1A 5175  15.704   5.473   9.670  0.1208  0.0342 -0.0530
  324loPI   C2A 5176  15.477   5.364   9.268  0.0490 -0.3253 -0.1292
  324loPI   C3A 5177  15.285   5.625   8.886  0.1023  0.0576  0.0281
  324loPI   C4A 5178  15.447   5.858   8.541  0.0631  0.1889  0.0096
  324loPI   C5A 5179  15.778   5.919   8.299  0.1798  0.1297 -0.0242
  324loPI   C6A 5180  16.103   6.296   8.067 -0.2457  0.0508 -0.0321
  324loPI   C1B 5181  15.001   5.400   9.639 -0.1711 -0.0855 -0.2846
  324loPI   C2B 5182  14.969   5.587   9.268  0.0625  0.2376 -0.1953
  324loPI   C3B 5183  14.798   5.694   8.874  0.0534 -0.1433  0.0599
  324loPI   C4B 5184  14.933   5.578   8.455 -0.1300  0.2806 -0.0343
  325loPI    C1 5185  15.185   3.211  10.631  0.1872 -0.1093  0.0316
  325loPI    C2 5186  14.900   3.062  10.869  0.0113 -0.1487 -0.1996
  325loPI    C3 5187  15.278   2.934  10.904  0.0017 -0.1010  0.1045
  325loPI   PO4 5188  15.096   3.103  10.400  0.0882 -0.2015  0.2430
  325loPI   GL1 5189  15.147   3.167   9.995  0.0701  0.3326  0.1771
  325loPI   GL2 5190  15.004   3.424  10.043 -0.2744  0.1219  0.0080
  325loPI   C1A 5191  15.081   2.885   9.553 -0.1428 -0.0987 -0.1164
  325loPI   C2A 5192  15.102   2.858   9.099 -0.1831 -0.0046  0.0096
  325loPI   C3A 5193  15.216   2.775   8.693  0.1020 -0.2698  0.1253
  325loPI   C4A 5194  14.936   2.744   8.387  0.0208  0.3640  0.1403
  325loPI   C5A 5195  14.655   2.482   8.251 -0.0823 -0.0603 -0.1414
  325loPI   C6A 5196  14.268   2.139   8.319 -0.3471  0.0873 -0.0233
  325loPI   C1B 5197  15.007   3.343   9.532  0.3362  0.0719  0.0356
  325loPI   C2B 5198  14.967   3.330   9.027 -0.2631 -0.0732 -0.1291
  325loPI   C3B 5199  14.937   3.589   8.646 -0.0346 -0.2936  0.0393
  325loPI   C4B 5200  14.687   3.491   8.268 -0.1053 -0.5300 -0.0167
  326loPI    C1 5201  13.947   7.164  10.524  0.0899  0.0663  0.1967
  326loPI    C2 5202  14.091   7.132  10.895  0.0354  0.1696  0.2269
  326loPI    C3 5203  14.264   6.931  10.596  0.1082  0.1227  0.3001
  326loPI   PO4 5204  13.884   7.420  10.498 -0.0571 -0.0764  0.2073
  326loPI   GL1 5205  14.178   7.613  10.281  0.1898 -0.0908  0.2280
  326loPI   GL2 5206  14.464   7.272  10.303  0.2351  0.0270 -0.0429
  326loPI   C1A 5207  14.223   7.518   9.811  0.0114  0.1209 -0.5478
  326loPI   C2A 5208  13.934   7.626   9.494  0.4676  0.2118  0.1240
  326loPI   C3A 5209  13.803   7.634   9.114 -0.3314  0.2296  0.0481
  326loPI   C4A 5210  13.885   7.863   8.765  0.0548 -0.2904  0.2406
  326loPI   C5A 5211  14.183   7.989   8.460 -0.1884 -0.1797  0.0193
  326loPI   C6A 5212  14.527   8.303   8.423 -0.0026 -0.1991 -0.1635
  326loPI   C1B 5213  14.677   7.329   9.880  0.0820 -0.0502 -0.0253
  326loPI   C2B 5214  14.756   7.309   9.395  0.2608  0.0548  0.0794
  326loPI   C3B 5215  14.906   7.519   9.002  0.2084  0.1598 -0.0756
  326loPI   C4B 5216  15.052   7.272   8.639 -0.0997 -0.1115 -0.0524
  327loPI    C1 5217  11.627   4.318  10.067  0.0667 -0.0489  0.2041
  327loPI    C2 5218  11.607   3.986  10.288 -0.0191 -0.2352 -0.0780
  327loPI    C3 5219  11.615   4.344  10.466  0.4336 -0.3956  0.2442
  327loPI   PO4 5220  11.667   4.109   9.810  0.1072 -0.0172  0.2534
  327loPI   GL1 5221  11.801   4.149   9.418  0.2709 -0.1440 -0.2543
  327loPI   GL2 5222  11.849   4.514   9.548 -0.3949  0.1896  0.0769
  327loPI   C1A 5223  11.748   4.372   9.095  0.1548  0.1029 -0.2032
  327loPI   C2A 5224  11.639   4.524   8.739 -0.1340 -0.0875 -0.2660
  327loPI   C3A 5225  11.451   4.550   8.398  0.1140  0.1974 -0.0556
  327loPI   C4A 5226  11.456   4.756   7.930  0.1952  0.1943 -0.1252
  327loPI   C5A 5227  11.552   4.873   7.462  0.1023 -0.2309 -0.1118
  327loPI   C6A 5228  11.552   4.629   7.072 -0.2660  0.1166 -0.0232
  327loPI   C1B 5229  11.874   4.815   9.331 -0.0236 -0.0785 -0.0523
  327loPI   C2B 5230  11.594   4.974   8.957  0.1111 -0.0675 -0.0878
  327loPI   C3B 5231  11.290   5.037   8.525 -0.0228 -0.1225  0.1526
  327loPI   C4B 5232  10.996   4.898   8.141 -0.0179 -0.2607  0.3590
  328loPI    C1 5233   2.342   2.124  10.674  0.0820 -0.2617 -0.0582
  328loPI    C2 5234   1.962   2.129  10.548  0.1112 -0.3255 -0.1496
  328loPI    C3 5235   2.043   2.087  10.937  0.0189 -0.0611 -0.0995
  328loPI   PO4 5236   2.438   2.088  10.422  0.2195  0.3433 -0.0333
  328loPI   GL1 5237   2.362   2.165   9.922 -0.0385  0.0528  0.2449
  328loPI   GL2 5238   2.487   2.510  10.008 -0.2767 -0.2565 -0.0340
  328loPI   C1A 5239   2.702   2.017   9.666 -0.0709  0.0877  0.0484
  328loPI   C2A 5240   2.840   2.116   9.260 -0.1416 -0.2481 -0.1183
  328loPI   C3A 5241   2.901   1.928   8.829 -0.2353  0.0164 -0.0071
  328loPI   C4A 5242   2.998   2.017   8.392  0.1988  0.1979 -0.2695
  328loPI   C5A 5243   3.106   1.927   7.965 -0.1361 -0.0559  0.0146
  328loPI   C6A 5244   2.950   2.090   7.592  0.0061 -0.1494 -0.2706
  328loPI   C1B 5245   2.522   2.525   9.663  0.1045 -0.0681 -0.0042
  328loPI   C2B 5246   2.322   2.379   9.423 -0.1759  0.0898 -0.0597
  328loPI   C3B 5247   2.227   2.371   9.040  0.1790  0.0563  0.0816
  328loPI   C4B 5248   2.297   2.566   8.661  0.2108  0.0490  0.1165
  329loPI    C1 5249  17.881  13.720  10.506 -0.0331 -0.0794 -0.1352
  329loPI    C2 5250  17.851  14.115  10.451  0.0150 -0.0465  0.0675
  329loPI    C3 5251  18.180  13.961  10.618  0.1189 -0.2018 -0.2729
  329loPI   PO4 5252  17.771  13.662  10.266  0.6004 -0.0613 -0.1721
  329loPI   GL1 5253  17.977  13.448  10.016  0.0064 -0.1755 -0.1177
  329loPI   GL2 5254  17.823  13.753   9.752  0.2004 -0.2329 -0.1362
  329loPI   C1A 5255  18.086  13.299   9.606 -0.1262  0.1164 -0.2070
  329loPI   C2A 5256  17.945  13.348   9.172 -0.0632 -0.4238  0.1522
  329loPI   C3A 5257  17.626  13.259   8.837 -0.0617 -0.0857 -0.1127
  329loPI   C4A 5258  17.285  13.438   8.641 -0.0519  0.0344 -0.1794
  329loPI   C5A 5259  16.923  13.582   8.316  0.1998 -0.0153  0.1951
  329loPI   C6A 5260  16.674  13.604   7.957  0.0172 -0.1917 -0.1446
  329loPI   C1B 5261  18.103  13.726   9.386 -0.0880 -0.0649  0.2161
  329loPI   C2B 5262  18.292  13.782   8.962 -0.3345  0.1861 -0.0293
  329loPI   C3B 5263  18.183  14.049   8.580  0.4628  0.1137  0.0576
  329loPI   C4B 5264  18.099  14.205   8.196  0.1452  0.1580  0.1369
  330loPI    C1 5265  12.233  14.412   9.798 -0.0844 -0.5267  0.2971
  330loPI    C2 5266  11.914  14.604   9.944 -0.2183 -0.2190 -0.3601
  330loPI    C3 5267  12.270  14.642  10.123 -0.4445 -0.1691  0.0948
  330loPI   PO4 5268  12.147  14.395   9.527  0.2824  0.0646  0.1232
  330loPI   GL1 5269  11.952  14.485   9.272  0.3331 -0.1054  0.0981
  330loPI   GL2 5270  11.647  14.419   9.210 -0.1249 -0.1599 -0.0351
  330loPI   C1A 5271  12.007  14.421   8.793  0.2113  0.1436 -0.1785
  330loPI   C2A 5272  12.012  14.530   8.423  0.0252 -0.2312 -0.0501
  330loPI   C3A 5273  12.064  14.538   7.980  0.0051 -0.1383 -0.0562
  330loPI   C4A 5274  12.136  14.583   7.514 -0.0581  0.1555  0.1143
  330loPI   C5A 5275  12.000  14.910   7.241 -0.1201 -0.1125  0.0954
  330loPI   C6A 5276  12.168  15.197   6.904  0.0222  0.1740 -0.0902
  330loPI   C1B 5277  11.429  14.333   8.901 -0.6367  0.0746  0.0512
  330loPI   C2B 5278  11.575  14.243   8.524  0.2615  0.1908  0.1377
  330loPI   C3B 5279  11.650  14.290   8.124  0.1767  0.1236 -0.1869
  330loPI   C4B 5280  11.597  14.465   7.766 -0.1810  0.1772  0.1724
  331loPI    C1 5281   7.299   6.200  10.615 -0.1194  0.0038 -0.1357
  331loPI    C2 5282   6.944   6.367  10.696 -0.0104  0.1715  0.0023
  331loPI    C3 5283   7.256   6.432  10.938  0.0850 -0.0724 -0.0524
  331loPI   PO4 5284   7.396   6.224  10.333  0.2373  0.1234  0.2913
  331loPI   GL1 5285   7.356   6.227   9.900 -0.0620 -0.2050 -0.0750
  331loPI   GL2 5286   7.209   5.943   9.702  0.0266  0.1285 -0.0349
  331loPI   C1A 5287   7.328   6.306   9.463 -0.0411  0.1646  0.0526
  331loPI   C2A 5288   7.276   6.327   8.987 -0.2046  0.0362 -0.1153
  331loPI   C3A 5289   7.194   6.506   8.510  0.0088  0.1501 -0.1342
  331loPI   C4A 5290   7.213   6.268   8.152  0.2619  0.4327  0.3886
  331loPI   C5A 5291   7.084   6.129   7.800 -0.1941  0.1429  0.3641
  331loPI   C6A 5292   7.044   5.700   7.511 -0.1124 -0.0503 -0.0254
  331loPI   C1B 5293   7.265   5.756   9.282 -0.0853  0.2280  0.1942
  331loPI   C2B 5294   7.214   5.779   8.862  0.0221  0.0996 -0.0364
  331loPI   C3B 5295   7.074   5.705   8.482  0.2183 -0.0299 -0.0770
  331loPI   C4B 5296   7.019   5.691   8.095  0.2526 -0.2102  0.2708
  332loPI    C1 5297   5.403   9.065  10.347 -0.0610 -0.0011 -0.0154
  332loPI    C2 5298   5.493   9.374  10.584  0.1103  0.0264 -0.1146
  332loPI    C3 5299   5.517   9.001  10.725 -0.2612  0.0628  0.0571
  332loPI   PO4 5300   5.205   9.115  10.220 -0.0106 -0.2553 -0.0630
  332loPI   GL1 5301   5.030   8.852   9.841 -0.2576 -0.2715  0.0672
  332loPI   GL2 5302   5.018   8.574   9.577 -0.0317 -0.2910 -0.0249
  332loPI   C1A 5303   4.865   9.070   9.478 -0.1382 -0.0751  0.1848
  332loPI   C2A 5304   4.920   9.380   9.212 -0.0359 -0.2762  0.3788
  332loPI   C3A 5305   4.972   9.488   8.784  0.1472  0.2373  0.0143
  332loPI   C4A 5306   5.160   9.628   8.355 -0.2661 -0.2153 -0.1428
  332loPI   C5A 5307   5.341   9.983   8.087  0.1354  0.1101 -0.0192
  332loPI   C6A 5308   5.426  10.177   7.624  0.1413  0.1352  0.0188
  332loPI   C1B 5309   5.257   8.487   9.287  0.1298  0.0677 -0.0254
  332loPI   C2B 5310   5.147   8.521   8.745 -0.2358 -0.0887 -0.0682
  332loPI   C3B 5311   5.178   8.653   8.299 -0.3933 -0.1761 -0.2735
  332loPI   C4B 5312   5.206   8.786   7.881  0.4018  0.1208 -0.0033
  333loPI    C1 5313   6.634  15.003  10.009 -0.0230 -0.0080 -0.1595
  333loPI    C2 5314   7.017  15.057  10.112 -0.1093  0.0135  0.1619
  333loPI    C3 5315   6.903  14.715   9.938  0.0585  0.0171  0.0418
  333loPI   PO4 5316   6.567  15.165   9.738 -0.1477 -0.0987  0.0755
  333loPI   GL1 5317   6.507  15.442   9.243  0.3812 -0.0013 -0.2586
  333loPI   GL2 5318   6.599  15.116   9.256  0.2390 -0.3632 -0.0541
  333loPI   C1A 5319   6.741  15.822   9.035  0.0757 -0.0824 -0.0891
  333loPI   C2A 5320   6.980  15.814   8.587  0.0288 -0.0782 -0.0503
  333loPI   C3A 5321   6.933  15.602   8.166 -0.1064  0.0831 -0.1060
  333loPI   C4A 5322   6.815  15.591   7.825  0.1008  0.1206 -0.0410
  333loPI   C5A 5323   6.726  15.406   7.598 -0.2493  0.1265 -0.1874
  333loPI   C6A 5324   6.624  14.975   7.539 -0.0052  0.0150 -0.1543
  333loPI   C1B 5325   6.505  15.193   8.822 -0.0606 -0.0249 -0.2682
  333loPI   C2B 5326   6.484  15.181   8.386  0.1209 -0.0465  0.0346
  333loPI   C3B 5327   6.424  15.195   7.992 -0.1081  0.1123  0.1969
  333loPI   C4B 5328   6.170  15.231   7.566 -0.1394 -0.0942  0.2385
  334loPI    C1 5329   0.935  14.387  10.417 -0.1186  0.2107  0.3028
  334loPI    C2 5330   1.150  14.069  10.530 -0.1543  0.1574  0.2219
  334loPI    C3 5331   1.213  14.424  10.702  0.3421  0.2548 -0.1364
  334loPI   PO4 5332   0.852  14.297  10.170 -0.1759  0.0196  0.2908
  334loPI   GL1 5333   0.851  14.389   9.711  0.0664 -0.3949  0.1449
  334loPI   GL2 5334   0.739  14.137   9.604  0.1294  0.0665 -0.1325
  334loPI   C1A 5335   0.629  14.529   9.355 -0.1594  0.0547  0.3174
  334loPI   C2A 5336   0.541  14.238   9.011 -0.1663  0.2731  0.0785
  334loPI   C3A 5337   0.718  13.816   8.809  0.0733  0.0278  0.2446
  334loPI   C4A 5338   0.731  13.700   8.436 -0.0766 -0.2405 -0.1388
  334loPI   C5A 5339   0.842  13.296   8.247 -0.0187 -0.0221 -0.0428
  334loPI   C6A 5340   0.818  12.847   7.910 -0.1491 -0.0099  0.1156
  334loPI   C1B 5341   0.400  13.791   9.542 -0.4135 -0.1781 -0.0597
  334loPI   C2B 5342   0.247  13.711   9.117  0.4713  0.1257  0.1314
  334loPI   C3B 5343   0.226  13.684   8.702 -0.0504  0.3230  0.0390
  334loPI   C4B 5344   0.358  13.380   8.361 -0.0692 -0.2125  0.0576
  335loPI    C1 5345  15.832   7.996  10.625  0.1410 -0.1114  0.0416
  335loPI    C2 5346  15.584   8.008  10.939 -0.0044  0.1303 -0.0789
  335loPI    C3 5347  15.971   8.098  10.986  0.0016  0.0373  0.0546
  335loPI   PO4 5348  15.736   7.742  10.510 -0.0990 -0.1025  0.2230
  335loPI   GL1 5349  15.606   7.685  10.144  0.3041  0.3043  0.4333
  335loPI   GL2 5350  15.835   7.525   9.980 -0.2835  0.0740  0.0212
  335loPI   C1A 5351  15.596   7.886   9.684 -0.0694  0.0250 -0.2156
  335loPI   C2A 5352  15.698   7.917   9.266  0.1778 -0.1479  0.1999
  335loPI   C3A 5353  15.853   8.067   8.888  0.1224 -0.0273 -0.0330
  335loPI   C4A 5354  15.825   7.830   8.656 -0.0029  0.0682  0.0198
  335loPI   C5A 5355  15.651   7.618   8.388 -0.1375 -0.2854 -0.4179
  335loPI   C6A 5356  15.252   7.530   8.234  0.1708 -0.1927 -0.2931
  335loPI   C1B 5357  15.772   7.385   9.573  0.1630 -0.0691 -0.1069
  335loPI   C2B 5358  15.939   7.452   9.178  0.2268 -0.1224  0.0123
  335loPI   C3B 5359  16.058   7.471   8.821  0.1562  0.0850  0.0972
  335loPI   C4B 5360  16.030   7.326   8.445 -0.1015  0.3871  0.1068
  336loPI    C1 5361   7.346  14.766   9.787  0.1161 -0.1334 -0.3016
  336loPI    C2 5362   7.569  15.093   9.843 -0.1631  0.0435 -0.1978
  336loPI    C3 5363   7.479  14.858  10.153 -0.1905  0.0183 -0.2248
  336loPI   PO4 5364   7.414  14.642   9.604  0.2449  0.2708 -0.1102
  336loPI   GL1 5365   6.935  14.561   9.398 -0.0724  0.2820 -0.0456
  336loPI   GL2 5366   7.093  14.537   9.198  0.2493  0.0436  0.2639
  336loPI   C1A 5367   6.773  14.820   8.995  0.0803  0.1359  0.5983
  336loPI   C2A 5368   6.657  14.750   8.528  0.4107 -0.0011  0.1204
  336loPI   C3A 5369   6.604  14.632   8.073  0.3035 -0.0671 -0.0329
  336loPI   C4A 5370   6.800  14.560   7.785  0.0205 -0.0592  0.3656
  336loPI   C5A 5371   6.989  14.635   7.389 -0.0247 -0.1457 -0.1317
  336loPI   C6A 5372   7.274  14.397   7.063  0.2063  0.1891 -0.0033
  336loPI   C1B 5373   7.111  14.582   8.734  0.0650  0.2400 -0.2958
  336loPI   C2B 5374   7.103  14.490   8.305  0.1772  0.3551  0.0390
  336loPI   C3B 5375   7.372  14.468   7.835  0.1792 -0.3358  0.0083
  336loPI   C4B 5376   7.565  14.360   7.435 -0.3066 -0.3124  0.0764
  337loPI    C1 5377  18.435  18.373  10.623  0.0207 -0.0992 -0.0442
  337loPI    C2 5378  18.151  18.583  10.812  0.1859  0.1372 -0.0544
  337loPI    C3 5379  18.315  18.264  10.989  0.0473  0.1113  0.0288
  337loPI   PO4 5380  18.353  18.543  10.358 -0.2008  0.1054  0.1667
  337loPI   GL1 5381  18.189  18.780   9.921  0.2414 -0.0139  0.0112
  337loPI   GL2 5382  18.180  18.971  10.090 -0.1345  0.1113  0.0531
  337loPI   C1A 5383  18.093  18.800   9.526 -0.1720  0.2966  0.0916
  337loPI   C2A 5384  18.046  18.926   9.146  0.0319 -0.2538  0.0975
  337loPI   C3A 5385  18.137  18.607   9.014  0.2760 -0.2016  0.2715
  337loPI   C4A 5386  18.456  18.664   8.743 -0.1612  0.1956  0.1084
  337loPI   C5A 5387  18.468  18.655   8.335  0.4271  0.2582  0.1555
  337loPI   C6A 5388  18.625  18.478   7.947 -0.1145 -0.2168 -0.2652
  337loPI   C1B 5389  18.140  19.230   9.703 -0.1562 -0.0176  0.0148
  337loPI   C2B 5390  18.350  19.299   9.330  0.3110  0.1263 -0.0157
  337loPI   C3B 5391  18.582  19.537   8.917 -0.3822 -0.1120  0.1040
  337loPI   C4B 5392  18.651  19.423   8.511  0.2610  0.0978 -0.1396
  338loPI    C1 5393  15.370  16.438  10.224  0.0626  0.0719  0.0300
  338loPI    C2 5394  15.191  16.369  10.575 -0.1638  0.1440 -0.0697
  338loPI    C3 5395  15.235  16.072  10.310 -0.1745  0.1360 -0.0625
  338loPI   PO4 5396  15.278  16.582  10.073  0.3114 -0.1066 -0.2047
  338loPI   GL1 5397  15.490  16.503   9.677  0.2157 -0.1965  0.2331
  338loPI   GL2 5398  15.658  16.729   9.638  0.0695  0.0646 -0.0174
  338loPI   C1A 5399  15.393  16.446   9.179  0.2706  0.2258  0.1592
  338loPI   C2A 5400  15.253  16.377   8.763 -0.2352 -0.0121  0.0238
  338loPI   C3A 5401  15.251  16.196   8.462  0.0248  0.0137  0.0032
  338loPI   C4A 5402  15.262  16.238   8.030  0.3504 -0.3234  0.0987
  338loPI   C5A 5403  15.417  16.121   7.692 -0.0047  0.1240  0.1954
  338loPI   C6A 5404  15.743  15.861   7.353  0.0051  0.2127 -0.1268
  338loPI   C1B 5405  15.907  16.853   9.257 -0.0902  0.1297  0.0243
  338loPI   C2B 5406  16.157  17.051   8.949  0.3741 -0.2066  0.1608
  338loPI   C3B 5407  16.327  17.161   8.505  0.1404  0.0783  0.1673
  338loPI   C4B 5408  16.207  17.179   7.996 -0.4424  0.2350  0.2435
  339POPI    C1 5409   2.493  18.004  10.218 -0.0818 -0.0892  0.0342
  339POPI    C2 5410   2.216  18.116  10.484 -0.0091  0.1036  0.0312
  339POPI    C3 5411   2.452  17.802  10.561 -0.2586 -0.0926  0.0118
  339POPI   PO4 5412   2.444  18.053  10.004 -0.1602  0.1118 -0.1363
  339POPI   GL1 5413   2.567  18.029   9.642 -0.0233  0.2135  0.0821
  339POPI   GL2 5414   2.844  18.106   9.528 -0.1533  0.0694  0.2310
  339POPI   C1A 5415   2.471  18.234   9.184 -0.2790  0.1450 -0.0406
  339POPI   D2A 5416   2.474  18.276   8.697 -0.1464 -0.0352 -0.1372
  339POPI   C3A 5417   2.726  17.983   8.540 -0.3041  0.2413 -0.1420
  339POPI   C4A 5418   2.851  17.958   8.211 -0.4815 -0.0891 -0.0251
  339POPI   C1B 5419   2.911  18.084   9.015 -0.0030 -0.1874 -0.0086
  339POPI   C2B 5420   3.167  18.212   8.719 -0.0197  0.2989  0.3670
  339POPI   C3B 5421   3.345  18.479   8.306 -0.0673 -0.0024  0.2008
  339POPI   C4B 5422   3.612  18.837   8.282  0.0977 -0.1847 -0.1714
  340POPI    C1 5423   8.990  12.192  10.256 -0.0122  0.0731  0.0276
  340POPI    C2 5424   9.115  12.561  10.166 -0.2167  0.1187 -0.0751
  340POPI    C3 5425   9.116  12.437  10.546  0.1974  0.0945 -0.0794
  340POPI   PO4 5426   9.087  12.086   9.982  0.0981  0.0822 -0.1275
  340POPI   GL1 5427   9.023  11.845   9.608  0.5666 -0.0382 -0.3780
  340POPI   GL2 5428   8.778  11.593   9.487  0.1115 -0.2899  0.1951
  340POPI   C1A 5429   9.228  11.669   9.231  0.0111  0.2123 -0.0079
  340POPI   D2A 5430   9.152  11.537   8.755 -0.1943 -0.2455 -0.3347
  340POPI   C3A 5431   9.362  11.597   8.364  0.0912 -0.3485 -0.1630
  340POPI   C4A 5432   9.675  11.723   8.087 -0.0378 -0.1294  0.3975
  340POPI   C1B 5433   8.737  11.800   9.157  0.4517  0.1280 -0.1915
  340POPI   C2B 5434   8.871  11.886   8.841  0.2168 -0.2249  0.2245
  340POPI   C3B 5435   8.995  11.937   8.438  0.0307 -0.0751  0.3481
  340POPI   C4B 5436   9.140  11.846   7.995 -0.0934  0.0293 -0.2101
  341POPI    C1 5437   5.226  14.615   9.797  0.0063 -0.1501 -0.3210
  341POPI    C2 5438   5.606  14.517   9.872 -0.0056 -0.1000 -0.1937
  341POPI    C3 5439   5.325  14.233   9.862 -0.0141 -0.1005  0.0155
  341POPI   PO4 5440   5.270  14.795   9.571  0.0540  0.2245 -0.2793
  341POPI   GL1 5441   5.472  14.883   9.190 -0.0833 -0.3449 -0.4320
  341POPI   GL2 5442   5.727  14.817   9.191 -0.4501 -0.1746  0.2294
  341POPI   C1A 5443   5.401  15.234   8.987 -0.1264 -0.1482 -0.2563
  341POPI   D2A 5444   5.270  15.418   8.641  0.1370  0.0089  0.2062
  341POPI   C3A 5445   5.470  15.698   8.434 -0.1610 -0.1270 -0.2508
  341POPI   C4A 5446   5.447  16.049   8.243 -0.3608 -0.0450  0.1664
  341POPI   C1B 5447   5.595  14.890   8.692  0.3895  0.1285  0.3492
  341POPI   C2B 5448   5.534  15.008   8.349 -0.1522 -0.3581  0.1861
  341POPI   C3B 5449   5.311  15.357   8.112 -0.1307 -0.1874  0.1823
  341POPI   C4B 5450   5.200  15.770   7.927  0.0148  0.0276 -0.0134
  342POPI    C1 5451   4.137   4.648  10.349 -0.2218 -0.0930 -0.0033
  342POPI    C2 5452   4.047   4.992  10.531  0.0765 -0.1491  0.2589
  342POPI    C3 5453   4.096   4.659  10.746 -0.0308 -0.3192  0.0250
  342POPI   PO4 5454   4.299   4.756  10.030 -0.1308  0.2773 -0.0428
  342POPI   GL1 5455   4.389   4.595   9.639 -0.1415 -0.0535  0.0385
  342POPI   GL2 5456   4.385   4.269   9.642 -0.2607  0.1849 -0.1313
  342POPI   C1A 5457   4.352   4.666   9.202  0.0962  0.0067 -0.3118
  342POPI   D2A 5458   4.383   4.488   8.780 -0.2150  0.2783  0.1445
  342POPI   C3A 5459   4.418   4.682   8.459 -0.1014 -0.0187  0.0503
  342POPI   C4A 5460   4.477   5.174   8.272 -0.1938 -0.1133 -0.0682
  342POPI   C1B 5461   4.010   3.864   9.448  0.0407 -0.0362  0.1038
  342POPI   C2B 5462   3.720   3.767   9.212 -0.0896  0.1289 -0.2603
  342POPI   C3B 5463   3.275   3.580   9.068 -0.0484 -0.0362  0.0147
  342POPI   C4B 5464   3.213   3.332   8.769 -0.3159 -0.0912  0.3167
  343POPI    C1 5465  18.139  17.210  10.339  0.0820 -0.0044  0.0689
  343POPI    C2 5466  18.315  16.894  10.511  0.0893 -0.1251 -0.1566
  343POPI    C3 5467  18.365  17.260  10.666  0.2824 -0.2003 -0.0367
  343POPI   PO4 5468  17.844  17.005  10.197 -0.0296 -0.2513 -0.3023
  343POPI   GL1 5469  17.765  16.926   9.714  0.4383 -0.1975 -0.2137
  343POPI   GL2 5470  17.774  16.606   9.871 -0.0068  0.1818 -0.0402
  343POPI   C1A 5471  17.692  16.925   9.337 -0.0844 -0.0168 -0.0951
  343POPI   D2A 5472  17.584  16.895   8.926 -0.1619 -0.0868  0.0803
  343POPI   C3A 5473  17.763  16.965   8.548  0.1523  0.1956  0.0725
  343POPI   C4A 5474  17.848  17.079   8.135  0.2445  0.0374 -0.0923
  343POPI   C1B 5475  18.135  16.661   9.550  0.1469  0.0725  0.0008
  343POPI   C2B 5476  18.072  16.611   9.207 -0.3163 -0.4982 -0.0218
  343POPI   C3B 5477  17.952  16.539   8.788 -0.0733  0.1807  0.1587
  343POPI   C4B 5478  18.075  16.456   8.372  0.2769 -0.0886 -0.0968
  344POPI    C1 5479  14.667   3.858  10.400  0.0999 -0.1575  0.0136
  344POPI    C2 5480  14.503   3.780  10.756  0.1462 -0.2500  0.0150
  344POPI    C3 5481  14.714   4.116  10.702 -0.2975  0.0228 -0.0724
  344POPI   PO4 5482  14.491   3.773  10.268  0.1702 -0.2171 -0.2399
  344POPI   GL1 5483  14.596   3.635   9.874 -0.1614  0.0753 -0.0662
  344POPI   GL2 5484  14.669   3.968   9.754 -0.2848 -0.2063  0.1739
  344POPI   C1A 5485  14.542   3.542   9.439 -0.1773  0.0625 -0.2299
  344POPI   D2A 5486  14.614   3.755   9.081 -0.1674  0.0038 -0.0423
  344POPI   C3A 5487  14.459   3.741   8.593  0.1093 -0.5015 -0.1070
  344POPI   C4A 5488  14.343   3.960   8.182  0.1999  0.1286  0.1199
  344POPI   C1B 5489  14.404   4.171   9.330  0.0243 -0.0960 -0.2835
  344POPI   C2B 5490  14.341   4.132   8.975  0.1674  0.1870  0.3218
  344POPI   C3B 5491  14.315   4.309   8.565 -0.2607 -0.2989  0.1007
  344POPI   C4B 5492  14.778   4.312   8.374 -0.1453 -0.0705  0.2806
  345POPI    C1 5493   3.085   4.280  10.646 -0.1441  0.1663 -0.2964
  345POPI    C2 5494   3.427   4.091  10.734 -0.0432  0.3758 -0.2311
  345POPI    C3 5495   3.077   3.941  10.857  0.0273  0.1796 -0.2674
  345POPI   PO4 5496   3.036   4.278  10.366 -0.2218  0.0105 -0.2363
  345POPI   GL1 5497   2.942   4.069  10.063 -0.0354  0.0917  0.1456
  345POPI   GL2 5498   2.879   3.751  10.175  0.0328 -0.1273 -0.0918
  345POPI   C1A 5499   2.754   4.023   9.596  0.1499 -0.1661  0.0742
  345POPI   D2A 5500   2.448   3.951   9.273 -0.1479  0.2443  0.2932
  345POPI   C3A 5501   2.392   3.921   8.793 -0.0016  0.3586 -0.2457
  345POPI   C4A 5502   2.568   3.858   8.422 -0.1135  0.0578  0.1217
  345POPI   C1B 5503   2.799   3.544   9.729 -0.1965 -0.0138  0.2409
  345POPI   C2B 5504   2.758   3.569   9.282  0.0933  0.0343 -0.2961
  345POPI   C3B 5505   2.776   3.474   8.894 -0.1555  0.0278  0.2172
  345POPI   C4B 5506   2.779   3.432   8.438 -0.1448  0.2290  0.0572
  346POPI    C1 5507   4.767   8.387  10.541  0.0539  0.1708  0.0641
  346POPI    C2 5508   5.071   8.160  10.670 -0.1175 -0.0498  0.0857
  346POPI    C3 5509   4.964   8.487  10.875 -0.0047 -0.0663  0.1718
  346POPI   PO4 5510   4.777   8.289  10.309  0.0835 -0.0095 -0.0856
  346POPI   GL1 5511   4.642   8.335   9.992  0.3226  0.1358 -0.2729
  346POPI   GL2 5512   4.678   8.098   9.817  0.2241  0.0593 -0.1005
  346POPI   C1A 5513   4.575   8.422   9.494 -0.2135 -0.0278 -0.1022
  346POPI   D2A 5514   4.768   8.462   9.143 -0.2338 -0.0886  0.5138
  346POPI   C3A 5515   4.906   8.850   9.047 -0.3172 -0.1264  0.0213
  346POPI   C4A 5516   4.847   9.071   8.627 -0.0885 -0.0756  0.4199
  346POPI   C1B 5517   4.681   7.968   9.380  0.1567  0.0977 -0.2332
  346POPI   C2B 5518   4.715   7.992   8.931 -0.1306  0.1266 -0.2777
  346POPI   C3B 5519   5.038   7.825   8.685 -0.2203  0.1161 -0.1168
  346POPI   C4B 5520   5.148   7.452   8.474 -0.1819  0.1013  0.1504
  347POPI    C1 5521  15.325   1.714  10.606 -0.1776  0.1185 -0.5196
  347POPI    C2 5522  15.098   2.044  10.603 -0.1498  0.1591  0.1596
  347POPI    C3 5523  14.940   1.695  10.716 -0.0538  0.0361 -0.0794
  347POPI   PO4 5524  15.583   1.682  10.442  0.1619 -0.4010  0.1830
  347POPI   GL1 5525  15.599   1.897  10.197 -0.1028  0.1333 -0.0716
  347POPI   GL2 5526  15.505   1.713   9.903  0.2538  0.1983  0.1058
  347POPI   C1A 5527  15.096   1.795  10.160  0.0869  0.0883  0.4574
  347POPI   D2A 5528  14.886   1.472   9.925 -0.0991 -0.1065 -0.0415
  347POPI   C3A 5529  14.917   1.301   9.454 -0.3331 -0.1017 -0.1714
  347POPI   C4A 5530  14.778   1.495   9.095  0.0501 -0.0271  0.0128
  347POPI   C1B 5531  15.375   1.909   9.530 -0.1171 -0.1989 -0.1362
  347POPI   C2B 5532  15.436   1.946   9.087 -0.1210  0.0191  0.3557
  347POPI   C3B 5533  15.622   2.062   8.711 -0.0618  0.0589 -0.0352
  347POPI   C4B 5534  15.312   2.080   8.470  0.1497 -0.0968  0.3558
  348POPI    C1 5535   8.169  15.291  10.069  0.2964  0.5524 -0.1100
  348POPI    C2 5536   7.874  15.512  10.225 -0.0459 -0.1253  0.2481
  348POPI    C3 5537   8.157  15.360  10.463  0.0299 -0.2978  0.0510
  348POPI   PO4 5538   8.101  15.107   9.804  0.1459 -0.1034  0.0953
  348POPI   GL1 5539   7.818  14.964   9.457 -0.2752  0.0767 -0.1688
  348POPI   GL2 5540   7.903  15.312   9.232  0.0655  0.0517  0.0422
  348POPI   C1A 5541   7.828  14.749   9.068  0.3436  0.2141  0.2273
  348POPI   D2A 5542   8.018  14.703   8.649 -0.0438  0.2349  0.1392
  348POPI   C3A 5543   8.437  14.609   8.528  0.3455  0.1725 -0.2370
  348POPI   C4A 5544   8.726  14.436   8.307 -0.1968 -0.3937  0.0103
  348POPI   C1B 5545   7.886  15.217   8.792  0.0293  0.1484 -0.1424
  348POPI   C2B 5546   7.822  15.159   8.431 -0.0260  0.0295 -0.2130
  348POPI   C3B 5547   8.051  15.054   8.141 -0.1295 -0.3622  0.2114
  348POPI   C4B 5548   8.233  14.973   7.836 -0.1378 -0.0762  0.2822
  349POPI    C1 5549   6.671  13.828   9.703  0.0679 -0.2177  0.1427
  349POPI    C2 5550   6.384  13.790   9.978  0.0828  0.2902  0.2366
  349POPI    C3 5551   6.767  13.808  10.090  0.1054  0.2617  0.1639
  349POPI   PO4 5552   6.634  13.700   9.514 -0.1449  0.0488  0.0822
  349POPI   GL1 5553   6.764  13.629   9.161 -0.0210 -0.0722 -0.0230
  349POPI   GL2 5554   6.668  13.827   9.025 -0.2810  0.1773  0.0697
  349POPI   C1A 5555   6.966  13.316   8.918 -0.1789 -0.3055  0.1230
  349POPI   D2A 5556   7.105  13.294   8.618  0.1962 -0.0403  0.1526
  349POPI   C3A 5557   7.030  13.048   8.160  0.0236  0.0790  0.0110
  349POPI   C4A 5558   6.994  12.939   7.687  0.1849 -0.0969 -0.1115
  349POPI   C1B 5559   6.800  13.712   8.624 -0.0368  0.1532 -0.1320
  349POPI   C2B 5560   6.896  13.572   8.226  0.1767 -0.3160 -0.0859
  349POPI   C3B 5561   6.690  13.344   7.925 -0.0853 -0.0280  0.0316
  349POPI   C4B 5562   6.511  12.895   7.612 -0.0896 -0.0555 -0.2599
  350POPI    C1 5563  16.708  14.309  10.005  0.0146 -0.0596  0.1782
  350POPI    C2 5564  17.045  14.220   9.809 -0.0212  0.3266 -0.0698
  350POPI    C3 5565  17.044  14.236  10.208  0.0915 -0.3116 -0.0335
  350POPI   PO4 5566  16.551  14.521   9.797  0.1312 -0.0367  0.3086
  350POPI   GL1 5567  16.565  14.807   9.559  0.0023 -0.1728 -0.2304
  350POPI   GL2 5568  16.270  14.892   9.369  0.5469 -0.0250  0.1337
  350POPI   C1A 5569  16.559  14.578   9.120 -0.1351  0.0776  0.0578
  350POPI   D2A 5570  16.844  14.446   8.818 -0.1092 -0.4272  0.5450
  350POPI   C3A 5571  16.785  14.118   8.554 -0.1564  0.2939 -0.0131
  350POPI   C4A 5572  16.606  14.024   8.225 -0.0855 -0.0667  0.0330
  350POPI   C1B 5573  16.180  15.035   9.076 -0.2359  0.0754 -0.2174
  350POPI   C2B 5574  15.986  14.983   8.561  0.0365  0.1828  0.0773
  350POPI   C3B 5575  16.147  15.075   8.253 -0.0882  0.2708 -0.3097
  350POPI   C4B 5576  16.222  15.160   7.808 -0.1007  0.0501 -0.0322
  351POPI    C1 5577   8.285   5.081  10.242 -0.0712  0.1636  0.4166
  351POPI    C2 5578   8.037   5.332  10.052  0.1779 -0.0871 -0.2728
  351POPI    C3 5579   8.426   5.420  10.083  0.1356 -0.0315  0.1764
  351POPI   PO4 5580   8.245   4.847  10.035 -0.3613  0.1593  0.2071
  351POPI   GL1 5581   8.172   4.686   9.685  0.1745 -0.1455 -0.1227
  351POPI   GL2 5582   8.423   4.577   9.509  0.1889 -0.0975  0.0177
  351POPI   C1A 5583   7.854   4.648   9.430  0.0415 -0.1390  0.2143
  351POPI   D2A 5584   7.622   4.755   9.119 -0.0327 -0.2152 -0.1399
  351POPI   C3A 5585   7.520   4.493   8.777 -0.2391  0.0805  0.2205
  351POPI   C4A 5586   7.364   4.606   8.358 -0.0267 -0.1876  0.1641
  351POPI   C1B 5587   8.299   4.526   9.148  0.0326  0.1179  0.4956
  351POPI   C2B 5588   8.005   4.585   8.784  0.0719  0.0498 -0.2283
  351POPI   C3B 5589   7.949   4.559   8.374  0.2709  0.2760 -0.1140
  351POPI   C4B 5590   7.712   4.435   7.998  0.2686  0.0703  0.4304
  352POPI    C1 5591  14.446  14.432   9.912  0.0937 -0.2118  0.0287
  352POPI    C2 5592  14.537  14.314  10.283  0.0009 -0.1095  0.0848
  352POPI    C3 5593  14.311  14.081  10.049 -0.1120 -0.0821  0.1652
  352POPI   PO4 5594  14.263  14.670   9.984 -0.1171 -0.1404  0.0935
  352POPI   GL1 5595  14.160  15.130   9.658 -0.4783 -0.1496 -0.0365
  352POPI   GL2 5596  13.889  15.098   9.490 -0.1926 -0.1545  0.0877
  352POPI   C1A 5597  14.424  15.095   9.346  0.0138  0.1312  0.2242
  352POPI   D2A 5598  14.628  15.326   9.235  0.1736  0.2131  0.1944
  352POPI   C3A 5599  14.779  15.082   8.882  0.2432 -0.2023 -0.2647
  352POPI   C4A 5600  14.925  14.719   8.718  0.0487  0.0724 -0.0026
  352POPI   C1B 5601  13.732  15.212   9.140  0.2784  0.0660 -0.2451
  352POPI   C2B 5602  13.797  15.249   8.800  0.0309  0.2681 -0.0636
  352POPI   C3B 5603  13.859  14.944   8.395 -0.2790 -0.2662 -0.5079
  352POPI   C4B 5604  13.763  14.649   8.058  0.4018 -0.2302 -0.0168
  353POPI    C1 5605  12.736  14.535   9.941 -0.0703  0.1531  0.0041
  353POPI    C2 5606  13.093  14.716   9.943  0.1568 -0.2810  0.0817
  353POPI    C3 5607  12.865  14.717  10.272  0.0644  0.0313  0.0197
  353POPI   PO4 5608  12.781  14.452   9.666 -0.2366  0.1473  0.2741
  353POPI   GL1 5609  12.591  14.431   9.290 -0.1459  0.0885  0.1139
  353POPI   GL2 5610  12.353  14.212   9.063  0.4712 -0.0813 -0.0969
  353POPI   C1A 5611  12.822  14.738   9.030  0.2498  0.2333 -0.3243
  353POPI   D2A 5612  13.102  14.672   8.662  0.0106 -0.3630 -0.0374
  353POPI   C3A 5613  12.868  14.756   8.369  0.0659  0.2234  0.1962
  353POPI   C4A 5614  12.786  14.989   8.007 -0.1768 -0.0743  0.0041
  353POPI   C1B 5615  12.441  14.259   8.627  0.2667 -0.3634  0.1484
  353POPI   C2B 5616  12.400  14.205   8.123  0.1516 -0.1396 -0.2939
  353POPI   C3B 5617  12.565  14.584   7.891 -0.1107 -0.0702  0.0794
  353POPI   C4B 5618  12.659  14.735   7.487  0.1594  0.2232  0.0451
  354POPI    C1 5619   0.399  13.392  10.743  0.0272  0.0811 -0.3151
  354POPI    C2 5620   0.732  13.219  10.605 -0.0579 -0.3985  0.0534
  354POPI    C3 5621   0.505  13.029  10.873 -0.3912  0.1155  0.1490
  354POPI   PO4 5622   0.222  13.449  10.471 -0.0362 -0.0872  0.1706
  354POPI   GL1 5623   0.086  13.498  10.051 -0.1345  0.1064  0.0996
  354POPI   GL2 5624  -0.101  13.264   9.925  0.1946 -0.0026  0.3123
  354POPI   C1A 5625  -0.026  13.842   9.708 -0.2328  0.0351 -0.1375
  354POPI   D2A 5626  -0.352  14.159   9.520  0.0097  0.0820 -0.1531
  354POPI   C3A 5627  -0.797  14.120   9.239 -0.1352  0.0833  0.1881
  354POPI   C4A 5628  -0.781  14.287   8.745 -0.0230  0.3531 -0.0416
  354POPI   C1B 5629  -0.061  13.368   9.449  0.2193 -0.1975  0.0098
  354POPI   C2B 5630  -0.058  13.323   9.109  0.1510  0.2952 -0.0994
  354POPI   C3B 5631  -0.220  13.253   8.763  0.0325 -0.1926  0.0122
  354POPI   C4B 5632  -0.182  13.185   8.293 -0.1148 -0.1421 -0.0664
  355POPI    C1 5633   0.231   3.430  10.859  0.0512  0.1684 -0.0333
  355POPI    C2 5634  -0.030   3.515  10.568 -0.1342 -0.2013  0.0188
  355POPI    C3 5635  -0.146   3.298  10.883  0.1500 -0.0783  0.2120
  355POPI   PO4 5636   0.601   3.407  10.706  0.1078  0.1668  0.0770
  355POPI   GL1 5637   0.571   3.275  10.365 -0.0457 -0.1258  0.1610
  355POPI   GL2 5638   0.308   3.374  10.156  0.0022  0.0337 -0.2714
  355POPI   C1A 5639   0.963   3.229  10.110 -0.0174  0.2817  0.3667
  355POPI   D2A 5640   1.299   3.336   9.824 -0.2111  0.0888  0.0515
  355POPI   C3A 5641   1.268   3.301   9.296 -0.0744  0.1714  0.1254
  355POPI   C4A 5642   1.236   3.279   8.783 -0.1907 -0.0382  0.3153
  355POPI   C1B 5643   0.271   3.696   9.623  0.0023 -0.1156  0.1157
  355POPI   C2B 5644   0.110   3.915   9.354  0.0203 -0.2891  0.1595
  355POPI   C3B 5645   0.060   4.102   8.947 -0.0859  0.1694 -0.1594
  355POPI   C4B 5646   0.349   4.361   8.628 -0.0126  0.0551 -0.2142
  356POPI    C1 5647  16.332   0.598  10.923 -0.3131  0.0612  0.1503
  356POPI    C2 5648  16.551   0.919  10.829 -0.0646 -0.0736  0.2594
  356POPI    C3 5649  16.530   0.796  11.209 -0.1405 -0.1994  0.2150
  356POPI   PO4 5650  16.041   0.615  10.835  0.1836 -0.2327 -0.1747
  356POPI   GL1 5651  15.917   0.584  10.404  0.0875  0.2955 -0.1403
  356POPI   GL2 5652  15.618   0.736  10.306 -0.2479  0.0180 -0.0075
  356POPI   C1A 5653  16.100   0.400  10.162  0.2054  0.2669 -0.0661
  356POPI   D2A 5654  16.280   0.044   9.926  0.1467  0.1523  0.1330
  356POPI   C3A 5655  16.497   0.187   9.436 -0.0095  0.2294 -0.0130
  356POPI   C4A 5656  16.526   0.594   9.212 -0.1041 -0.3025 -0.0797
  356POPI   C1B 5657  15.392   0.760   9.908  0.0207  0.0016  0.1272
  356POPI   C2B 5658  14.987   0.779   9.585 -0.1288  0.1792  0.0817
  356POPI   C3B 5659  14.861   0.856   9.205  0.3027 -0.0920  0.1201
  356POPI   C4B 5660  15.317   0.993   9.129 -0.0134 -0.2510  0.2096
  357POPI    C1 5661  18.200  11.831  10.630  0.0875  0.1094  0.2231
  357POPI    C2 5662  18.594  11.870  10.686  0.1484 -0.1205 -0.0261
  357POPI    C3 5663  18.368  11.696  10.967  0.3052 -0.4373 -0.0912
  357POPI   PO4 5664  18.142  11.768  10.419 -0.2140  0.1321  0.0551
  357POPI   GL1 5665  18.374  11.747  10.040  0.0010 -0.2217 -0.1562
  357POPI   GL2 5666  18.244  11.453  10.044 -0.0769  0.1846  0.0704
  357POPI   C1A 5667  18.409  11.756   9.610  0.1190 -0.1441 -0.1052
  357POPI   D2A 5668  18.424  11.771   9.175 -0.2675  0.2602  0.0587
  357POPI   C3A 5669  18.128  11.827   8.827  0.2969  0.2102  0.2367
  357POPI   C4A 5670  17.891  11.613   8.469  0.1421  0.1633 -0.0745
  357POPI   C1B 5671  18.084  11.314   9.666 -0.0346  0.0717 -0.1321
  357POPI   C2B 5672  17.858  11.145   9.488 -0.1341  0.1232 -0.1364
  357POPI   C3B 5673  17.581  10.879   9.121 -0.0681 -0.1857 -0.0420
  357POPI   C4B 5674  17.438  11.031   8.668 -0.2877 -0.0251 -0.3007
  358POPI    C1 5675  10.422  14.966   9.772 -0.3193  0.0056 -0.0499
  358POPI    C2 5676  10.459  14.658  10.024 -0.1303  0.1126  0.0558
  358POPI    C3 5677  10.281  14.996  10.144 -0.0574  0.1568  0.0405
  358POPI   PO4 5678  10.604  14.985   9.643  0.2174 -0.0814 -0.1244
  358POPI   GL1 5679  10.731  14.870   9.286  0.1037  0.1530 -0.0569
  358POPI   GL2 5680  11.066  14.981   9.283  0.0093  0.2025  0.2105
  358POPI   C1A 5681  10.664  14.960   8.868 -0.0754  0.1463 -0.3363
  358POPI   D2A 5682  10.869  14.908   8.451  0.0028 -0.2672  0.0377
  358POPI   C3A 5683  10.909  14.931   8.113 -0.1850  0.0483 -0.2209
  358POPI   C4A 5684  10.811  14.969   7.689 -0.2332 -0.2372  0.1145
  358POPI   C1B 5685  11.140  14.925   8.913 -0.2166 -0.1743 -0.4838
  358POPI   C2B 5686  11.434  14.760   8.694 -0.1345  0.0020  0.2245
  358POPI   C3B 5687  11.413  14.750   8.243 -0.2769  0.0447  0.0868
  358POPI   C4B 5688  11.216  14.802   7.778 -0.0483 -0.1700  0.0538
  359POPI    C1 5689   7.291   0.756   9.796 -0.1379  0.1904  0.1221
  359POPI    C2 5690   7.086   1.073   9.927  0.0475  0.3424  0.0493
  359POPI    C3 5691   7.398   0.936  10.137  0.1382  0.3799 -0.0600
  359POPI   PO4 5692   7.258   0.829   9.526 -0.1308  0.3377  0.0998
  359POPI   GL1 5693   7.132   1.250   9.368 -0.1558  0.3561  0.1597
  359POPI   GL2 5694   7.229   1.426   9.511 -0.0275 -0.1899  0.1332
  359POPI   C1A 5695   6.964   1.074   8.951  0.2333  0.0726  0.2794
  359POPI   D2A 5696   7.121   0.657   8.672 -0.4758 -0.0213 -0.3121
  359POPI   C3A 5697   7.411   0.615   8.365 -0.1964 -0.0308  0.1120
  359POPI   C4A 5698   7.606   0.811   8.032 -0.0297  0.1464 -0.2915
  359POPI   C1B 5699   7.276   1.507   8.986 -0.3579  0.0046 -0.0702
  359POPI   C2B 5700   7.003   1.610   8.648 -0.3418 -0.1582  0.4346
  359POPI   C3B 5701   7.061   1.889   8.191  0.2064 -0.1317 -0.1819
  359POPI   C4B 5702   7.022   1.877   7.779  0.0402 -0.0477  0.0104
  360POPI    C1 5703   4.260  13.404   9.748  0.0154  0.1828 -0.0694
  360POPI    C2 5704   4.425  13.189  10.042 -0.3572  0.1933  0.1546
  360POPI    C3 5705   4.295  13.560  10.114 -0.2932  0.2609 -0.0698
  360POPI   PO4 5706   3.998  13.310   9.724  0.0899  0.0664 -0.0142
  360POPI   GL1 5707   3.800  13.260   9.263 -0.0228  0.4333  0.1447
  360POPI   GL2 5708   3.702  12.982   9.444 -0.0049 -0.3503  0.1673
  360POPI   C1A 5709   3.485  13.302   8.886  0.2494 -0.2353 -0.3222
  360POPI   D2A 5710   3.383  13.274   8.450 -0.0849  0.0975 -0.2320
  360POPI   C3A 5711   3.361  12.910   8.140  0.1971  0.2381  0.1166
  360POPI   C4A 5712   2.985  12.872   7.876 -0.3554 -0.1884 -0.2931
  360POPI   C1B 5713   3.952  12.788   9.087 -0.1357 -0.2635 -0.1489
  360POPI   C2B 5714   3.750  12.934   8.610  0.0397 -0.0828  0.1854
  360POPI   C3B 5715   3.857  13.125   8.147  0.2163  0.0015 -0.2549
  360POPI   C4B 5716   3.707  13.058   7.773 -0.1885  0.0408 -0.0773
  361POPI    C1 5717   0.797   6.126  10.759 -0.1260 -0.0361 -0.0466
  361POPI    C2 5718   0.865   5.800  10.537  0.2743 -0.0544  0.0945
  361POPI    C3 5719   0.896   5.781  10.935 -0.0322  0.0788  0.1283
  361POPI   PO4 5720   0.850   6.304  10.528 -0.0288 -0.0448 -0.0757
  361POPI   GL1 5721   0.736   6.288  10.126  0.0283 -0.1398  0.1088
  361POPI   GL2 5722   0.723   6.037  10.044  0.0531  0.1541  0.0462
  361POPI   C1A 5723   0.503   6.506   9.831 -0.4849 -0.3079 -0.6113
  361POPI   D2A 5724   0.318   6.603   9.491  0.1505  0.1591  0.2954
  361POPI   C3A 5725   0.062   6.360   9.203 -0.2017 -0.0070 -0.0287
  361POPI   C4A 5726  -0.108   6.224   8.877 -0.2411 -0.0330  0.0198
  361POPI   C1B 5727   0.660   6.154   9.533 -0.2526  0.0350  0.0408
  361POPI   C2B 5728   0.555   6.279   9.137 -0.1195 -0.0350  0.1011
  361POPI   C3B 5729   0.380   6.045   8.775  0.1020 -0.1822 -0.0042
  361POPI   C4B 5730   0.129   5.737   8.418 -0.0296  0.2272  0.0527
  362POPI    C1 5731   7.540   4.549  10.389  0.1495  0.0347 -0.0405
  362POPI    C2 5732   7.370   4.257  10.603 -0.1699  0.2591  0.0197
  362POPI    C3 5733   7.614   4.519  10.781  0.2270 -0.0469 -0.0614
  362POPI   PO4 5734   7.301   4.551  10.181 -0.1679 -0.0141 -0.1557
  362POPI   GL1 5735   7.189   4.360   9.782 -0.3955  0.2410  0.0607
  362POPI   GL2 5736   7.513   4.236   9.607 -0.1025 -0.1731 -0.1191
  362POPI   C1A 5737   7.128   4.590   9.472  0.2112  0.0616  0.4955
  362POPI   D2A 5738   6.991   4.499   9.179  0.0403 -0.1107  0.1778
  362POPI   C3A 5739   7.012   4.602   8.804  0.1193  0.3120  0.0803
  362POPI   C4A 5740   6.891   4.807   8.509 -0.1222 -0.0894 -0.1571
  362POPI   C1B 5741   7.338   4.127   9.139 -0.2998 -0.0138 -0.2332
  362POPI   C2B 5742   7.350   4.033   8.808  0.2073  0.2599 -0.1213
  362POPI   C3B 5743   7.298   4.099   8.427  0.1614 -0.0157  0.0609
  362POPI   C4B 5744   7.400   4.036   8.093 -0.1183  0.0107  0.0321
  363POPI    C1 5745   3.044  11.097  10.276 -0.0151 -0.1252 -0.2084
  363POPI    C2 5746   2.897  11.349  10.550  0.0658 -0.4361  0.1300
  363POPI    C3 5747   2.678  11.038  10.427  0.0404 -0.3126 -0.1442
  363POPI   PO4 5748   3.063  11.140  10.016 -0.0865 -0.1673  0.2891
  363POPI   GL1 5749   3.164  10.989   9.584  0.0296  0.2806 -0.2924
  363POPI   GL2 5750   2.834  10.984   9.580  0.0014 -0.0389  0.1218
  363POPI   C1A 5751   3.079  10.997   9.145 -0.0628  0.0454 -0.0116
  363POPI   D2A 5752   3.158  11.212   8.815 -0.0453  0.0630 -0.0153
  363POPI   C3A 5753   3.063  10.975   8.503  0.0397 -0.1335  0.3718
  363POPI   C4A 5754   2.852  10.526   8.261 -0.0385 -0.0837  0.0039
  363POPI   C1B 5755   2.666  11.316   9.255 -0.0447  0.2707  0.1910
  363POPI   C2B 5756   2.644  11.321   8.766  0.2620 -0.5335 -0.0586
  363POPI   C3B 5757   2.744  11.356   8.387  0.2384 -0.1059 -0.3341
  363POPI   C4B 5758   2.771  11.031   8.108 -0.4685 -0.0830  0.0551
  364POPI    C1 5759  13.723  12.010  10.251  0.0628  0.0223  0.0037
  364POPI    C2 5760  13.597  12.086  10.623  0.1004  0.1758 -0.0139
  364POPI    C3 5761  13.888  11.819  10.561  0.1473  0.2061  0.0737
  364POPI   PO4 5762  13.519  12.071  10.001 -0.2203 -0.1637  0.0790
  364POPI   GL1 5763  13.542  12.076   9.543 -0.0772 -0.2454  0.1199
  364POPI   GL2 5764  13.407  12.352   9.350  0.3783  0.0713 -0.3188
  364POPI   C1A 5765  13.097  11.952   9.504 -0.1928 -0.3530 -0.0978
  364POPI   D2A 5766  12.708  11.958   9.188 -0.2906  0.0525 -0.2510
  364POPI   C3A 5767  12.494  11.706   8.905 -0.1071 -0.1347  0.0760
  364POPI   C4A 5768  12.291  11.538   8.537 -0.0366  0.1278  0.2644
  364POPI   C1B 5769  13.627  12.273   9.006 -0.2576 -0.0704  0.3959
  364POPI   C2B 5770  13.525  12.011   8.593  0.1185 -0.0067  0.0548
  364POPI   C3B 5771  13.768  11.620   8.637  0.1778  0.0262 -0.2822
  364POPI   C4B 5772  13.477  11.167   8.600  0.0931  0.0103  0.2418
  365POPI    C1 5773   3.582   5.984  10.695 -0.0743  0.0758 -0.1259
  365POPI    C2 5774   3.207   6.056  10.576 -0.1351  0.1165  0.0853
  365POPI    C3 5775   3.300   6.073  10.964  0.1097  0.2143  0.0243
  365POPI   PO4 5776   3.709   5.891  10.438 -0.2431  0.3081  0.2355
  365POPI   GL1 5777   3.782   5.938  10.024  0.2627 -0.0367 -0.3941
  365POPI   GL2 5778   3.824   5.695   9.889  0.2486  0.2252  0.2041
  365POPI   C1A 5779   3.406   5.846   9.647 -0.2019  0.4342  0.0148
  365POPI   D2A 5780   3.204   5.943   9.215 -0.0872  0.0864 -0.1215
  365POPI   C3A 5781   3.177   5.673   8.871  0.0123  0.0914 -0.0508
  365POPI   C4A 5782   3.317   5.444   8.475  0.0372 -0.2282 -0.0984
  365POPI   C1B 5783   3.953   5.989   9.417  0.2078 -0.0994  0.1177
  365POPI   C2B 5784   4.146   6.002   8.983  0.1443  0.1975  0.0939
  365POPI   C3B 5785   4.451   5.832   8.722 -0.0682  0.0264  0.1029
  365POPI   C4B 5786   4.585   5.673   8.290 -0.1067 -0.1942 -0.1525
  366POPI    C1 5787   2.017  12.234  10.421  0.2863  0.1523 -0.0012
  366POPI    C2 5788   2.102  11.914  10.645  0.2643  0.1715  0.0346
  366POPI    C3 5789   1.887  12.214  10.799 -0.1698 -0.0311 -0.1608
  366POPI   PO4 5790   1.998  12.004  10.157 -0.0979  0.0820 -0.0551
  366POPI   GL1 5791   1.902  11.922   9.746 -0.2090  0.1132 -0.2995
  366POPI   GL2 5792   1.613  12.112   9.657  0.0059 -0.2845  0.1263
  366POPI   C1A 5793   2.099  12.030   9.346  0.0543 -0.2394  0.0405
  366POPI   D2A 5794   2.329  12.237   8.961  0.3758  0.0150 -0.2184
  366POPI   C3A 5795   2.679  12.088   8.960 -0.0105  0.1172  0.1181
  366POPI   C4A 5796   2.859  11.763   9.289 -0.1592  0.0323 -0.1952
  366POPI   C1B 5797   1.642  12.237   9.150  0.2138  0.0271 -0.0663
  366POPI   C2B 5798   1.879  12.271   8.776  0.2480  0.2201 -0.1934
  366POPI   C3B 5799   1.882  12.129   8.427 -0.0108 -0.1093  0.1079
  366POPI   C4B 5800   1.846  12.047   8.113  0.3919  0.1805 -0.0192
  367POPI    C1 5801  10.558  10.233  10.232 -0.1386 -0.0471  0.0834
  367POPI    C2 5802  10.591   9.890  10.437  0.1933 -0.0116  0.0956
  367POPI    C3 5803  10.367  10.189  10.581 -0.0143 -0.1841  0.1355
  367POPI   PO4 5804  10.459  10.158   9.985  0.0207 -0.1647 -0.0026
  367POPI   GL1 5805  10.495  10.321   9.574 -0.1066 -0.1638  0.0833
  367POPI   GL2 5806  10.673   9.996   9.495  0.2080 -0.1375  0.1573
  367POPI   C1A 5807  10.327  10.335   9.263 -0.0231 -0.0893  0.2945
  367POPI   D2A 5808  10.143  10.365   8.765  0.2106 -0.0886  0.2873
  367POPI   C3A 5809  10.021  10.128   8.433  0.1067 -0.2361 -0.1334
  367POPI   C4A 5810  10.037  10.197   8.028  0.0959 -0.1998 -0.1579
  367POPI   C1B 5811  10.919  10.136   9.202 -0.0537  0.1106 -0.0480
  367POPI   C2B 5812  11.156  10.113   8.824  0.3033 -0.0801  0.0124
  367POPI   C3B 5813  11.294   9.938   8.370  0.1901 -0.1584 -0.0648
  367POPI   C4B 5814  11.438  10.088   7.980  0.0849  0.0299  0.0767
  368POPI    C1 5815  11.129   9.306  10.423 -0.1293 -0.0497 -0.0010
  368POPI    C2 5816  11.118   9.026  10.709  0.0626 -0.1270 -0.0674
  368POPI    C3 5817  11.463   9.111  10.526 -0.0671 -0.1099 -0.3082
  368POPI   PO4 5818  10.950   9.286  10.199 -0.3950 -0.0789  0.0356
  368POPI   GL1 5819  10.847   9.219   9.867  0.4720 -0.2886 -0.0775
  368POPI   GL2 5820  10.586   9.243   9.826 -0.0310  0.1358  0.3976
  368POPI   C1A 5821  10.888   9.054   9.409 -0.0527 -0.4634 -0.0684
  368POPI   D2A 5822  11.168   9.089   9.041 -0.1372 -0.0362 -0.1478
  368POPI   C3A 5823  11.200   9.292   8.679  0.2178 -0.1249 -0.4869
  368POPI   C4A 5824  10.945   9.125   8.292  0.0754 -0.1956  0.2630
  368POPI   C1B 5825  10.405   9.045   9.348  0.3790 -0.0075  0.1739
  368POPI   C2B 5826  10.407   9.198   8.968 -0.1508 -0.0876  0.2593
  368POPI   C3B 5827  10.677   9.227   8.663 -0.0418  0.1670 -0.2349
  368POPI   C4B 5828  10.855   9.619   8.502  0.4124  0.0390  0.3285
  369POPI    C1 5829  11.913   1.010   9.849 -0.0067  0.2294 -0.0150
  369POPI    C2 5830  11.640   0.915   9.572  0.1523  0.0516 -0.1133
  369POPI    C3 5831  11.526   1.085   9.916 -0.0900 -0.0859 -0.1230
  369POPI   PO4 5832  12.054   1.150   9.711  0.2635  0.1032  0.0497
  369POPI   GL1 5833  11.994   1.215   9.263 -0.1452 -0.2302  0.2778
  369POPI   GL2 5834  11.702   1.293   9.193 -0.0576 -0.0169 -0.3125
  369POPI   C1A 5835  12.098   0.920   8.951 -0.0019 -0.3261 -0.0294
  369POPI   D2A 5836  12.269   0.957   8.547  0.2070  0.2866 -0.0338
  369POPI   C3A 5837  12.230   0.972   8.105  0.0259 -0.1034  0.1899
  369POPI   C4A 5838  12.399   1.234   7.673  0.4060  0.2361 -0.2679
  369POPI   C1B 5839  11.562   0.986   9.045 -0.1341  0.0681  0.0063
  369POPI   C2B 5840  11.651   0.900   8.647  0.0065 -0.0238  0.1929
  369POPI   C3B 5841  11.577   0.877   8.140  0.0418  0.0035 -0.0048
  369POPI   C4B 5842  11.709   0.680   7.848 -0.5327 -0.1072 -0.0343
  370POPI    C1 5843  14.054  14.420  10.356  0.0029  0.0277 -0.1723
  370POPI    C2 5844  13.821  14.719  10.485  0.0216 -0.1128  0.1996
  370POPI    C3 5845  14.218  14.765  10.471  0.0164 -0.0829  0.1513
  370POPI   PO4 5846  13.900  14.343  10.166  0.0196 -0.4947 -0.0939
  370POPI   GL1 5847  13.860  14.411   9.782 -0.1459  0.0591  0.1863
  370POPI   GL2 5848  13.663  14.352   9.674 -0.1769 -0.2021 -0.1010
  370POPI   C1A 5849  14.129  14.152   9.595  0.0331 -0.2326  0.0202
  370POPI   D2A 5850  14.531  14.270   9.430 -0.2071 -0.1154  0.2580
  370POPI   C3A 5851  14.699  14.652   9.351  0.1514 -0.1044 -0.2394
  370POPI   C4A 5852  15.026  15.010   9.343  0.4726 -0.0219  0.1093
  370POPI   C1B 5853  13.779  14.341   9.240  0.2172 -0.0598 -0.4881
  370POPI   C2B 5854  13.996  14.394   8.808  0.3648  0.1945  0.0828
  370POPI   C3B 5855  14.123  14.462   8.372 -0.1616  0.0053  0.1341
  370POPI   C4B 5856  14.291  14.770   8.096  0.2506  0.3161  0.2290
  371POPI    C1 5857  10.223  11.755  10.138  0.1715  0.0649 -0.0487
  371POPI    C2 5858  10.122  11.373  10.078  0.1055  0.0723  0.0136
  371POPI    C3 5859   9.840  11.642  10.165  0.2067  0.0443  0.4511
  371POPI   PO4 5860  10.436  11.778   9.971 -0.1069  0.2260  0.1468
  371POPI   GL1 5861  10.392  11.821   9.450 -0.2268 -0.0714  0.1309
  371POPI   GL2 5862  10.249  12.093   9.289 -0.4837 -0.1431 -0.1043
  371POPI   C1A 5863  10.262  11.446   9.208 -0.0948  0.2530 -0.1343
  371POPI   D2A 5864  10.458  11.251   8.871 -0.1046  0.2772  0.1197
  371POPI   C3A 5865  10.347  11.527   8.493 -0.1903  0.2287  0.0058
  371POPI   C4A 5866  10.298  11.491   8.014 -0.1198 -0.0994  0.0357
  371POPI   C1B 5867   9.937  12.325   8.857  0.0189 -0.0003  0.0245
  371POPI   C2B 5868   9.817  12.414   8.389 -0.2060 -0.1249 -0.0152
  371POPI   C3B 5869   9.935  12.300   7.927 -0.1744  0.0249  0.0749
  371POPI   C4B 5870   9.616  12.558   7.710  0.0670  0.0555  0.0385
  372POPI    C1 5871   4.267  17.676   9.796 -0.0484  0.0866  0.1018
  372POPI    C2 5872   4.591  17.642  10.028 -0.0884 -0.0905  0.1332
  372POPI    C3 5873   4.393  17.989  10.011  0.1134  0.0248  0.0986
  372POPI   PO4 5874   4.369  17.566   9.558  0.3188 -0.0149  0.0390
  372POPI   GL1 5875   4.309  17.607   9.115 -0.2049 -0.1888  0.3193
  372POPI   GL2 5876   4.386  17.967   9.048 -0.0394 -0.0760 -0.1012
  372POPI   C1A 5877   4.131  17.651   8.694  0.1070  0.0236 -0.2436
  372POPI   D2A 5878   4.092  17.883   8.307 -0.1332  0.2517 -0.3889
  372POPI   C3A 5879   3.853  17.593   8.033 -0.2420  0.0023 -0.0735
  372POPI   C4A 5880   3.597  17.617   7.603  0.0857  0.0596 -0.4023
  372POPI   C1B 5881   4.670  17.809   8.832 -0.2762  0.0932  0.1278
  372POPI   C2B 5882   4.632  17.733   8.373  0.2769 -0.0508  0.0842
  372POPI   C3B 5883   4.525  17.793   8.008  0.3705  0.0764 -0.0350
  372POPI   C4B 5884   4.226  17.882   7.788  0.0923 -0.2306  0.5106
  373POPI    C1 5885  17.198   0.580  10.551  0.2943  0.1095 -0.3083
  373POPI    C2 5886  17.104   0.955  10.654 -0.0991 -0.0828  0.0698
  373POPI    C3 5887  17.486   0.855  10.587 -0.0102  0.4258 -0.2375
  373POPI   PO4 5888  16.919   0.592  10.325 -0.1836  0.0798 -0.1421
  373POPI   GL1 5889  16.856   0.794   9.980 -0.0200  0.2116 -0.1504
  373POPI   GL2 5890  16.976   0.793   9.645  0.2874  0.2838 -0.1678
  373POPI   C1A 5891  16.546   0.508   9.805 -0.2338 -0.1788  0.2116
  373POPI   D2A 5892  16.097   0.389   9.649 -0.2917  0.5045 -0.1054
  373POPI   C3A 5893  15.968   0.554   9.315 -0.2735 -0.3338  0.0141
  373POPI   C4A 5894  15.849   0.538   8.920 -0.1695  0.0268  0.0926
  373POPI   C1B 5895  16.857   0.979   9.267 -0.4390  0.1282 -0.1721
  373POPI   C2B 5896  16.568   1.090   8.940 -0.0651 -0.0696  0.1561
  373POPI   C3B 5897  16.410   1.171   8.601  0.2894  0.0392  0.3501
  373POPI   C4B 5898  16.116   1.401   8.483 -0.0390 -0.0537  0.0881
  374POPI    C1 5899  17.630   7.474  10.589 -0.2569 -0.0759 -0.0648
  374POPI    C2 5900  17.446   7.127  10.663  0.1317 -0.2537  0.0998
  374POPI    C3 5901  17.668   7.300  10.947 -0.0254  0.1138  0.0055
  374POPI   PO4 5902  17.726   7.401  10.259  0.3357  0.1605  0.1689
  374POPI   GL1 5903  17.542   7.411   9.908 -0.0514  0.0922  0.2514
  374POPI   GL2 5904  17.368   7.202   9.678  0.0303  0.2210  0.2775
  374POPI   C1A 5905  17.728   7.483   9.562  0.3455 -0.0099 -0.0054
  374POPI   D2A 5906  17.770   7.357   9.146 -0.2319 -0.1996 -0.0628
  374POPI   C3A 5907  17.715   7.616   8.796  0.2496  0.1539 -0.1020
  374POPI   C4A 5908  17.743   8.010   8.597 -0.3677  0.0657  0.0055
  374POPI   C1B 5909  17.418   7.025   9.227 -0.1282 -0.0895 -0.1768
  374POPI   C2B 5910  17.427   7.138   8.796 -0.0063  0.0900 -0.3621
  374POPI   C3B 5911  17.477   7.424   8.442 -0.3987  0.3907  0.0254
  374POPI   C4B 5912  17.676   7.788   8.141 -0.0511  0.0592 -0.0956
  375POPI    C1 5913  16.671   2.547  10.771  0.0750  0.1296 -0.3379
  375POPI    C2 5914  16.479   2.867  10.625  0.0737  0.2957  0.0176
  375POPI    C3 5915  16.667   2.889  10.978  0.0194 -0.1156  0.0781
  375POPI   PO4 5916  16.860   2.485  10.631  0.0487  0.0502 -0.1058
  375POPI   GL1 5917  16.827   2.555  10.261  0.1372  0.0271  0.0200
  375POPI   GL2 5918  16.758   2.424   9.984 -0.0011  0.2412  0.0282
  375POPI   C1A 5919  17.289   2.486  10.065  0.1940 -0.0386 -0.2707
  375POPI   D2A 5920  17.617   2.463   9.969  0.2722 -0.0227  0.1489
  375POPI   C3A 5921  17.888   2.666   9.711 -0.0132  0.0932 -0.5844
  375POPI   C4A 5922  17.992   2.864   9.301 -0.3647  0.0611  0.2963
  375POPI   C1B 5923  16.869   2.806   9.638 -0.4399 -0.1062  0.1202
  375POPI   C2B 5924  16.934   3.122   9.388 -0.0231 -0.0146  0.0815
  375POPI   C3B 5925  16.985   3.088   8.981  0.0273 -0.1844 -0.4275
  375POPI   C4B 5926  16.833   3.286   8.643 -0.2096  0.0419 -0.0358
  376POPI    C1 5927  12.053   3.836  10.099  0.0173  0.0362  0.0148
  376POPI    C2 5928  12.238   3.897  10.448  0.2173 -0.0605 -0.0727
  376POPI    C3 5929  12.112   4.209  10.232  0.2340  0.0045  0.0107
  376POPI   PO4 5930  12.204   3.673   9.994  0.1317  0.3149  0.0857
  376POPI   GL1 5931  12.016   3.358   9.683 -0.0785 -0.1052 -0.0469
  376POPI   GL2 5932  11.779   3.661   9.556 -0.0249  0.1335  0.1786
  376POPI   C1A 5933  11.906   3.162   9.323  0.0917  0.1742  0.3376
  376POPI   D2A 5934  11.953   3.228   8.866 -0.0773 -0.1716 -0.1086
  376POPI   C3A 5935  11.936   3.555   8.631  0.3273 -0.3158  0.0639
  376POPI   C4A 5936  12.041   3.586   8.112  0.4143 -0.0016  0.0059
  376POPI   C1B 5937  11.873   3.707   9.106  0.1852 -0.0760 -0.1499
  376POPI   C2B 5938  12.002   4.111   8.748 -0.0646 -0.1635 -0.1024
  376POPI   C3B 5939  11.863   4.184   8.351  0.3509 -0.0256  0.0214
  376POPI   C4B 5940  12.156   4.127   8.061 -0.1309  0.0936 -0.1706
  377POPI    C1 5941   7.028   2.580  10.295 -0.2679  0.0516 -0.3036
  377POPI    C2 5942   6.657   2.711  10.366 -0.2010  0.2203 -0.2586
  377POPI    C3 5943   6.947   2.778  10.633 -0.1513  0.0324 -0.2640
  377POPI   PO4 5944   7.001   2.655   9.900  0.1717  0.1112  0.0371
  377POPI   GL1 5945   6.990   2.586   9.435  0.0044 -0.3508 -0.1780
  377POPI   GL2 5946   6.833   2.809   9.283  0.4117 -0.3717 -0.0530
  377POPI   C1A 5947   6.618   2.427   9.112 -0.1605 -0.0787 -0.3628
  377POPI   D2A 5948   6.231   2.152   9.015 -0.1472 -0.0187  0.1246
  377POPI   C3A 5949   6.019   2.170   8.564 -0.1963  0.0732 -0.0586
  377POPI   C4A 5950   6.296   1.803   8.507  0.1203 -0.1762 -0.0557
  377POPI   C1B 5951   6.385   2.861   9.136 -0.3084 -0.0614 -0.0463
  377POPI   C2B 5952   6.016   3.136   8.940  0.1615 -0.1166  0.1392
  377POPI   C3B 5953   5.948   3.526   8.817 -0.1541  0.1830  0.0228
  377POPI   C4B 5954   5.857   3.839   8.466  0.1010  0.1591  0.0337
  378POPI    C1 5955   4.258  11.227  10.159 -0.0424  0.1688  0.1166
  378POPI    C2 5956   4.174  11.448  10.481 -0.4842 -0.0296  0.1450
  378POPI    C3 5957   4.105  11.054  10.486 -0.1590 -0.0930 -0.0725
  378POPI   PO4 5958   4.081  11.294  10.006  0.1094  0.1171  0.0289
  378POPI   GL1 5959   4.191  11.420   9.586 -0.2077 -0.0400  0.2066
  378POPI   GL2 5960   3.932  11.150   9.463  0.2913 -0.1050  0.2967
  378POPI   C1A 5961   4.304  11.653   9.100 -0.2894 -0.3326  0.1277
  378POPI   D2A 5962   4.193  11.925   8.736  0.1245 -0.3576 -0.0839
  378POPI   C3A 5963   3.861  11.991   8.355  0.2458 -0.3992 -0.1528
  378POPI   C4A 5964   3.708  11.994   7.807 -0.3373  0.2343  0.1624
  378POPI   C1B 5965   4.082  11.127   9.065  0.0357  0.3506  0.5257
  378POPI   C2B 5966   4.079  11.205   8.612 -0.1951  0.0766 -0.2836
  378POPI   C3B 5967   3.945  11.475   8.364  0.1469  0.0545 -0.1366
  378POPI   C4B 5968   3.761  11.574   8.110 -0.0072 -0.0427 -0.0506
  379POPI    C1 5969  13.096   6.681  10.597 -0.0359 -0.0718  0.3180
  379POPI    C2 5970  12.992   7.067  10.604  0.2513  0.0148  0.0502
  379POPI    C3 5971  12.904   6.830  10.914  0.2270  0.3347  0.2932
  379POPI   PO4 5972  13.124   6.686  10.316 -0.0026 -0.0803  0.0709
  379POPI   GL1 5973  12.906   6.874  10.030  0.0038 -0.0274 -0.0381
  379POPI   GL2 5974  13.087   7.130  10.103 -0.6139 -0.0360 -0.0836
  379POPI   C1A 5975  13.211   6.881   9.638 -0.0031 -0.1061 -0.0129
  379POPI   D2A 5976  13.422   6.746   9.246  0.3112 -0.2190  0.0189
  379POPI   C3A 5977  13.350   6.860   8.745  0.1147  0.0023 -0.2312
  379POPI   C4A 5978  13.564   6.898   8.296  0.0574 -0.0691  0.0946
  379POPI   C1B 5979  12.941   7.327   9.650 -0.1131 -0.2858  0.2433
  379POPI   C2B 5980  12.719   7.358   9.227  0.1072  0.1185  0.1524
  379POPI   C3B 5981  13.011   7.224   8.853 -0.3137  0.2933  0.0279
  379POPI   C4B 5982  13.232   7.213   8.425  0.2182  0.2208 -0.3951
  380POPI    C1 5983  13.516  12.872  10.216 -0.1835 -0.0993 -0.2678
  380POPI    C2 5984  13.271  12.950  10.522 -0.1361  0.1167 -0.2834
  380POPI    C3 5985  13.619  12.763  10.587 -0.1564  0.1025 -0.2150
  380POPI   PO4 5986  13.294  12.948  10.017  0.2497  0.0284  0.0588
  380POPI   GL1 5987  13.092  12.744   9.614  0.1646  0.0543 -0.1562
  380POPI   GL2 5988  12.833  12.724   9.555  0.0437  0.2752 -0.1406
  380POPI   C1A 5989  13.078  12.923   9.200 -0.2005 -0.0175  0.5091
  380POPI   D2A 5990  12.998  12.813   8.800  0.0965  0.0391  0.0027
  380POPI   C3A 5991  13.155  12.422   8.749  0.1036  0.0091  0.1481
  380POPI   C4A 5992  13.205  12.096   9.010  0.1376 -0.0353  0.2195
  380POPI   C1B 5993  12.843  12.446   9.203 -0.0239 -0.1719  0.1373
  380POPI   C2B 5994  12.690  12.284   8.817  0.1274  0.2011 -0.2389
  380POPI   C3B 5995  12.537  12.291   8.303 -0.1823  0.0763  0.0320
  380POPI   C4B 5996  12.195  12.474   8.057  0.0742 -0.1583 -0.0476
  381POPI    C1 5997  14.612   9.979  10.390 -0.0102  0.0625  0.2802
  381POPI    C2 5998  14.852  10.296  10.432 -0.0717  0.1240  0.1720
  381POPI    C3 5999  14.970   9.938  10.565  0.1231  0.1335  0.0286
  381POPI   PO4 6000  14.506  10.011  10.164 -0.0717 -0.0899  0.0412
  381POPI   GL1 6001  14.235   9.820   9.864 -0.3895 -0.3003  0.0487
  381POPI   GL2 6002  14.221  10.064   9.722 -0.0850  0.3625 -0.1066
  381POPI   C1A 6003  13.962   9.583   9.453 -0.3339  0.2882 -0.0058
  381POPI   D2A 6004  14.082   9.614   8.962  0.1513  0.2870 -0.1661
  381POPI   C3A 6005  14.143   9.419   8.708 -0.1126 -0.0106 -0.0255
  381POPI   C4A 6006  14.005   9.363   8.322  0.1023  0.0487 -0.0581
  381POPI   C1B 6007  14.325   9.960   9.366 -0.1230 -0.3027  0.0305
  381POPI   C2B 6008  14.314  10.044   9.048 -0.0328 -0.0659 -0.2771
  381POPI   C3B 6009  14.140  10.179   8.642 -0.6256  0.1693 -0.1761
  381POPI   C4B 6010  14.295  10.237   8.190  0.2360  0.0990 -0.0015
  382POPI    C1 6011   0.957  16.576  10.043 -0.1043  0.2003  0.2566
  382POPI    C2 6012   1.238  16.755   9.822 -0.2231  0.2300  0.1278
  382POPI    C3 6013   1.310  16.670  10.206  0.0309  0.0659  0.0465
  382POPI   PO4 6014   0.865  16.388   9.911  0.0028 -0.1676  0.2340
  382POPI   GL1 6015   0.861  16.415   9.464  0.2727  0.0505  0.1544
  382POPI   GL2 6016   1.063  16.312   9.399  0.2761 -0.0710  0.1069
  382POPI   C1A 6017   1.035  16.810   9.251 -0.0876  0.0648 -0.1635
  382POPI   D2A 6018   1.249  16.902   8.977  0.2314 -0.0434 -0.0724
  382POPI   C3A 6019   1.407  16.471   8.888  0.2619  0.0467 -0.1332
  382POPI   C4A 6020   1.447  16.293   8.468 -0.0928  0.1405 -0.1233
  382POPI   C1B 6021   0.840  16.292   9.000 -0.1723 -0.3595  0.0557
  382POPI   C2B 6022   1.001  16.512   8.638 -0.2881 -0.0874 -0.2464
  382POPI   C3B 6023   1.036  16.618   8.154  0.1207  0.0719 -0.4756
  382POPI   C4B 6024   0.850  16.708   7.774 -0.0355  0.2123  0.0807
  383POPI    C1 6025   4.811  14.202   9.949  0.1563  0.2074 -0.0571
  383POPI    C2 6026   4.627  13.979  10.225  0.2641  0.1486 -0.0319
  383POPI    C3 6027   4.631  14.378  10.260  0.2707  0.1418  0.0474
  383POPI   PO4 6028   4.768  14.228   9.768 -0.0705  0.2704  0.2695
  383POPI   GL1 6029   4.541  14.464   9.442 -0.0120  0.1736 -0.0865
  383POPI   GL2 6030   4.340  14.223   9.387  0.1616 -0.0772 -0.0260
  383POPI   C1A 6031   4.771  14.458   9.043  0.0380 -0.0429  0.2086
  383POPI   D2A 6032   5.029  14.473   8.681 -0.0791  0.2770 -0.0845
  383POPI   C3A 6033   5.179  14.666   8.246 -0.1550  0.0972  0.1674
  383POPI   C4A 6034   5.418  14.811   7.868 -0.0120  0.3136 -0.0131
  383POPI   C1B 6035   4.511  14.005   8.972  0.0229 -0.0734  0.2337
  383POPI   C2B 6036   4.600  14.108   8.567  0.0228 -0.1132  0.0358
  383POPI   C3B 6037   4.634  14.074   8.138  0.2601  0.4522  0.1628
  383POPI   C4B 6038   4.696  13.736   7.887  0.2693  0.0820 -0.1613
  384POPI    C1 6039  15.628  14.472  10.108 -0.0173  0.0627  0.1175
  384POPI    C2 6040  15.289  14.684  10.135 -0.0831 -0.0614  0.2857
  384POPI    C3 6041  15.600  14.772  10.371 -0.0905 -0.1151  0.3157
  384POPI   PO4 6042  15.534  14.202  10.171  0.0775  0.1618 -0.1869
  384POPI   GL1 6043  15.421  13.948   9.806 -0.0536  0.0513  0.0394
  384POPI   GL2 6044  15.258  14.195   9.707 -0.1841  0.0885  0.1435
  384POPI   C1A 6045  15.523  13.692   9.402  0.2392  0.2610  0.1314
  384POPI   D2A 6046  15.665  13.694   8.951  0.0109  0.1117 -0.1663
  384POPI   C3A 6047  15.870  13.979   8.857  0.0247  0.1498 -0.1605
  384POPI   C4A 6048  15.806  14.369   8.536  0.0878  0.0961 -0.0520
  384POPI   C1B 6049  15.033  14.235   9.306  0.0277 -0.2500 -0.0094
  384POPI   C2B 6050  14.784  14.293   8.910 -0.1914 -0.0903 -0.0912
  384POPI   C3B 6051  14.471  14.256   8.843  0.1706  0.0669  0.1571
  384POPI   C4B 6052  14.289  13.966   8.511 -0.0490 -0.0487 -0.4602
  385POPI    C1 6053  14.250   9.600  10.403 -0.0707  0.0687 -0.1990
  385POPI    C2 6054  14.265   9.569  10.802 -0.0553 -0.0819 -0.2106
  385POPI    C3 6055  14.203   9.925  10.631  0.0501  0.0016 -0.0766
  385POPI   PO4 6056  14.063   9.450  10.208 -0.1977  0.1448  0.0825
  385POPI   GL1 6057  13.749   9.602   9.908  0.0421 -0.0976 -0.0046
  385POPI   GL2 6058  13.289   9.730   9.902  0.2902  0.1399  0.1523
  385POPI   C1A 6059  13.632   9.231   9.752 -0.2608  0.4894  0.3193
  385POPI   D2A 6060  13.320   9.037   9.663  0.2056  0.0687 -0.0479
  385POPI   C3A 6061  13.134   9.317   9.309  0.1775  0.1424  0.0019
  385POPI   C4A 6062  12.865   9.421   8.941  0.1307 -0.2955 -0.1321
  385POPI   C1B 6063  13.477   9.688   9.452 -0.1318  0.2003 -0.0594
  385POPI   C2B 6064  13.559   9.595   9.023 -0.0505 -0.4205 -0.2079
  385POPI   C3B 6065  13.602   9.592   8.650  0.0383 -0.2657 -0.3866
  385POPI   C4B 6066  13.854   9.852   8.336 -0.1582 -0.0924 -0.1052
  386POPI    C1 6067   2.735  16.155   9.872 -0.0908 -0.1034  0.0505
  386POPI    C2 6068   2.652  15.846  10.112  0.3122 -0.1126  0.1850
  386POPI    C3 6069   2.900  16.135  10.236  0.0450  0.1985  0.0089
  386POPI   PO4 6070   2.544  16.352   9.897  0.1473  0.1190  0.3874
  386POPI   GL1 6071   2.357  16.526   9.557  0.3343  0.0552  0.1673
  386POPI   GL2 6072   2.139  16.487   9.654  0.2093  0.2456  0.3138
  386POPI   C1A 6073   2.119  16.778   9.246  0.4337  0.1642 -0.1556
  386POPI   D2A 6074   1.723  16.947   9.031 -0.2839  0.2270 -0.1519
  386POPI   C3A 6075   1.637  16.885   8.662  0.3103  0.3116 -0.1806
  386POPI   C4A 6076   1.284  16.934   8.472 -0.3445 -0.0162  0.3038
  386POPI   C1B 6077   2.029  16.207   9.216 -0.0059  0.0526 -0.2430
  386POPI   C2B 6078   1.877  16.441   8.851  0.3523  0.2202 -0.1488
  386POPI   C3B 6079   1.916  16.482   8.411  0.0597  0.0618 -0.0421
  386POPI   C4B 6080   1.969  16.299   8.039  0.0535  0.0979 -0.0509
  387POPI    C1 6081  15.551  13.380  10.335 -0.1736  0.1544 -0.2205
  387POPI    C2 6082  15.710  13.603  10.627 -0.2479 -0.2880  0.1702
  387POPI    C3 6083  15.915  13.540  10.290 -0.1404  0.1893  0.1387
  387POPI   PO4 6084  15.419  13.071  10.435  0.1132 -0.0413 -0.3822
  387POPI   GL1 6085  15.127  12.856  10.047 -0.0140 -0.0742  0.1897
  387POPI   GL2 6086  15.460  13.067   9.890  0.1234  0.0053 -0.1034
  387POPI   C1A 6087  15.024  12.937   9.576 -0.0567  0.0041  0.1560
  387POPI   D2A 6088  15.274  12.856   9.133 -0.3090 -0.0425 -0.1387
  387POPI   C3A 6089  15.144  12.681   8.747  0.1393  0.3023 -0.5235
  387POPI   C4A 6090  14.848  12.407   8.399 -0.3580 -0.1321 -0.1723
  387POPI   C1B 6091  15.526  12.748   9.607 -0.0406  0.1477 -0.1608
  387POPI   C2B 6092  15.582  12.492   9.365 -0.0209  0.0348  0.1762
  387POPI   C3B 6093  15.633  12.462   8.979  0.1736  0.2270 -0.0104
  387POPI   C4B 6094  15.587  12.186   8.613  0.1823 -0.0465  0.0779
  388POPI    C1 6095  13.049  17.008  10.036 -0.1965 -0.1082 -0.0885
  388POPI    C2 6096  13.150  16.666  10.218 -0.3811 -0.0061  0.2133
  388POPI    C3 6097  13.257  17.017  10.378 -0.2859  0.0811 -0.0373
  388POPI   PO4 6098  13.142  16.931   9.787 -0.1163  0.0519 -0.1477
  388POPI   GL1 6099  13.483  16.913   9.518 -0.0144  0.3703 -0.2037
  388POPI   GL2 6100  13.799  17.008   9.557  0.2149  0.0256 -0.2798
  388POPI   C1A 6101  13.383  16.666   9.187 -0.0926  0.0338 -0.0060
  388POPI   D2A 6102  13.413  16.551   8.791  0.0096 -0.0123 -0.1407
  388POPI   C3A 6103  13.377  16.782   8.552 -0.1310  0.1594 -0.1408
  388POPI   C4A 6104  13.446  17.144   8.643  0.0449  0.1498 -0.1974
  388POPI   C1B 6105  13.892  16.664   9.321  0.0280  0.1610 -0.2656
  388POPI   C2B 6106  13.849  16.451   8.912  0.1344  0.0618  0.4360
  388POPI   C3B 6107  13.879  16.602   8.493  0.1349 -0.0800 -0.2547
  388POPI   C4B 6108  13.682  16.740   8.131  0.3928 -0.0556  0.0232
  389POPI    C1 6109   1.421   1.201  10.488 -0.1046  0.1323  0.1187
  389POPI    C2 6110   1.314   0.879  10.700 -0.0029  0.1530  0.2017
  389POPI    C3 6111   1.679   0.900  10.538 -0.1262  0.0775 -0.0909
  389POPI   PO4 6112   1.261   1.218  10.298  0.0372 -0.0703 -0.3131
  389POPI   GL1 6113   1.064   1.002   9.947 -0.5240 -0.0403  0.0339
  389POPI   GL2 6114   0.902   0.647   9.942  0.1779 -0.0213  0.1908
  389POPI   C1A 6115   1.084   1.279   9.590  0.0602 -0.1042 -0.3345
  389POPI   D2A 6116   0.977   1.532   9.215 -0.0433  0.0822  0.1928
  389POPI   C3A 6117   1.133   1.423   8.780 -0.2536 -0.0743  0.1299
  389POPI   C4A 6118   1.138   1.663   8.379  0.1204 -0.1345 -0.2275
  389POPI   C1B 6119   0.755   0.774   9.596 -0.0694 -0.1577  0.2960
  389POPI   C2B 6120   0.537   0.891   9.185 -0.0900  0.3400 -0.0556
  389POPI   C3B 6121   0.520   0.661   8.747 -0.0165 -0.1318 -0.1642
  389POPI   C4B 6122   0.304   0.308   8.547  0.0599  0.0412  0.0927
  390POPI    C1 6123  16.237  13.405  10.671  0.2367  0.1235 -0.2500
  390POPI    C2 6124  16.585  13.599  10.703  0.0500  0.4233  0.0345
  390POPI    C3 6125  16.241  13.803  10.716 -0.1418  0.1154 -0.1057
  390POPI   PO4 6126  16.255  13.155  10.462  0.0901 -0.1595  0.0557
  390POPI   GL1 6127  16.232  13.191  10.011 -0.0807 -0.0100  0.1687
  390POPI   GL2 6128  16.209  12.932   9.960  0.1460  0.0073  0.2030
  390POPI   C1A 6129  16.455  13.130   9.615  0.1012  0.3110 -0.1634
  390POPI   D2A 6130  16.571  13.121   9.209 -0.2985  0.0718  0.1612
  390POPI   C3A 6131  16.671  13.416   9.210  0.0050 -0.2239 -0.2554
  390POPI   C4A 6132  16.879  13.727   8.894 -0.1972 -0.1422  0.0013
  390POPI   C1B 6133  15.957  12.638   9.766 -0.0350 -0.0011 -0.2152
  390POPI   C2B 6134  15.971  12.253   9.577  0.4671 -0.0611  0.1642
  390POPI   C3B 6135  15.894  11.854   9.596 -0.2241  0.0711  0.2550
  390POPI   C4B 6136  15.603  11.605   9.689 -0.4129  0.1088  0.0669
  391POPI    C1 6137  17.111  13.279  10.171  0.1191  0.0527 -0.1452
  391POPI    C2 6138  16.782  13.279   9.943  0.1160 -0.0949 -0.1415
  391POPI    C3 6139  16.751  13.332  10.338  0.0884 -0.1916 -0.1304
  391POPI   PO4 6140  17.231  13.005  10.043 -0.1362 -0.1613  0.0871
  391POPI   GL1 6141  17.184  13.042   9.683  0.2247  0.0940  0.0912
  391POPI   GL2 6142  16.988  13.059   9.498 -0.0076 -0.0216  0.1449
  391POPI   C1A 6143  17.475  13.354   9.364 -0.0730 -0.2046 -0.3140
  391POPI   D2A 6144  17.488  13.756   9.026 -0.0479  0.2550  0.0247
  391POPI   C3A 6145  17.824  13.783   8.810  0.2138  0.0763  0.0643
  391POPI   C4A 6146  17.904  13.621   8.433  0.1064  0.1627 -0.1121
  391POPI   C1B 6147  17.082  13.210   9.029  0.0898 -0.1934 -0.2448
  391POPI   C2B 6148  16.832  13.239   8.662  0.3787  0.0640  0.2096
  391POPI   C3B 6149  16.699  13.160   8.259  0.2203 -0.0371  0.0413
  391POPI   C4B 6150  16.716  12.961   7.896  0.3728 -0.6072 -0.1866
  392POPI    C1 6151  16.557  12.020  10.858  0.2188 -0.1441 -0.3402
  392POPI    C2 6152  16.283  12.127  10.587 -0.1272  0.0618  0.0794
  392POPI    C3 6153  16.186  11.873  10.881  0.1011  0.2166  0.2921
  392POPI   PO4 6154  16.791  12.113  10.630 -0.2932 -0.0603  0.0045
  392POPI   GL1 6155  16.601  12.357  10.176  0.0337 -0.2964  0.1113
  392POPI   GL2 6156  16.800  12.090  10.080 -0.3089 -0.1602 -0.1695
  392POPI   C1A 6157  16.344  12.310   9.898 -0.1084  0.0067  0.0413
  392POPI   D2A 6158  16.451  11.944   9.676 -0.1182  0.1669 -0.0147
  392POPI   C3A 6159  16.443  11.777   9.221 -0.0528 -0.2039 -0.1369
  392POPI   C4A 6160  16.396  11.836   8.810  0.1925 -0.0323  0.0436
  392POPI   C1B 6161  17.048  12.046   9.755  0.2065  0.1147  0.0935
  392POPI   C2B 6162  16.992  12.160   9.263 -0.0771 -0.0721 -0.3785
  392POPI   C3B 6163  16.850  12.095   8.926  0.0387 -0.1434  0.1003
  392POPI   C4B 6164  16.513  12.350   8.742  0.2064 -0.2777  0.1631
  393POPI    C1 6165   6.320   0.311  10.040 -0.0497  0.1575  0.0881
  393POPI    C2 6166   6.261   0.638   9.817  0.1976  0.2152  0.1050
  393POPI    C3 6167   6.159   0.639  10.204 -0.5197  0.0136 -0.0692
  393POPI   PO4 6168   6.554   0.244   9.859  0.2352  0.3145 -0.2813
  393POPI   GL1 6169   6.665   0.206   9.451  0.0206  0.2051 -0.3542
  393POPI   GL2 6170   6.455   0.376   9.381 -0.1861  0.3145  0.1082
  393POPI   C1A 6171   6.975  -0.053   9.305 -0.0927  0.1734  0.0810
  393POPI   D2A 6172   7.309  -0.235   8.988 -0.2255  0.1162 -0.0504
  393POPI   C3A 6173   7.310  -0.301   8.669 -0.0085  0.1543  0.0118
  393POPI   C4A 6174   7.292  -0.342   8.265  0.3228  0.2780 -0.0829
  393POPI   C1B 6175   6.276   0.083   9.017 -0.0767  0.0394 -0.0475
  393POPI   C2B 6176   6.285  -0.200   8.638  0.0521 -0.1115 -0.3166
  393POPI   C3B 6177   6.056  -0.205   8.312  0.4124  0.0203  0.0860
  393POPI   C4B 6178   5.984  -0.142   7.823 -0.1005  0.2513  0.0631
  394POPI    C1 6179  17.319   3.640  10.758  0.0212  0.0067 -0.2756
  394POPI    C2 6180  17.242   4.015  10.875  0.1389 -0.0933  0.1411
  394POPI    C3 6181  16.957   3.798  10.696 -0.0648  0.0511  0.2866
  394POPI   PO4 6182  17.609   3.693  10.695  0.2390  0.1551  0.1373
  394POPI   GL1 6183  17.737   3.966  10.382 -0.2521 -0.0762 -0.1480
  394POPI   GL2 6184  17.425   4.057  10.363 -0.1223 -0.0171  0.1372
  394POPI   C1A 6185  18.031   4.179  10.183  0.0535  0.1486  0.0348
  394POPI   D2A 6186  18.269   4.507  10.107  0.2207  0.0727 -0.2300
  394POPI   C3A 6187  18.173   4.854   9.887  0.2979  0.1912  0.3643
  394POPI   C4A 6188  18.150   5.204   9.702 -0.0018  0.1053  0.1639
  394POPI   C1B 6189  17.414   4.040   9.979 -0.1419 -0.1725  0.2273
  394POPI   C2B 6190  17.594   4.111   9.537 -0.0404 -0.1149 -0.0747
  394POPI   C3B 6191  17.937   4.195   9.261 -0.3298  0.0107  0.2031
  394POPI   C4B 6192  18.361   4.394   9.231 -0.3010 -0.0452  0.1541
  395POPI    C1 6193   8.165   3.805  10.211 -0.1061 -0.1562 -0.2196
  395POPI    C2 6194   8.255   3.418  10.253 -0.2645 -0.2023 -0.2973
  395POPI    C3 6195   7.993   3.590  10.501  0.1069 -0.0428 -0.0048
  395POPI   PO4 6196   8.241   3.859  10.000 -0.2711  0.0016 -0.1408
  395POPI   GL1 6197   8.261   4.000   9.544 -0.1459  0.3680  0.2025
  395POPI   GL2 6198   8.025   4.225   9.541 -0.1815 -0.1023 -0.2166
  395POPI   C1A 6199   8.266   4.000   9.123 -0.1552  0.1922  0.0871
  395POPI   D2A 6200   8.438   3.836   8.725 -0.0410  0.0831 -0.5026
  395POPI   C3A 6201   8.195   3.655   8.454 -0.2125 -0.1376  0.0025
  395POPI   C4A 6202   8.075   3.375   8.060 -0.1486 -0.0929 -0.0311
  395POPI   C1B 6203   7.873   4.230   9.118  0.0944 -0.1331  0.1840
  395POPI   C2B 6204   7.920   4.101   8.638  0.0377  0.0527 -0.1487
  395POPI   C3B 6205   8.000   4.066   8.304 -0.0965 -0.1395  0.1220
  395POPI   C4B 6206   7.827   3.807   8.046 -0.1455  0.1407 -0.1227
  396POPI    C1 6207  14.466  17.440   9.975  0.0178  0.1366  0.0528
  396POPI    C2 6208  14.496  17.808   9.821  0.0392  0.1726  0.1424
  396POPI    C3 6209  14.747  17.690  10.109 -0.0369  0.1253  0.1898
  396POPI   PO4 6210  14.385  17.319   9.723  0.1947 -0.2168  0.1386
  396POPI   GL1 6211  14.270  17.433   9.326 -0.3807  0.1896 -0.0503
  396POPI   GL2 6212  14.560  17.648   9.251 -0.2910 -0.1729 -0.2065
  396POPI   C1A 6213  14.300  17.425   8.842  0.2891  0.1212 -0.2379
  396POPI   D2A 6214  14.297  17.588   8.391  0.2659 -0.1045 -0.2034
  396POPI   C3A 6215  14.265  17.838   8.010  0.0750  0.1880  0.2080
  396POPI   C4A 6216  14.278  18.273   7.869 -0.2057 -0.0936  0.0965
  396POPI   C1B 6217  14.686  17.716   8.843 -0.0990 -0.1768 -0.3621
  396POPI   C2B 6218  14.806  17.689   8.375 -0.0829 -0.2603 -0.0456
  396POPI   C3B 6219  15.077  18.070   8.181 -0.1761  0.4246 -0.0092
  396POPI   C4B 6220  15.029  18.415   7.861  0.3698  0.1132 -0.0490
  397POPI    C1 6221   1.309   6.439  10.738 -0.0503 -0.2702  0.0958
  397POPI    C2 6222   1.414   6.674  11.045  0.1172  0.0444 -0.1957
  397POPI    C3 6223   1.656   6.377  10.928 -0.0297 -0.1907  0.0846
  397POPI   PO4 6224   1.269   6.541  10.480  0.0250  0.2021  0.1661
  397POPI   GL1 6225   1.072   6.638  10.075 -0.0811  0.1159  0.1120
  397POPI   GL2 6226   0.795   6.887  10.007  0.0272 -0.1075  0.0248
  397POPI   C1A 6227   0.931   6.581   9.640  0.1768 -0.3505  0.0402
  397POPI   D2A 6228   0.999   6.449   9.243  0.0403 -0.0389 -0.0505
  397POPI   C3A 6229   1.207   6.622   8.861  0.0022 -0.1752 -0.5900
  397POPI   C4A 6230   1.164   6.715   8.418 -0.2553  0.1861 -0.0138
  397POPI   C1B 6231   0.668   7.002   9.739  0.0475 -0.0102 -0.1376
  397POPI   C2B 6232   0.666   6.848   9.279 -0.0617 -0.1090 -0.0511
  397POPI   C3B 6233   0.707   6.719   8.882 -0.0022  0.1394 -0.1355
  397POPI   C4B 6234   0.613   6.765   8.469 -0.0440  0.0136 -0.0046
  398POPI    C1 6235   1.592   6.908  10.618  0.0460 -0.0385 -0.2602
  398POPI    C2 6236   1.947   7.029  10.757 -0.0837  0.0864 -0.0311
  398POPI    C3 6237   1.904   6.657  10.616  0.0834 -0.0019  0.1461
  398POPI   PO4 6238   1.515   7.055  10.500 -0.0530  0.0739  0.2122
  398POPI   GL1 6239   1.356   7.093  10.015 -0.3982  0.2519  0.0012
  398POPI   GL2 6240   1.198   7.276   9.806  0.0337  0.0189  0.1072
  398POPI   C1A 6241   1.512   6.771   9.780  0.2296 -0.2444  0.1432
  398POPI   D2A 6242   1.409   6.373   9.631  0.1938  0.0854 -0.3158
  398POPI   C3A 6243   1.787   6.323   9.516  0.1062  0.1079 -0.2102
  398POPI   C4A 6244   2.019   6.029   9.424 -0.6023 -0.0847 -0.0924
  398POPI   C1B 6245   1.115   7.010   9.434  0.0350  0.1072  0.3028
  398POPI   C2B 6246   0.970   7.111   8.979 -0.1760 -0.4554  0.0157
  398POPI   C3B 6247   0.803   7.236   8.454  0.1011 -0.0622 -0.0638
  398POPI   C4B 6248   0.382   7.082   8.145  0.2717 -0.1860 -0.1494
  399POPI    C1 6249  12.547  15.218   9.614  0.1161 -0.0987  0.1562
  399POPI    C2 6250  12.469  14.833   9.689  0.1468 -0.1255  0.0529
  399POPI    C3 6251  12.835  14.944   9.571  0.0808 -0.0947 -0.1257
  399POPI   PO4 6252  12.359  15.280   9.439  0.0360  0.0763  0.0220
  399POPI   GL1 6253  12.313  15.481   9.130  0.1600 -0.0118  0.0513
  399POPI   GL2 6254  12.519  15.481   8.996 -0.0379 -0.1573  0.2669
  399POPI   C1A 6255  11.978  15.379   8.868  0.0239  0.0941 -0.0671
  399POPI   D2A 6256  11.783  15.455   8.539 -0.2866  0.1113  0.0609
  399POPI   C3A 6257  11.889  15.450   8.078  0.0240  0.0102  0.1058
  399POPI   C4A 6258  12.137  15.614   7.701  0.1112  0.1444  0.0654
  399POPI   C1B 6259  12.357  15.569   8.593 -0.0088  0.0851  0.0504
  399POPI   C2B 6260  12.405  15.544   8.187  0.3330  0.1912 -0.1068
  399POPI   C3B 6261  12.624  15.519   7.960  0.0900 -0.0117 -0.3258
  399POPI   C4B 6262  12.624  15.302   7.655  0.0558  0.1053 -0.2475
  400POPI    C1 6263   7.919   6.221  10.171 -0.1017  0.1281  0.3139
  400POPI    C2 6264   7.996   5.832  10.222  0.0065  0.0922 -0.0873
  400POPI    C3 6265   7.813   6.039  10.511  0.0752 -0.2212  0.1872
  400POPI   PO4 6266   8.015   6.246   9.966 -0.0849  0.0959  0.0624
  400POPI   GL1 6267   8.142   6.207   9.635  0.2647  0.1228  0.3924
  400POPI   GL2 6268   7.854   6.045   9.444 -0.1315  0.3103  0.2172
  400POPI   C1A 6269   8.273   6.154   9.219 -0.1107 -0.0271  0.2835
  400POPI   D2A 6270   8.605   6.466   8.985  0.2867  0.1480  0.0278
  400POPI   C3A 6271   8.994   6.305   8.907  0.1066 -0.0185  0.1164
  400POPI   C4A 6272   8.972   6.189   8.508 -0.2631  0.4156 -0.0992
  400POPI   C1B 6273   7.741   6.099   9.050  0.2684  0.1068  0.3006
  400POPI   C2B 6274   7.530   6.078   8.634  0.0212  0.4198 -0.0660
  400POPI   C3B 6275   7.756   6.187   8.177  0.2733 -0.2804 -0.1389
  400POPI   C4B 6276   7.864   5.953   7.811 -0.1951 -0.1360  0.0509
  401POPI    C1 6277  15.449   9.734  10.535  0.0287  0.0252  0.3187
  401POPI    C2 6278  15.405  10.078  10.335 -0.1550 -0.1050  0.1305
  401POPI    C3 6279  15.742  10.005  10.538  0.0809 -0.0153 -0.2214
  401POPI   PO4 6280  15.262   9.569  10.375 -0.2687  0.0929  0.0450
  401POPI   GL1 6281  15.221   9.359  10.125 -0.0673 -0.2636  0.3109
  401POPI   GL2 6282  15.110   9.455   9.822  0.3310 -0.2925 -0.0751
  401POPI   C1A 6283  15.379   8.932  10.072  0.1871 -0.0535  0.1136
  401POPI   D2A 6284  15.533   8.569   9.854  0.1803  0.0374  0.0082
  401POPI   C3A 6285  15.741   8.624   9.536  0.1493  0.0999  0.1998
  401POPI   C4A 6286  15.665   8.499   9.140 -0.0900 -0.0081 -0.1837
  401POPI   C1B 6287  15.114   9.697   9.446  0.0612 -0.1452  0.1559
  401POPI   C2B 6288  15.468   9.735   9.237  0.3337  0.2174 -0.1366
  401POPI   C3B 6289  15.527   9.576   8.932  0.0446 -0.1365  0.2074
  401POPI   C4B 6290  15.434   9.096   8.755  0.1103  0.0519 -0.1017
  402POPI    C1 6291   4.660   3.521  10.261  0.2446 -0.1234 -0.0857
  402POPI    C2 6292   4.529   3.160  10.373  0.0659 -0.0253  0.0275
  402POPI    C3 6293   4.615   3.436  10.649  0.0779  0.0620 -0.0631
  402POPI   PO4 6294   4.467   3.567  10.054  0.3512 -0.1989  0.1290
  402POPI   GL1 6295   4.497   3.591   9.542  0.0064  0.0099 -0.1661
  402POPI   GL2 6296   4.733   3.398   9.638  0.0109  0.0013  0.1101
  402POPI   C1A 6297   4.507   3.588   9.198  0.0583  0.0700 -0.3808
  402POPI   D2A 6298   4.717   3.509   8.790 -0.0930  0.0921 -0.0457
  402POPI   C3A 6299   4.492   3.422   8.472 -0.2894 -0.3036 -0.1746
  402POPI   C4A 6300   4.499   3.377   8.094 -0.1041 -0.1210  0.1333
  402POPI   C1B 6301   4.609   3.144   9.324  0.0281  0.0326  0.0903
  402POPI   C2B 6302   4.378   3.140   8.890  0.2028  0.1203 -0.1040
  402POPI   C3B 6303   4.250   2.900   8.512 -0.0236 -0.0883  0.1724
  402POPI   C4B 6304   4.006   2.843   8.166  0.0517 -0.0207  0.0945
  403POPI    C1 6305   4.243  14.068   9.859  0.1363 -0.0522  0.1202
  403POPI    C2 6306   4.003  14.318  10.060  0.0771  0.1463 -0.1894
  403POPI    C3 6307   4.328  14.459   9.876  0.0067  0.0075 -0.4243
  403POPI   PO4 6308   3.968  13.878   9.761  0.1234 -0.0558 -0.0100
  403POPI   GL1 6309   3.700  13.836   9.391  0.0738 -0.1261 -0.1682
  403POPI   GL2 6310   3.485  13.938   9.496  0.1694  0.0502  0.2461
  403POPI   C1A 6311   3.949  14.086   9.130  0.1050 -0.0516 -0.3186
  403POPI   D2A 6312   4.033  14.049   8.752  0.1171  0.2444 -0.1047
  403POPI   C3A 6313   4.135  14.084   8.316  0.3491 -0.1802 -0.0699
  403POPI   C4A 6314   4.211  13.926   7.946 -0.3400  0.2264 -0.2750
  403POPI   C1B 6315   3.348  13.814   9.034 -0.2248 -0.0004  0.0013
  403POPI   C2B 6316   3.212  13.696   8.713  0.3797 -0.3544  0.0720
  403POPI   C3B 6317   2.914  13.677   8.479 -0.0268  0.1943 -0.2905
  403POPI   C4B 6318   2.566  13.752   8.208  0.0184 -0.4216  0.3268
  404POPI    C1 6319  13.215  17.899   9.896 -0.1115  0.0294  0.0203
  404POPI    C2 6320  12.857  17.890  10.073 -0.0644  0.0059  0.1155
  404POPI    C3 6321  13.183  17.980  10.286  0.0017 -0.0885  0.0552
  404POPI   PO4 6322  13.301  17.689   9.727 -0.0990 -0.1399 -0.0196
  404POPI   GL1 6323  13.181  17.256   9.438  0.1178  0.0096  0.1125
  404POPI   GL2 6324  13.055  17.499   9.285 -0.0530  0.2096  0.0467
  404POPI   C1A 6325  13.378  17.157   9.117 -0.1533 -0.0413 -0.0890
  404POPI   D2A 6326  13.745  16.987   8.981  0.2541 -0.0502  0.0022
  404POPI   C3A 6327  13.945  17.161   8.672  0.1831  0.0841 -0.1732
  404POPI   C4A 6328  13.931  17.150   8.283 -0.2029  0.0341  0.0684
  404POPI   C1B 6329  13.112  17.493   8.895 -0.1013  0.1445  0.1891
  404POPI   C2B 6330  13.059  17.452   8.476  0.1841  0.4638 -0.2839
  404POPI   C3B 6331  13.420  17.372   8.206  0.0952  0.2455  0.2917
  404POPI   C4B 6332  13.820  17.534   8.080  0.1669  0.2653  0.0926
  405POPI    C1 6333   2.090   9.785   9.919 -0.2769  0.0695 -0.0462
  405POPI    C2 6334   1.877   9.814  10.256 -0.2918 -0.4379 -0.0043
  405POPI    C3 6335   1.698   9.707   9.914 -0.2258 -0.1951 -0.1171
  405POPI   PO4 6336   2.229  10.085  10.013  0.2902  0.1321 -0.2969
  405POPI   GL1 6337   2.303  10.304   9.656 -0.2762 -0.0412 -0.0540
  405POPI   GL2 6338   1.945  10.198   9.573 -0.0589 -0.0196 -0.2092
  405POPI   C1A 6339   2.423  10.092   9.274  0.1251 -0.5207 -0.0670
  405POPI   D2A 6340   2.188  10.045   8.936  0.1624 -0.1466  0.3092
  405POPI   C3A 6341   2.265   9.869   8.524 -0.0808 -0.1769 -0.0604
  405POPI   C4A 6342   2.367   9.566   8.312  0.1920 -0.0488  0.0954
  405POPI   C1B 6343   1.935   9.888   9.391  0.1515  0.0580 -0.0130
  405POPI   C2B 6344   1.781   9.648   9.079 -0.0498  0.2023 -0.1060
  405POPI   C3B 6345   1.921   9.499   8.658 -0.0028 -0.0526  0.2565
  405POPI   C4B 6346   1.882   9.313   8.334  0.3228  0.1037 -0.1656
  406POPI    C1 6347   4.662  12.697   9.825  0.1589  0.0292  0.0219
  406POPI    C2 6348   4.318  12.670  10.027  0.1406 -0.0358 -0.0176
  406POPI    C3 6349   4.660  12.548  10.196  0.1306 -0.0569 -0.0126
  406POPI   PO4 6350   4.669  12.903   9.712 -0.3490  0.0156 -0.1914
  406POPI   GL1 6351   4.629  12.761   9.281  0.1808 -0.2954  0.2422
  406POPI   GL2 6352   4.757  12.958   9.106 -0.3990  0.0865 -0.1748
  406POPI   C1A 6353   4.365  12.589   8.966 -0.0530 -0.0375  0.3393
  406POPI   D2A 6354   4.103  12.481   8.702 -0.0620  0.0207 -0.0933
  406POPI   C3A 6355   4.024  12.612   8.298 -0.3105 -0.2814  0.2125
  406POPI   C4A 6356   3.837  12.590   7.850 -0.1834  0.2031  0.4512
  406POPI   C1B 6357   4.784  12.793   8.705  0.1778  0.2451 -0.0157
  406POPI   C2B 6358   4.937  12.915   8.329  0.2456  0.1016  0.1552
  406POPI   C3B 6359   5.243  12.918   8.114 -0.2633  0.1143  0.1683
  406POPI   C4B 6360   5.606  12.959   7.955 -0.0734  0.1855 -0.2481
  407POPI    C1 6361  16.100   6.397  10.701  0.0392 -0.2215 -0.0737
  407POPI    C2 6362  16.455   6.219  10.656  0.2096  0.0088  0.3120
  407POPI    C3 6363  16.427   6.559  10.866 -0.1739  0.2227 -0.0710
  407POPI   PO4 6364  16.049   6.385  10.498 -0.0069 -0.2508 -0.1111
  407POPI   GL1 6365  15.950   6.485  10.062 -0.1505 -0.0145  0.0537
  407POPI   GL2 6366  15.717   6.225   9.989  0.1110  0.2487 -0.1891
  407POPI   C1A 6367  15.611   6.660   9.877  0.0078 -0.1812  0.0002
  407POPI   D2A 6368  15.517   6.966  10.075  0.1947  0.0138 -0.2222
  407POPI   C3A 6369  15.331   7.371   9.876  0.0708 -0.2411 -0.0381
  407POPI   C4A 6370  15.029   7.725   9.713 -0.2046  0.0993  0.2790
  407POPI   C1B 6371  15.815   5.980   9.742  0.0987  0.1615  0.1807
  407POPI   C2B 6372  16.093   5.882   9.294 -0.0358 -0.0384  0.1811
  407POPI   C3B 6373  16.103   6.037   8.905 -0.1013  0.0828  0.1866
  407POPI   C4B 6374  16.117   6.367   8.666  0.0158 -0.2143 -0.1297
  408POPI    C1 6375   4.445  10.137  10.418 -0.3144 -0.2477  0.1340
  408POPI    C2 6376   4.780  10.120  10.636 -0.2785  0.3295  0.1401
  408POPI    C3 6377   4.551   9.794  10.596  0.2590 -0.0660  0.1636
  408POPI   PO4 6378   4.545  10.210  10.205  0.0521  0.0171  0.0848
  408POPI   GL1 6379   4.602   9.986   9.748  0.3033 -0.0563 -0.0340
  408POPI   GL2 6380   4.393   9.943   9.463  0.1438 -0.1451 -0.1249
  408POPI   C1A 6381   4.983   9.793   9.446  0.2284  0.0298 -0.1887
  408POPI   D2A 6382   5.263   9.672   9.368 -0.1217 -0.0966  0.2252
  408POPI   C3A 6383   5.373   9.778   8.967  0.3566  0.2239 -0.1412
  408POPI   C4A 6384   5.498   9.967   8.616  0.0493 -0.0698 -0.0745
  408POPI   C1B 6385   4.552   9.801   9.208 -0.0908 -0.2256  0.1744
  408POPI   C2B 6386   4.567   9.749   8.710  0.0934  0.0332  0.1429
  408POPI   C3B 6387   4.647   9.552   8.348  0.1989  0.0577  0.1436
  408POPI   C4B 6388   4.427   9.276   8.019 -0.1209  0.0893  0.1910
  409POPI    C1 6389  14.314   8.077  10.511 -0.3575 -0.0979  0.0198
  409POPI    C2 6390  14.241   8.394  10.745  0.0537  0.1146 -0.1307
  409POPI    C3 6391  14.524   8.130  10.847 -0.0468 -0.0143 -0.1831
  409POPI   PO4 6392  14.242   8.143  10.252  0.2662 -0.0785 -0.1760
  409POPI   GL1 6393  14.285   7.998   9.904  0.0033  0.0808  0.0573
  409POPI   GL2 6394  14.617   7.849   9.924  0.0381 -0.2932 -0.1865
  409POPI   C1A 6395  14.213   8.072   9.479  0.2530  0.0670  0.1557
  409POPI   D2A 6396  14.222   8.065   9.073 -0.1678 -0.1174  0.1246
  409POPI   C3A 6397  14.311   8.239   8.894 -0.3579  0.0029 -0.1162
  409POPI   C4A 6398  14.055   8.409   8.600 -0.2415 -0.1534 -0.2542
  409POPI   C1B 6399  14.568   7.723   9.512  0.2383 -0.1341 -0.2669
  409POPI   C2B 6400  14.414   7.640   9.207  0.1487  0.1024 -0.3716
  409POPI   C3B 6401  14.315   7.621   8.820  0.1129  0.2824 -0.3845
  409POPI   C4B 6402  14.354   7.491   8.336 -0.0660 -0.1228 -0.0138
  410POPI    C1 6403  10.068   2.785  10.216 -0.0943 -0.2522 -0.2714
  410POPI    C2 6404  10.165   2.973  10.556  0.0221  0.0058 -0.4443
  410POPI    C3 6405  10.435   2.936  10.263 -0.1625  0.0376 -0.6212
  410POPI   PO4 6406   9.866   2.863  10.027  0.2981 -0.1037  0.2202
  410POPI   GL1 6407   9.912   2.991   9.594 -0.2343  0.2184  0.0695
  410POPI   GL2 6408   9.774   2.738   9.444 -0.0387 -0.2262  0.2441
  410POPI   C1A 6409   9.613   3.199   9.301 -0.2119 -0.1986 -0.0861
  410POPI   D2A 6410   9.651   3.296   8.883  0.1996  0.1546 -0.1172
  410POPI   C3A 6411   9.777   3.057   8.520  0.1828 -0.0102 -0.4302
  410POPI   C4A 6412   9.745   2.579   8.575 -0.0216 -0.0519  0.0071
  410POPI   C1B 6413  10.105   3.017   9.133  0.0463  0.3162  0.3767
  410POPI   C2B 6414  10.195   3.245   8.775 -0.1032 -0.0471 -0.1474
  410POPI   C3B 6415  10.149   3.339   8.359  0.0153 -0.2438  0.0619
  410POPI   C4B 6416  10.351   3.435   7.894  0.1944  0.0523  0.1847
  411POPI    C1 6417   0.742  10.980  10.514  0.0652 -0.0588 -0.1395
  411POPI    C2 6418   0.964  10.653  10.579  0.1297  0.0157  0.0214
  411POPI    C3 6419   0.845  10.878  10.887 -0.0840  0.0335 -0.0724
  411POPI   PO4 6420   0.614  10.889  10.226  0.0791  0.0903  0.2253
  411POPI   GL1 6421   0.567  10.799   9.789 -0.1817  0.1219  0.2882
  411POPI   GL2 6422   0.772  10.754   9.629 -0.1039  0.1935  0.1772
  411POPI   C1A 6423   0.450  11.097   9.427  0.1560 -0.0465 -0.0905
  411POPI   D2A 6424   0.379  11.003   8.934 -0.2690  0.1135  0.0138
  411POPI   C3A 6425   0.688  10.976   8.692 -0.1892  0.1447  0.5413
  411POPI   C4A 6426   0.816  10.683   8.421  0.2971 -0.0306 -0.3387
  411POPI   C1B 6427   0.861  10.904   9.182  0.0096 -0.1848 -0.1119
  411POPI   C2B 6428   1.110  11.066   8.924  0.1015  0.0939  0.1676
  411POPI   C3B 6429   1.105  11.159   8.388 -0.0638  0.1128 -0.0138
  411POPI   C4B 6430   1.297  10.899   8.120  0.1761 -0.2337  0.3790
  412POPI    C1 6431   3.546  13.118  10.168 -0.0743 -0.2055 -0.1813
  412POPI    C2 6432   3.938  13.060  10.221 -0.1015 -0.1559  0.0895
  412POPI    C3 6433   3.791  13.432  10.201 -0.1640 -0.1725  0.2269
  412POPI   PO4 6434   3.411  13.020   9.907 -0.0139 -0.2297 -0.0184
  412POPI   GL1 6435   3.210  13.006   9.590  0.2412  0.2384  0.1291
  412POPI   GL2 6436   3.290  13.342   9.335 -0.2998  0.1274 -0.3124
  412POPI   C1A 6437   3.246  12.903   9.121 -0.0536 -0.2322  0.2468
  412POPI   D2A 6438   3.233  12.799   8.635  0.1586 -0.2653  0.1282
  412POPI   C3A 6439   2.878  13.003   8.415 -0.1280 -0.0260 -0.4501
  412POPI   C4A 6440   2.817  13.298   7.922 -0.0241  0.1647 -0.3716
  412POPI   C1B 6441   2.961  13.224   8.878  0.1268 -0.4998 -0.2815
  412POPI   C2B 6442   2.467  13.064   8.712 -0.2566 -0.2843 -0.2947
  412POPI   C3B 6443   2.327  13.195   8.325 -0.3961  0.1670  0.0889
  412POPI   C4B 6444   2.264  13.053   7.818 -0.1244 -0.2466  0.1197
  413POPI    C1 6445  16.246  11.282  10.638 -0.0103 -0.1537  0.1050
  413POPI    C2 6446  16.583  11.436  10.789 -0.0641 -0.0479  0.1182
  413POPI    C3 6447  16.330  11.238  11.027 -0.0469 -0.0637  0.1234
  413POPI   PO4 6448  16.130  11.491  10.503 -0.3587 -0.2215  0.2878
  413POPI   GL1 6449  15.980  11.622  10.106  0.0991  0.0553 -0.3281
  413POPI   GL2 6450  16.174  11.930  10.124  0.0221  0.3359 -0.1243
  413POPI   C1A 6451  16.252  11.517   9.814  0.1641  0.1796 -0.0319
  413POPI   D2A 6452  16.494  11.361   9.487  0.3361  0.1816 -0.0201
  413POPI   C3A 6453  16.869  11.094   9.417 -0.2605  0.1742 -0.2071
  413POPI   C4A 6454  17.037  11.083   9.025 -0.2099  0.1031  0.0048
  413POPI   C1B 6455  15.694  12.059  10.012  0.0168  0.0271  0.0466
  413POPI   C2B 6456  15.386  12.397   9.896 -0.2279 -0.1439  0.1039
  413POPI   C3B 6457  15.086  12.439   9.523  0.0173 -0.2551  0.1610
  413POPI   C4B 6458  15.060  12.261   9.099  0.3744 -0.0975 -0.2114
  414POPI    C1 6459   2.114  10.996  10.264  0.0578 -0.0592  0.0602
  414POPI    C2 6460   1.720  10.941  10.307 -0.0027  0.2878 -0.0232
  414POPI    C3 6461   1.936  11.087  10.611  0.0696  0.0622  0.0350
  414POPI   PO4 6462   2.064  11.117   9.980 -0.0080 -0.1566  0.1235
  414POPI   GL1 6463   1.874  11.123   9.621 -0.0235 -0.2649 -0.0080
  414POPI   GL2 6464   1.963  11.407   9.460  0.2015 -0.1475 -0.1734
  414POPI   C1A 6465   1.878  10.680   9.561  0.0853 -0.0254 -0.0725
  414POPI   D2A 6466   2.038  10.483   9.233 -0.3148 -0.2893 -0.2700
  414POPI   C3A 6467   2.250  10.554   8.788  0.0477  0.2497  0.1248
  414POPI   C4A 6468   2.438  10.321   8.440 -0.0527 -0.2506 -0.0909
  414POPI   C1B 6469   1.900  11.616   9.187 -0.1422  0.1559 -0.0449
  414POPI   C2B 6470   1.899  11.752   8.790 -0.0609 -0.1001 -0.1627
  414POPI   C3B 6471   1.696  11.652   8.488 -0.0788  0.0234  0.0782
  414POPI   C4B 6472   1.406  11.626   8.203  0.2005  0.1128  0.0069
  415POPI    C1 6473  10.675   6.602  10.239 -0.0280 -0.1646  0.1192
  415POPI    C2 6474  10.738   6.913  10.482  0.1434 -0.1554  0.0644
  415POPI    C3 6475  10.440   6.658  10.557 -0.0616  0.0771  0.0545
  415POPI   PO4 6476  10.731   6.691  10.009 -0.1068  0.0673 -0.0913
  415POPI   GL1 6477  10.936   6.851   9.656  0.0494  0.2307  0.1705
  415POPI   GL2 6478  11.019   6.607   9.442  0.1373 -0.2957 -0.0776
  415POPI   C1A 6479  10.810   7.153   9.295  0.3390 -0.0827 -0.0922
  415POPI   D2A 6480  10.847   7.264   8.913  0.3175  0.2052  0.3457
  415POPI   C3A 6481  10.768   7.702   8.609  0.1403 -0.1011 -0.0933
  415POPI   C4A 6482  10.831   7.905   8.194  0.2016  0.2370  0.1280
  415POPI   C1B 6483  11.084   6.733   9.131 -0.1079 -0.2925 -0.0826
  415POPI   C2B 6484  10.953   6.760   8.722 -0.1321  0.0043  0.3267
  415POPI   C3B 6485  10.814   6.558   8.343 -0.0248  0.0018 -0.2443
  415POPI   C4B 6486  10.760   6.206   8.096  0.2712 -0.0598 -0.1964
  416POPI    C1 6487   2.497  12.646  10.168 -0.0177 -0.0935 -0.0116
  416POPI    C2 6488   2.830  12.644  10.390 -0.0682  0.4118  0.0800
  416POPI    C3 6489   2.485  12.515  10.546  0.0458  0.0464  0.0394
  416POPI   PO4 6490   2.479  12.887  10.102  0.0537  0.1144  0.1949
  416POPI   GL1 6491   2.322  12.975   9.717 -0.0403 -0.0682 -0.0938
  416POPI   GL2 6492   2.030  12.953   9.672  0.1992  0.2646 -0.0871
  416POPI   C1A 6493   2.261  13.032   9.249 -0.1540  0.0136  0.0327
  416POPI   D2A 6494   2.074  13.356   8.959 -0.1477 -0.0673  0.3961
  416POPI   C3A 6495   1.986  13.851   8.949  0.0071  0.0792 -0.4264
  416POPI   C4A 6496   1.906  14.340   8.806 -0.3225  0.0390  0.1233
  416POPI   C1B 6497   1.720  12.919   9.304  0.1437 -0.2404 -0.2271
  416POPI   C2B 6498   1.605  12.669   8.848  0.3287 -0.1425 -0.1429
  416POPI   C3B 6499   1.502  12.558   8.375  0.1278  0.0672  0.2034
  416POPI   C4B 6500   1.148  12.624   8.154 -0.1363  0.1245  0.0132
  417POPI    C1 6501  18.394   1.844  10.715 -0.1471 -0.0004 -0.0173
  417POPI    C2 6502  18.553   1.605  10.993  0.1378 -0.0476 -0.2171
  417POPI    C3 6503  18.429   1.972  11.092  0.0301 -0.1454  0.0167
  417POPI   PO4 6504  18.545   1.749  10.447  0.2203 -0.0978  0.0277
  417POPI   GL1 6505  18.685   2.045  10.119 -0.2139  0.0142  0.5242
  417POPI   GL2 6506  18.959   2.095   9.927  0.4171  0.0326  0.1862
  417POPI   C1A 6507  18.363   2.285   9.772  0.0367  0.0032  0.2348
  417POPI   D2A 6508  18.307   2.359   9.396 -0.2616  0.3291  0.1321
  417POPI   C3A 6509  17.836   2.392   9.314 -0.2314  0.1619  0.1836
  417POPI   C4A 6510  17.444   2.359   9.459  0.2701 -0.0537 -0.1005
  417POPI   C1B 6511  18.888   2.175   9.497  0.0961  0.1755  0.0924
  417POPI   C2B 6512  18.927   2.293   9.122  0.3595 -0.0543  0.1226
  417POPI   C3B 6513  18.992   1.927   8.871 -0.1439 -0.3290 -0.0669
  417POPI   C4B 6514  19.427   1.809   8.748 -0.5001  0.1284  0.1196
  418POPI    C1 6515   3.300  17.452  10.090 -0.2183  0.1703  0.0621
  418POPI    C2 6516   3.406  17.230  10.405 -0.2339  0.0914  0.0122
  418POPI    C3 6517   3.201  17.065  10.104 -0.0080  0.1064 -0.1524
  418POPI   PO4 6518   3.530  17.550   9.976 -0.2471 -0.2632  0.1427
  418POPI   GL1 6519   3.875  17.408   9.808 -0.1093 -0.1967 -0.1350
  418POPI   GL2 6520   3.676  17.053   9.886  0.2741  0.1551  0.4393
  418POPI   C1A 6521   3.755  17.619   9.384 -0.0372 -0.0913  0.0050
  418POPI   D2A 6522   3.755  17.504   8.946 -0.0250 -0.1393 -0.0866
  418POPI   C3A 6523   3.637  17.538   8.477 -0.1791 -0.1041  0.2012
  418POPI   C4A 6524   3.387  17.520   8.181  0.3453 -0.0501 -0.2556
  418POPI   C1B 6525   3.653  17.060   9.422  0.1886  0.3093  0.0391
  418POPI   C2B 6526   3.446  17.083   9.029 -0.1859 -0.1236 -0.1663
  418POPI   C3B 6527   3.371  17.114   8.562 -0.1048 -0.0332 -0.0589
  418POPI   C4B 6528   3.111  16.973   8.204 -0.1126 -0.2933 -0.0586
  419POPI    C1 6529   8.936   8.481  10.614  0.0068 -0.2222  0.0161
  419POPI    C2 6530   9.179   8.364  10.909  0.0306 -0.2442 -0.0122
  419POPI    C3 6531   8.863   8.596  10.991  0.0855 -0.1797  0.0184
  419POPI   PO4 6532   9.152   8.359  10.448 -0.2936  0.2138  0.2441
  419POPI   GL1 6533   9.190   8.278  10.054 -0.0203  0.4595 -0.1265
  419POPI   GL2 6534   9.505   8.299   9.897  0.1534 -0.0438  0.2286
  419POPI   C1A 6535   9.075   8.335   9.677 -0.0936  0.0339 -0.0634
  419POPI   D2A 6536   9.111   8.228   9.371  0.0184  0.2804 -0.0612
  419POPI   C3A 6537   9.271   8.337   8.991  0.0379  0.1547  0.2359
  419POPI   C4A 6538   9.465   8.115   8.623  0.1050 -0.2890 -0.2648
  419POPI   C1B 6539   9.794   8.310   9.615  0.0723  0.0777 -0.0053
  419POPI   C2B 6540   9.756   8.234   9.173 -0.1367  0.0575 -0.2055
  419POPI   C3B 6541   9.892   8.347   8.727  0.1203 -0.1724 -0.1538
  419POPI   C4B 6542  10.278   8.518   8.479  0.1233  0.3787  0.0356
  420POPI    C1 6543   9.929   0.603  10.026 -0.2034 -0.2081 -0.0815
  420POPI    C2 6544   9.661   0.344  10.170 -0.2714  0.0075  0.1856
  420POPI    C3 6545   9.561   0.728  10.117 -0.0419  0.0717  0.2062
  420POPI   PO4 6546  10.119   0.444   9.891  0.3555 -0.0104  0.0460
  420POPI   GL1 6547  10.200   0.333   9.485 -0.0081 -0.1186 -0.0308
  420POPI   GL2 6548  10.048   0.593   9.396  0.2155  0.0913 -0.3950
  420POPI   C1A 6549  10.450   0.065   9.133 -0.3195 -0.0166 -0.2516
  420POPI   D2A 6550  10.476  -0.206   8.712  0.1448  0.0350  0.2075
  420POPI   C3A 6551  10.716  -0.274   8.353 -0.1080  0.2726 -0.2811
  420POPI   C4A 6552  11.039  -0.484   8.224  0.1382 -0.0835 -0.0346
  420POPI   C1B 6553  10.020   0.770   8.984 -0.1169 -0.0308  0.0186
  420POPI   C2B 6554  10.052   0.847   8.600 -0.0691  0.2846  0.0728
  420POPI   C3B 6555  10.153   0.633   8.239 -0.0309 -0.0251 -0.1428
  420POPI   C4B 6556  10.316   0.430   7.855  0.2266  0.1106 -0.0785
  421POPI    C1 6557   0.336   8.956  10.445 -0.1224  0.2103 -0.0238
  421POPI    C2 6558   0.199   8.855  10.806  0.1814  0.0608  0.0530
  421POPI    C3 6559   0.341   8.574  10.561 -0.0664  0.1553 -0.2043
  421POPI   PO4 6560   0.180   9.147  10.360  0.3100 -0.0350 -0.0194
  421POPI   GL1 6561  -0.074   9.258  10.018  0.1333 -0.1390  0.0684
  421POPI   GL2 6562   0.013   9.555   9.981  0.2812  0.0751  0.2702
  421POPI   C1A 6563  -0.013   9.009   9.713  0.0478  0.2576  0.1495
  421POPI   D2A 6564  -0.258   8.845   9.421 -0.1971  0.4490  0.1609
  421POPI   C3A 6565  -0.623   8.613   9.491  0.0468  0.1452  0.0166
  421POPI   C4A 6566  -0.989   8.520   9.379 -0.6711  0.2144  0.0243
  421POPI   C1B 6567  -0.344   9.416   9.631  0.0481  0.0944 -0.0144
  421POPI   C2B 6568  -0.336   9.315   9.260  0.0870  0.0894  0.0603
  421POPI   C3B 6569  -0.510   9.185   8.891 -0.1904 -0.5022  0.2415
  421POPI   C4B 6570  -0.430   8.853   8.891 -0.0953 -0.3499 -0.1461
  422POPI    C1 6571   1.152  14.684  10.047  0.0095  0.1255 -0.2102
  422POPI    C2 6572   1.418  14.673  10.346 -0.1641  0.2025 -0.0512
  422POPI    C3 6573   1.425  14.392  10.062 -0.0054  0.1220  0.0313
  422POPI   PO4 6574   1.059  14.952  10.155  0.1251 -0.3397  0.2797
  422POPI   GL1 6575   0.956  15.383   9.892 -0.4829  0.1501  0.1335
  422POPI   GL2 6576   1.231  15.411   9.850  0.1689 -0.1503  0.1416
  422POPI   C1A 6577   0.807  15.453   9.543 -0.6328 -0.0152 -0.0301
  422POPI   D2A 6578   0.711  15.339   9.105  0.3434 -0.0084 -0.5039
  422POPI   C3A 6579   0.312  15.371   8.995 -0.2155 -0.2261  0.0009
  422POPI   C4A 6580   0.268  15.270   8.618  0.2225  0.2585 -0.3432
  422POPI   C1B 6581   1.382  15.393   9.526 -0.0048 -0.2336  0.2577
  422POPI   C2B 6582   1.549  15.403   9.084  0.1379  0.0433 -0.0633
  422POPI   C3B 6583   1.491  15.498   8.827  0.2411 -0.2281  0.1562
  422POPI   C4B 6584   1.286  15.621   8.388  0.1638 -0.0042 -0.0838
  423DPPI    C1 6585  11.818   2.318   9.928  0.0565  0.1118 -0.0660
  423DPPI    C2 6586  12.201   2.201   9.936 -0.0853 -0.3657  0.0503
  423DPPI    C3 6587  12.016   2.307  10.275 -0.2058 -0.6543  0.0772
  423DPPI   PO4 6588  11.665   2.089   9.767 -0.0856  0.0526 -0.2179
  423DPPI   GL1 6589  11.555   2.203   9.461 -0.0555  0.2906  0.3319
  423DPPI   GL2 6590  11.789   2.470   9.410 -0.1751 -0.0392  0.3381
  423DPPI   C1A 6591  11.355   2.299   9.173 -0.0916  0.0333  0.0342
  423DPPI   C2A 6592  11.539   2.379   8.746  0.0213 -0.0937 -0.2572
  423DPPI   C3A 6593  11.532   2.563   8.306 -0.0409 -0.2207 -0.0866
  423DPPI   C4A 6594  11.661   2.456   7.943 -0.2628  0.0787 -0.2162
  423DPPI   C1B 6595  11.768   2.686   9.165 -0.1619 -0.0728  0.0319
  423DPPI   C2B 6596  11.956   2.670   8.742  0.2499 -0.0341  0.2749
  423DPPI   C3B 6597  12.053   2.610   8.257 -0.2347 -0.1123 -0.5038
  423DPPI   C4B 6598  12.160   2.574   7.812 -0.1623 -0.1307 -0.0553
  424DPPI    C1 6599   0.479   5.435  10.880 -0.0220  0.0096 -0.1042
  424DPPI    C2 6600   0.410   5.805  10.744 -0.0591 -0.1037 -0.4026
  424DPPI    C3 6601   0.108   5.546  10.779 -0.1037  0.0135  0.1919
  424DPPI   PO4 6602   0.680   5.341  10.603 -0.0381  0.1919  0.0657
  424DPPI   GL1 6603   0.837   5.426  10.192 -0.0096  0.0618 -0.0122
  424DPPI   GL2 6604   1.107   5.640  10.097 -0.0109  0.2464  0.0752
  424DPPI   C1A 6605   0.501   5.170  10.033  0.0764 -0.1070  0.0714
  424DPPI   C2A 6606   0.433   5.201   9.468 -0.0508 -0.2016 -0.0314
  424DPPI   C3A 6607   0.320   5.272   9.030 -0.0155  0.3133  0.2847
  424DPPI   C4A 6608   0.414   5.306   8.593  0.2885 -0.1320 -0.1420
  424DPPI   C1B 6609   0.967   5.774   9.674 -0.0987 -0.3313  0.3113
  424DPPI   C2B 6610   1.074   5.881   9.303  0.2819 -0.2737  0.0903
  424DPPI   C3B 6611   0.955   6.049   8.895 -0.0639  0.0171  0.4681
  424DPPI   C4B 6612   0.844   6.323   8.594 -0.0158 -0.1863  0.3485
  425DPPI    C1 6613   9.330  13.036  10.100  0.0798 -0.4266 -0.0742
  425DPPI    C2 6614   9.510  12.852  10.407 -0.1059 -0.1865  0.1839
  425DPPI    C3 6615   9.393  13.233  10.442 -0.0008 -0.1099 -0.2382
  425DPPI   PO4 6616   9.553  13.039   9.867 -0.0211  0.0027  0.2145
  425DPPI   GL1 6617   9.647  13.026   9.434  0.0319  0.0522  0.3249
  425DPPI   GL2 6618   9.988  12.945   9.647 -0.3085  0.6607  0.1489
  425DPPI   C1A 6619   9.923  13.337   9.173  0.0300  0.3392  0.2086
  425DPPI   C2A 6620   9.806  13.632   8.835 -0.1723  0.0566 -0.2667
  425DPPI   C3A 6621  10.092  13.668   8.591 -0.0414 -0.1112  0.2032
  425DPPI   C4A 6622  10.244  13.684   8.224 -0.0648  0.0776 -0.4531
  425DPPI   C1B 6623  10.285  13.065   9.365 -0.1562  0.2403 -0.3959
  425DPPI   C2B 6624  10.357  13.084   8.875  0.2244  0.2475 -0.0137
  425DPPI   C3B 6625  10.321  13.174   8.398 -0.0739  0.0781 -0.2218
  425DPPI   C4B 6626  10.508  13.324   8.140  0.0385 -0.1559  0.2872
  426DPPI    C1 6627   7.851  17.399   9.813 -0.2440 -0.0546  0.0820
  426DPPI    C2 6628   7.867  17.020   9.685  0.1353 -0.0695  0.1635
  426DPPI    C3 6629   7.737  17.102  10.054 -0.1796 -0.0965  0.0609
  426DPPI   PO4 6630   7.788  17.520   9.511  0.2017  0.2795 -0.0766
  426DPPI   GL1 6631   7.735  17.212   9.210 -0.0327  0.0856  0.1390
  426DPPI   GL2 6632   7.470  17.112   9.095 -0.0697 -0.2351 -0.0790
  426DPPI   C1A 6633   7.816  17.459   8.835  0.1208  0.2289  0.2046
  426DPPI   C2A 6634   7.948  17.466   8.387  0.3272 -0.1793  0.0483
  426DPPI   C3A 6635   7.972  17.375   8.024 -0.1114  0.1980 -0.0152
  426DPPI   C4A 6636   7.833  17.434   7.636 -0.0646 -0.0435 -0.0712
  426DPPI   C1B 6637   7.515  17.084   8.640 -0.3532 -0.0675 -0.0171
  426DPPI   C2B 6638   7.589  17.181   8.247  0.1134 -0.0670  0.2761
  426DPPI   C3B 6639   7.436  17.234   7.861 -0.2456  0.1588 -0.0745
  426DPPI   C4B 6640   7.375  17.294   7.401 -0.0011 -0.1367 -0.0066
  427DPPI    C1 6641  11.470  10.723  10.366  0.1934  0.0355 -0.3750
  427DPPI    C2 6642  11.333  10.568  10.023 -0.1159  0.0188 -0.2471
  427DPPI    C3 6643  11.076  10.695  10.302  0.1320 -0.0503  0.0173
  427DPPI   PO4 6644  11.704  10.842  10.226 -0.1796  0.0501 -0.5377
  427DPPI   GL1 6645  11.717  10.775   9.837 -0.1902 -0.1280  0.0135
  427DPPI   GL2 6646  11.746  10.441   9.761  0.2238 -0.1547 -0.0319
  427DPPI   C1A 6647  12.019  10.910   9.459 -0.0337  0.4253 -0.0048
  427DPPI   C2A 6648  12.428  10.699   9.285 -0.0170  0.1859 -0.2805
  427DPPI   C3A 6649  12.527  10.237   9.214  0.0750 -0.2124  0.0497
  427DPPI   C4A 6650  12.623   9.869   9.076  0.0496  0.2025  0.1844
  427DPPI   C1B 6651  11.997  10.411   9.475 -0.0684 -0.2261  0.2280
  427DPPI   C2B 6652  12.107  10.455   8.987  0.0142 -0.1108 -0.0694
  427DPPI   C3B 6653  12.288  10.361   8.584 -0.0366 -0.0440  0.0426
  427DPPI   C4B 6654  12.317  10.146   8.244 -0.0316 -0.1467  0.0954
  428DPPI    C1 6655   1.066  11.362  10.146 -0.1411  0.1647 -0.0066
  428DPPI    C2 6656   1.071  10.996   9.985 -0.2146  0.2585 -0.2254
  428DPPI    C3 6657   1.210  11.053  10.356  0.1702  0.0791 -0.3367
  428DPPI   PO4 6658   1.087  11.536   9.951  0.3641 -0.1192 -0.1931
  428DPPI   GL1 6659   1.175  11.745   9.610 -0.4592 -0.4383  0.0393
  428DPPI   GL2 6660   1.476  11.504   9.495  0.2741 -0.0833  0.1816
  428DPPI   C1A 6661   1.222  12.096   9.390  0.0159 -0.1864 -0.1481
  428DPPI   C2A 6662   1.140  12.445   9.107  0.0515 -0.1526 -0.1677
  428DPPI   C3A 6663   1.086  12.430   8.665  0.5527  0.0348  0.0157
  428DPPI   C4A 6664   0.698  12.567   8.436  0.0034  0.1711 -0.1871
  428DPPI   C1B 6665   1.405  11.636   9.019  0.0234  0.2830  0.1937
  428DPPI   C2B 6666   1.276  11.553   8.706  0.0582 -0.1508 -0.2203
  428DPPI   C3B 6667   0.986  11.722   8.386  0.0741 -0.0183 -0.1239
  428DPPI   C4B 6668   0.681  11.951   8.475  0.0558 -0.0347  0.2811
  429DPPI    C1 6669   5.832   9.749  10.506 -0.0740 -0.0530  0.1984
  429DPPI    C2 6670   5.749  10.101  10.677 -0.1724 -0.0238  0.0918
  429DPPI    C3 6671   5.898   9.802  10.897 -0.2609  0.0257  0.2205
  429DPPI   PO4 6672   5.959   9.859  10.267  0.0781  0.1650 -0.1248
  429DPPI   GL1 6673   5.736   9.999   9.930 -0.0800  0.1219 -0.0618
  429DPPI   GL2 6674   5.983   9.893   9.720 -0.3902 -0.0125 -0.2194
  429DPPI   C1A 6675   5.557  10.132   9.471  0.0348  0.2013 -0.1212
  429DPPI   C2A 6676   5.442  10.262   9.053 -0.3535  0.0171 -0.2513
  429DPPI   C3A 6677   5.370  10.433   8.535 -0.0203 -0.1649 -0.2322
  429DPPI   C4A 6678   5.033  10.442   8.135 -0.0988  0.0708  0.0254
  429DPPI   C1B 6679   5.784   9.653   9.516  0.3373 -0.2436 -0.1769
  429DPPI   C2B 6680   5.759   9.579   9.088  0.0140  0.0255  0.1468
  429DPPI   C3B 6681   5.714   9.521   8.633  0.2043  0.0414 -0.4416
  429DPPI   C4B 6682   5.843   9.794   8.329 -0.0365 -0.1009 -0.4495
  430DPPI    C1 6683  14.991  11.372  10.360  0.0279 -0.0384  0.1293
  430DPPI    C2 6684  15.177  11.494  10.692  0.0639 -0.3162  0.2140
  430DPPI    C3 6685  14.794  11.381  10.708 -0.0108 -0.0837  0.1088
  430DPPI   PO4 6686  14.949  11.603  10.228 -0.0800 -0.1166  0.0975
  430DPPI   GL1 6687  14.764  11.683   9.852  0.1149  0.0270 -0.3262
  430DPPI   GL2 6688  15.079  11.472   9.798  0.1990 -0.2662 -0.0439
  430DPPI   C1A 6689  14.931  11.637   9.326  0.2078 -0.3254 -0.0727
  430DPPI   C2A 6690  14.935  11.299   9.008 -0.3984  0.2698  0.1178
  430DPPI   C3A 6691  15.195  11.234   8.723  0.0509  0.0873  0.0378
  430DPPI   C4A 6692  15.343  11.177   8.284  0.1879 -0.1394 -0.0472
  430DPPI   C1B 6693  15.344  11.390   9.330  0.2758 -0.3290  0.1072
  430DPPI   C2B 6694  15.563  11.305   9.098  0.0759 -0.3575 -0.1444
  430DPPI   C3B 6695  15.716  11.125   8.733  0.0023 -0.0415  0.0623
  430DPPI   C4B 6696  16.135  11.274   8.662 -0.0358  0.0867 -0.1505
  431DPPI    C1 6697   0.883   7.200  10.577 -0.0219 -0.1544  0.0405
  431DPPI    C2 6698   1.009   6.854  10.734 -0.0153 -0.1028  0.1499
  431DPPI    C3 6699   1.150   7.201  10.875 -0.0617 -0.0537  0.0763
  431DPPI   PO4 6700   0.559   7.171  10.512 -0.2218 -0.2196 -0.0001
  431DPPI   GL1 6701   0.397   7.178  10.180 -0.2371 -0.0995 -0.2244
  431DPPI   GL2 6702   0.163   7.062  10.266 -0.0435  0.0596 -0.1414
  431DPPI   C1A 6703   0.466   7.474   9.728  0.2390  0.0472 -0.4366
  431DPPI   C2A 6704   0.336   7.881   9.548  0.0978  0.2699  0.0355
  431DPPI   C3A 6705  -0.028   8.021   9.420 -0.1040 -0.2813  0.1447
  431DPPI   C4A 6706  -0.317   8.214   9.429 -0.1217 -0.0729  0.0999
  431DPPI   C1B 6707   0.157   7.021   9.803 -0.0247  0.0237 -0.2781
  431DPPI   C2B 6708   0.242   7.111   9.291 -0.2154  0.1358 -0.2473
  431DPPI   C3B 6709   0.226   6.874   8.938  0.0084 -0.2486  0.1451
  431DPPI   C4B 6710   0.256   6.528   8.631 -0.1138 -0.0558  0.0850
  432DPPI    C1 6711  18.385  15.151  10.496  0.1044  0.1047 -0.0100
  432DPPI    C2 6712  18.079  14.950  10.658  0.2577 -0.3166 -0.2285
  432DPPI    C3 6713  18.446  14.918  10.815  0.1791  0.2787  0.1042
  432DPPI   PO4 6714  18.344  15.107  10.268 -0.4271 -0.0247  0.0370
  432DPPI   GL1 6715  18.216  14.978   9.845 -0.0611 -0.3055  0.3239
  432DPPI   GL2 6716  18.321  15.270   9.721 -0.0625 -0.0210  0.3073
  432DPPI   C1A 6717  18.404  14.859   9.445 -0.2216 -0.0998  0.1760
  432DPPI   C2A 6718  18.375  14.885   9.008 -0.3277  0.1534 -0.0092
  432DPPI   C3A 6719  18.737  14.786   8.581 -0.0308  0.0243 -0.1580
  432DPPI   C4A 6720  19.058  14.896   8.246  0.0710 -0.4228 -0.1221
  432DPPI   C1B 6721  18.509  15.341   9.270  0.1023  0.0247 -0.3157
  432DPPI   C2B 6722  18.419  15.352   8.849  0.0180 -0.0091 -0.1022
  432DPPI   C3B 6723  18.363  15.073   8.455  0.2178 -0.2351 -0.0337
  432DPPI   C4B 6724  18.594  14.976   8.094 -0.0693  0.0898  0.1399
  433DPPI    C1 6725   6.484   6.690  10.029  0.0042 -0.1853 -0.2987
  433DPPI    C2 6726   6.581   6.524  10.380 -0.4011  0.1557 -0.0161
  433DPPI    C3 6727   6.517   6.293  10.060 -0.0010 -0.1571  0.1226
  433DPPI   PO4 6728   6.680   6.834   9.981 -0.0532  0.0722  0.2563
  433DPPI   GL1 6729   6.825   7.057   9.632 -0.4312  0.1177  0.0640
  433DPPI   GL2 6730   6.857   7.375   9.509 -0.0721  0.1343 -0.1368
  433DPPI   C1A 6731   6.732   6.995   9.201 -0.0648 -0.0929  0.0863
  433DPPI   C2A 6732   6.845   7.263   8.923  0.0055  0.2510 -0.4006
  433DPPI   C3A 6733   6.839   6.958   8.530  0.2634 -0.1101  0.0283
  433DPPI   C4A 6734   6.897   6.763   8.156 -0.5064 -0.0588  0.1916
  433DPPI   C1B 6735   6.818   7.708   9.126 -0.1477 -0.0855  0.2689
  433DPPI   C2B 6736   6.758   7.853   8.793 -0.1580 -0.1163 -0.1001
  433DPPI   C3B 6737   6.771   7.960   8.412  0.0352 -0.0520 -0.1334
  433DPPI   C4B 6738   6.649   8.110   8.066 -0.0994  0.0732  0.0136
  434DPPI    C1 6739  10.954   8.645  11.020 -0.0250  0.0493  0.1306
  434DPPI    C2 6740  10.631   8.485  11.194  0.0265  0.0896  0.2646
  434DPPI    C3 6741  10.699   8.878  11.223 -0.0656  0.1280 -0.0089
  434DPPI   PO4 6742  10.919   8.507  10.727 -0.0810  0.0610 -0.2446
  434DPPI   GL1 6743  11.135   8.556  10.391  0.1201  0.0136  0.3873
  434DPPI   GL2 6744  11.246   8.784  10.241 -0.1997 -0.2816 -0.0125
  434DPPI   C1A 6745  11.230   8.318  10.034 -0.0087  0.0785  0.0571
  434DPPI   C2A 6746  11.466   7.894   9.769 -0.1434 -0.3160  0.0001
  434DPPI   C3A 6747  11.606   7.689   9.501  0.2182  0.1924  0.1375
  434DPPI   C4A 6748  11.628   7.608   9.074  0.3205 -0.0474  0.1133
  434DPPI   C1B 6749  11.126   8.750   9.797  0.0506  0.0651  0.2944
  434DPPI   C2B 6750  11.193   8.645   9.339 -0.0849 -0.0213  0.0519
  434DPPI   C3B 6751  11.188   8.417   8.994 -0.1610 -0.2541  0.0910
  434DPPI   C4B 6752  10.900   8.155   8.700  0.0057 -0.1700 -0.1737
  435DPPI    C1 6753   1.160  11.958  10.566  0.1266 -0.0028 -0.1586
  435DPPI    C2 6754   1.559  11.935  10.558  0.1388  0.0630  0.1545
  435DPPI    C3 6755   1.352  11.725  10.828 -0.0450 -0.0333 -0.0587
  435DPPI   PO4 6756   1.091  11.892  10.322 -0.3067  0.0038  0.0690
  435DPPI   GL1 6757   0.696  11.764  10.041 -0.2651 -0.2231 -0.0930
  435DPPI   GL2 6758   0.778  11.890   9.808 -0.0537 -0.3368 -0.0255
  435DPPI   C1A 6759   0.362  11.668   9.722 -0.0133 -0.2338 -0.0326
  435DPPI   C2A 6760   0.315  11.539   9.348 -0.0517  0.2068 -0.2642
  435DPPI   C3A 6761   0.141  11.415   8.906  0.1193 -0.0598  0.1610
  435DPPI   C4A 6762  -0.269  11.408   8.673 -0.1098  0.3169  0.0408
  435DPPI   C1B 6763   0.709  11.955   9.369  0.3056  0.1976  0.0434
  435DPPI   C2B 6764   0.771  12.110   8.978 -0.1902 -0.2261  0.0154
  435DPPI   C3B 6765   1.050  11.961   8.851 -0.4018  0.2043  0.1788
  435DPPI   C4B 6766   1.469  12.076   8.747  0.2165  0.1375  0.0333
  436DPPI    C1 6767   0.486  17.289  10.351  0.5998  0.2857  0.0885
  436DPPI    C2 6768   0.350  17.665  10.346  0.2352  0.1554 -0.1486
  436DPPI    C3 6769   0.243  17.417  10.641  0.0102  0.0755 -0.2940
  436DPPI   PO4 6770   0.388  17.215  10.106 -0.0690 -0.1714 -0.1136
  436DPPI   GL1 6771   0.398  17.069   9.715 -0.1758 -0.1620  0.1572
  436DPPI   GL2 6772   0.561  16.763   9.753 -0.0923  0.1542 -0.3207
  436DPPI   C1A 6773   0.005  17.049   9.579 -0.1462 -0.4136 -0.1828
  436DPPI   C2A 6774  -0.296  17.082   9.353 -0.3268 -0.0084  0.1445
  436DPPI   C3A 6775  -0.446  17.042   8.903 -0.0342 -0.0741  0.2035
  436DPPI   C4A 6776  -0.298  16.957   8.424  0.1101  0.0993 -0.1475
  436DPPI   C1B 6777   0.469  16.849   9.277 -0.0299  0.1811  0.0644
  436DPPI   C2B 6778   0.729  16.815   8.933 -0.1049 -0.0356  0.1523
  436DPPI   C3B 6779   0.497  16.689   8.478  0.0017  0.1993 -0.1790
  436DPPI   C4B 6780   0.598  16.879   8.208  0.1504  0.0152  0.1665
  437DPPI    C1 6781   9.255  18.321   9.960  0.0063  0.0895 -0.0404
  437DPPI    C2 6782   9.477  18.436  10.273 -0.0632  0.3051 -0.0682
  437DPPI    C3 6783   9.089  18.351  10.323 -0.0501  0.2386 -0.0778
  437DPPI   PO4 6784   9.293  18.593   9.831 -0.2664  0.2703 -0.1606
  437DPPI   GL1 6785   9.200  18.608   9.413  0.3924 -0.0094  0.0181
  437DPPI   GL2 6786   9.122  18.970   9.484 -0.5114 -0.4210 -0.0222
  437DPPI   C1A 6787   9.255  18.552   8.943 -0.5966 -0.1975 -0.2250
  437DPPI   C2A 6788   9.392  18.665   8.600 -0.0221  0.1349  0.4181
  437DPPI   C3A 6789   9.451  18.727   8.247  0.2514  0.0978 -0.1626
  437DPPI   C4A 6790   9.399  18.647   7.777 -0.0583  0.1060 -0.0949
  437DPPI   C1B 6791   9.462  19.093   9.156  0.2367  0.0063  0.1102
  437DPPI   C2B 6792   9.658  19.089   8.714  0.0399 -0.0711  0.3110
  437DPPI   C3B 6793   9.655  19.194   8.261 -0.1348  0.0162 -0.2843
  437DPPI   C4B 6794   9.551  19.185   7.778 -0.1515  0.1019  0.0297
  438DPPI    C1 6795   3.670   3.354  10.530  0.1289  0.0309  0.1263
  438DPPI    C2 6796   3.665   3.191  10.895  0.1293  0.0776  0.1473
  438DPPI    C3 6797   3.413   3.488  10.805 -0.0811 -0.1376  0.0147
  438DPPI   PO4 6798   3.703   3.126  10.308  0.3459  0.1148 -0.0307
  438DPPI   GL1 6799   3.619   3.150   9.866 -0.2384 -0.1708 -0.1709
  438DPPI   GL2 6800   3.628   2.847   9.938  0.3726 -0.2505  0.1020
  438DPPI   C1A 6801   3.749   3.385   9.523  0.3156  0.4046 -0.0349
  438DPPI   C2A 6802   4.006   3.436   9.074 -0.3293  0.1330 -0.1864
  438DPPI   C3A 6803   4.225   3.671   8.807 -0.2555 -0.0920  0.0408
  438DPPI   C4A 6804   4.443   4.039   8.679 -0.0221  0.1383  0.0816
  438DPPI   C1B 6805   3.512   2.732   9.418  0.0195 -0.0979 -0.1472
  438DPPI   C2B 6806   3.617   2.947   9.096 -0.0263 -0.0016 -0.0230
  438DPPI   C3B 6807   3.877   3.021   8.851 -0.1849  0.2193  0.1431
  438DPPI   C4B 6808   3.994   3.333   8.499 -0.3119  0.0320  0.2161
  439DPPI    C1 6809  11.711   6.907  10.687 -0.0749  0.1671  0.0895
  439DPPI    C2 6810  12.070   6.753  10.772 -0.1512 -0.0265  0.0677
  439DPPI    C3 6811  11.986   7.132  10.870  0.0258 -0.0096  0.1577
  439DPPI   PO4 6812  11.675   6.843  10.377 -0.2543  0.1964  0.0041
  439DPPI   GL1 6813  11.742   7.091  10.079 -0.0707 -0.2633 -0.0344
  439DPPI   GL2 6814  11.495   7.302  10.087 -0.3800  0.3808  0.0274
  439DPPI   C1A 6815  11.936   7.165   9.686 -0.0177 -0.2731  0.3008
  439DPPI   C2A 6816  11.836   7.192   9.131  0.1889  0.0423  0.0470
  439DPPI   C3A 6817  11.995   7.049   8.684 -0.2269  0.1726  0.2603
  439DPPI   C4A 6818  12.111   7.458   8.550 -0.4029  0.0774 -0.1565
  439DPPI   C1B 6819  11.353   7.129   9.659 -0.1107 -0.2122 -0.3132
  439DPPI   C2B 6820  11.318   7.172   9.210 -0.4903 -0.2156 -0.1792
  439DPPI   C3B 6821  11.409   7.275   8.754  0.0753 -0.0332 -0.4517
  439DPPI   C4B 6822  11.589   7.386   8.460 -0.1795 -0.0200 -0.2084
  440DPPI    C1 6823   9.646   9.054  10.604 -0.0338 -0.1819  0.2148
  440DPPI    C2 6824   9.477   9.345  10.821  0.0813  0.0092  0.0513
  440DPPI    C3 6825   9.784   9.136  10.970  0.0507  0.0259  0.1378
  440DPPI   PO4 6826   9.685   8.933  10.381 -0.0015 -0.0281  0.0145
  440DPPI   GL1 6827   9.630   9.056  10.010  0.1465 -0.0807  0.4382
  440DPPI   GL2 6828   9.734   9.347   9.818 -0.0690  0.0104  0.1144
  440DPPI   C1A 6829   9.450   8.743   9.699  0.2125 -0.1140 -0.0743
  440DPPI   C2A 6830   9.250   8.684   9.320  0.0550  0.0737  0.0938
  440DPPI   C3A 6831   9.088   8.754   8.850  0.3013 -0.1048 -0.3603
  440DPPI   C4A 6832   8.986   8.845   8.425  0.2441  0.3844  0.3092
  440DPPI   C1B 6833   9.895   9.405   9.561  0.0285  0.2115  0.2949
  440DPPI   C2B 6834  10.045   9.440   9.160 -0.0522  0.1805 -0.2514
  440DPPI   C3B 6835   9.970   9.428   8.788  0.0725  0.2404 -0.3678
  440DPPI   C4B 6836   9.849   9.540   8.411 -0.1180 -0.1909  0.2192
  441DPPI    C1 6837  14.755   2.535  10.675 -0.1423 -0.0848 -0.0957
  441DPPI    C2 6838  14.884   2.613  11.046 -0.1197  0.1592 -0.1526
  441DPPI    C3 6839  14.514   2.718  10.937 -0.1931 -0.0835 -0.1433
  441DPPI   PO4 6840  14.969   2.551  10.580 -0.0215 -0.2072 -0.2075
  441DPPI   GL1 6841  15.219   2.348  10.194  0.0331  0.3631 -0.3282
  441DPPI   GL2 6842  15.156   2.654  10.113  0.0752 -0.2163  0.1687
  441DPPI   C1A 6843  15.386   2.380   9.772  0.0289 -0.0503 -0.3456
  441DPPI   C2A 6844  15.359   2.425   9.334 -0.0668  0.0708 -0.0708
  441DPPI   C3A 6845  15.166   2.340   8.909  0.0318 -0.0649 -0.4533
  441DPPI   C4A 6846  14.697   2.490   8.774  0.0790 -0.0174  0.0268
  441DPPI   C1B 6847  14.777   2.473   9.757 -0.2454  0.0522  0.0752
  441DPPI   C2B 6848  14.824   2.363   9.304  0.1309 -0.0451 -0.4653
  441DPPI   C3B 6849  14.554   2.030   8.962  0.1510 -0.0413 -0.2771
  441DPPI   C4B 6850  14.145   1.940   8.743 -0.1195  0.1211 -0.4538
  442DPPI    C1 6851  10.486   1.274  10.360 -0.1794 -0.0844 -0.0296
  442DPPI    C2 6852  10.785   1.027  10.459 -0.1258 -0.0472 -0.0972
  442DPPI    C3 6853  10.418   0.965  10.605 -0.0747 -0.0637  0.0263
  442DPPI   PO4 6854  10.525   1.283  10.071 -0.2082  0.0582  0.2030
  442DPPI   GL1 6855  10.610   1.074   9.734 -0.1654  0.2562 -0.3079
  442DPPI   GL2 6856  10.287   0.948   9.621 -0.0732  0.0530 -0.0095
  442DPPI   C1A 6857  10.770   1.252   9.400  0.2875  0.0094 -0.1830
  442DPPI   C2A 6858  10.717   1.234   9.002  0.3940  0.1823 -0.1776
  442DPPI   C3A 6859  10.669   1.253   8.542  0.0359 -0.3170 -0.3418
  442DPPI   C4A 6860  10.677   1.363   8.050  0.0729  0.0129  0.5536
  442DPPI   C1B 6861  10.319   1.102   9.290  0.1739  0.1315  0.0397
  442DPPI   C2B 6862  10.255   1.250   8.786  0.0613  0.2404 -0.1774
  442DPPI   C3B 6863  10.186   1.293   8.366 -0.2813  0.0224  0.1126
  442DPPI   C4B 6864  10.290   1.054   7.958  0.0503  0.2572  0.0097
  443DPPI    C1 6865   1.173  13.407  10.108  0.2513  0.0101 -0.1781
  443DPPI    C2 6866   1.176  13.577  10.470 -0.0701 -0.0605 -0.1393
  443DPPI    C3 6867   1.486  13.354  10.351  0.1408  0.1548 -0.0019
  443DPPI   PO4 6868   0.873  13.351  10.118 -0.0986 -0.0139 -0.1568
  443DPPI   GL1 6869   0.474  13.357   9.724 -0.2373  0.3593 -0.2320
  443DPPI   GL2 6870   0.281  13.056   9.710 -0.3104  0.0599  0.2038
  443DPPI   C1A 6871   0.490  13.326   9.300  0.3557 -0.1116 -0.0764
  443DPPI   C2A 6872   0.377  13.157   8.884  0.2443 -0.1792 -0.1463
  443DPPI   C3A 6873   0.308  12.921   8.391 -0.0643  0.3704 -0.3469
  443DPPI   C4A 6874   0.408  12.606   8.035 -0.0848 -0.2307  0.2201
  443DPPI   C1B 6875   0.207  12.940   9.371  0.2569 -0.0680 -0.2587
  443DPPI   C2B 6876  -0.007  12.823   8.945  0.0668  0.0186 -0.0956
  443DPPI   C3B 6877  -0.356  12.814   8.585 -0.1972 -0.1068 -0.4633
  443DPPI   C4B 6878  -0.629  13.029   8.401  0.1146 -0.0551 -0.3932
  444DPPI    C1 6879   9.307   9.486  10.259  0.0587  0.2477  0.2133
  444DPPI    C2 6880   9.701   9.456  10.322  0.0742 -0.0368  0.0009
  444DPPI    C3 6881   9.488   9.733  10.517  0.3738  0.1047  0.1341
  444DPPI   PO4 6882   9.305   9.526  10.048 -0.1071  0.0963  0.3701
  444DPPI   GL1 6883   8.990   9.638   9.845 -0.0617 -0.0444 -0.0083
  444DPPI   GL2 6884   8.747   9.405   9.776 -0.1196 -0.1768 -0.0865
  444DPPI   C1A 6885   9.134   9.754   9.279  0.0445  0.0390  0.1963
  444DPPI   C2A 6886   9.097   9.574   8.966  0.0295  0.5097 -0.0044
  444DPPI   C3A 6887   8.762   9.629   8.641  0.2765 -0.2792 -0.0358
  444DPPI   C4A 6888   8.608   9.644   8.378 -0.1982 -0.2253 -0.1756
  444DPPI   C1B 6889   8.804   9.327   9.267  0.0662  0.1714 -0.1383
  444DPPI   C2B 6890   8.838   9.174   8.791  0.1574 -0.0683 -0.1200
  444DPPI   C3B 6891   8.642   9.158   8.437 -0.3415  0.1495 -0.4734
  444DPPI   C4B 6892   8.309   9.229   8.052 -0.1933 -0.0661 -0.2290
  445DPPI    C1 6893  11.448  14.782   9.835  0.1577  0.1268 -0.0653
  445DPPI    C2 6894  11.294  15.014  10.123 -0.0123 -0.0600 -0.0034
  445DPPI    C3 6895  11.506  14.688  10.220 -0.0961 -0.1407 -0.0891
  445DPPI   PO4 6896  11.508  14.960   9.643 -0.1917  0.0916 -0.1348
  445DPPI   GL1 6897  11.587  14.946   9.254  0.0859  0.2310 -0.0315
  445DPPI   GL2 6898  11.550  15.151   9.018  0.0627 -0.1696 -0.4536
  445DPPI   C1A 6899  11.877  14.833   8.915  0.2465  0.0435  0.0623
  445DPPI   C2A 6900  11.791  14.960   8.370 -0.1351  0.0240  0.1833
  445DPPI   C3A 6901  11.704  15.005   7.910 -0.0462 -0.1078  0.1314
  445DPPI   C4A 6902  11.516  15.224   7.507 -0.2300  0.2787  0.1089
  445DPPI   C1B 6903  11.346  15.222   8.594  0.1514  0.1296  0.0758
  445DPPI   C2B 6904  11.362  15.262   8.209 -0.0065 -0.1187 -0.3095
  445DPPI   C3B 6905  11.376  15.546   7.948  0.0178  0.0119  0.1081
  445DPPI   C4B 6906  11.712  15.668   7.507  0.2673 -0.1574  0.2196
  446DPPI    C1 6907  16.078   2.629  10.437 -0.1466 -0.1377  0.0793
  446DPPI    C2 6908  16.159   2.374  10.735  0.1791  0.1145  0.2138
  446DPPI    C3 6909  16.009   2.736  10.817  0.1781  0.1491  0.0631
  446DPPI   PO4 6910  16.279   2.594  10.253 -0.0389  0.0545  0.1055
  446DPPI   GL1 6911  16.322   2.381   9.856  0.0136  0.0336  0.1939
  446DPPI   GL2 6912  16.457   1.944   9.817  0.0913 -0.4748 -0.1125
  446DPPI   C1A 6913  16.538   2.447   9.505 -0.1105 -0.1211 -0.0451
  446DPPI   C2A 6914  16.620   2.629   9.136 -0.1247  0.3611  0.1191
  446DPPI   C3A 6915  16.727   2.787   8.702  0.1041 -0.1196  0.0134
  446DPPI   C4A 6916  16.490   2.728   8.394  0.0336  0.1119 -0.0653
  446DPPI   C1B 6917  16.657   1.897   9.506 -0.0136 -0.0293  0.1445
  446DPPI   C2B 6918  16.860   2.010   9.149  0.1187  0.1651 -0.1395
  446DPPI   C3B 6919  16.859   2.324   8.839 -0.1071  0.0258 -0.3351
  446DPPI   C4B 6920  17.108   2.574   8.493 -0.3566  0.6015 -0.0708
  447DPPI    C1 6921   1.442   9.034  10.575  0.1636 -0.0447 -0.0146
  447DPPI    C2 6922   1.242   8.783  10.814 -0.2555  0.1815 -0.1168
  447DPPI    C3 6923   1.492   9.053  10.971 -0.1330 -0.0111  0.0237
  447DPPI   PO4 6924   1.198   9.034  10.382 -0.2015  0.3088  0.4515
  447DPPI   GL1 6925   1.092   9.104   9.869  0.2734  0.2124 -0.2371
  447DPPI   GL2 6926   0.810   8.866   9.849  0.1354  0.2853  0.1658
  447DPPI   C1A 6927   0.885   9.250   9.497 -0.0986  0.1825 -0.0600
  447DPPI   C2A 6928   0.930   9.332   9.091  0.2895 -0.2324  0.2481
  447DPPI   C3A 6929   0.909   9.482   8.770 -0.0119 -0.4126  0.0349
  447DPPI   C4A 6930   1.040   9.626   8.366 -0.1479 -0.0975 -0.3634
  447DPPI   C1B 6931   0.713   8.876   9.298 -0.2522  0.0517  0.0922
  447DPPI   C2B 6932   0.558   9.071   8.853  0.0680 -0.2285 -0.0161
  447DPPI   C3B 6933   0.726   9.197   8.411  0.0424  0.0618  0.0499
  447DPPI   C4B 6934   0.424   9.381   8.031  0.3035 -0.1374  0.2945
  448DPPI    C1 6935   7.606   7.845  10.396 -0.1554  0.0764  0.1158
  448DPPI    C2 6936   7.373   7.558  10.244 -0.1793  0.3225 -0.3279
  448DPPI    C3 6937   7.215   7.911  10.345 -0.1310  0.2226  0.1146
  448DPPI   PO4 6938   7.763   7.900  10.156  0.1661 -0.1083  0.2572
  448DPPI   GL1 6939   8.041   7.818   9.856  0.0351  0.1371  0.0745
  448DPPI   GL2 6940   8.302   8.098   9.808 -0.0561  0.1264 -0.1059
  448DPPI   C1A 6941   8.293   7.743   9.380  0.3205 -0.2228  0.1197
  448DPPI   C2A 6942   8.364   7.675   8.927 -0.0417 -0.1824  0.2926
  448DPPI   C3A 6943   8.149   7.509   8.772 -0.4042 -0.1693  0.0894
  448DPPI   C4A 6944   8.093   7.671   8.294  0.1283  0.4037 -0.0573
  448DPPI   C1B 6945   8.458   8.200   9.296  0.3092  0.0376 -0.1091
  448DPPI   C2B 6946   8.444   8.128   8.757 -0.0602  0.2591 -0.1716
  448DPPI   C3B 6947   8.566   7.777   8.464  0.2885 -0.0322  0.1243
  448DPPI   C4B 6948   8.804   7.345   8.334 -0.0395  0.3124  0.0398
  449DPPI    C1 6949   1.325  15.754  10.241 -0.0098 -0.0443 -0.1396
  449DPPI    C2 6950   1.545  15.751   9.908  0.2396 -0.1529  0.0230
  449DPPI    C3 6951   1.712  15.854  10.256  0.0013 -0.1203  0.1293
  449DPPI   PO4 6952   1.068  15.886  10.135 -0.2080  0.1474  0.2435
  449DPPI   GL1 6953   0.888  15.893   9.734 -0.0070  0.0922 -0.3341
  449DPPI   GL2 6954   1.161  15.840   9.594  0.2024 -0.0956  0.1035
  449DPPI   C1A 6955   0.697  15.896   9.320  0.1943  0.2518  0.0118
  449DPPI   C2A 6956   0.665  15.825   8.927 -0.0454  0.2138 -0.4581
  449DPPI   C3A 6957   0.608  15.574   8.585  0.2243 -0.2012  0.3157
  449DPPI   C4A 6958   0.861  15.321   8.306  0.0751 -0.2604  0.0499
  449DPPI   C1B 6959   1.130  15.658   9.101 -0.2495  0.2201 -0.3038
  449DPPI   C2B 6960   1.036  15.411   8.769  0.1115 -0.3689  0.0129
  449DPPI   C3B 6961   1.258  15.109   8.323  0.0506 -0.2890  0.0610
  449DPPI   C4B 6962   1.144  14.998   7.936 -0.1408  0.0108 -0.0782
  450DPPI    C1 6963   8.608   5.894  10.343  0.0223  0.0774 -0.0314
  450DPPI    C2 6964   8.356   6.159  10.504  0.0282 -0.0249  0.1483
  450DPPI    C3 6965   8.739   6.258  10.444  0.0031  0.0468  0.1055
  450DPPI   PO4 6966   8.503   5.933  10.054  0.1067  0.0297  0.1049
  450DPPI   GL1 6967   8.665   5.931   9.671 -0.2216  0.1749 -0.0143
  450DPPI   GL2 6968   8.704   5.568   9.621 -0.3265  0.1106  0.1120
  450DPPI   C1A 6969   8.700   5.908   9.201 -0.1326  0.2132 -0.0764
  450DPPI   C2A 6970   8.662   5.931   8.817 -0.0950  0.0882 -0.1456
  450DPPI   C3A 6971   8.413   6.199   8.620  0.1102  0.0469  0.1172
  450DPPI   C4A 6972   7.998   6.167   8.612  0.0011 -0.1106  0.1524
  450DPPI   C1B 6973   8.829   5.444   9.278  0.1684  0.0725 -0.1035
  450DPPI   C2B 6974   8.792   5.358   8.955 -0.2314 -0.1037 -0.0196
  450DPPI   C3B 6975   8.597   5.401   8.480 -0.1087  0.0190 -0.0786
  450DPPI   C4B 6976   8.777   5.435   7.965 -0.2010 -0.1201 -0.2084
  451DPPI    C1 6977   5.369   2.958  10.225  0.1935  0.2340  0.0052
  451DPPI    C2 6978   5.128   2.648  10.150  0.2644  0.2009 -0.0884
  451DPPI    C3 6979   5.202   2.757  10.528  0.0026  0.2908 -0.0609
  451DPPI   PO4 6980   5.450   3.032   9.967  0.1453  0.1441  0.0370
  451DPPI   GL1 6981   5.290   3.314   9.662 -0.1605 -0.1295  0.0737
  451DPPI   GL2 6982   5.170   3.627   9.501 -0.1539 -0.1095 -0.2918
  451DPPI   C1A 6983   5.137   3.240   9.188  0.0804 -0.1263 -0.0183
  451DPPI   C2A 6984   4.841   3.039   8.853  0.1370  0.1316 -0.0286
  451DPPI   C3A 6985   4.757   2.863   8.497  0.0417 -0.2863  0.1380
  451DPPI   C4A 6986   4.442   2.900   8.062  0.0530  0.3847  0.0210
  451DPPI   C1B 6987   4.998   3.861   9.103  0.0604 -0.2682  0.1153
  451DPPI   C2B 6988   4.959   4.255   8.995  0.0814  0.2207  0.2261
  451DPPI   C3B 6989   4.826   4.414   8.662 -0.0598 -0.1713 -0.0932
  451DPPI   C4B 6990   4.815   4.391   8.372 -0.0772 -0.0792 -0.1714
  452DPPI    C1 6991   4.858   1.683  10.146 -0.2290  0.0753 -0.0532
  452DPPI    C2 6992   4.513   1.825  10.290 -0.2859 -0.2764  0.1697
  452DPPI    C3 6993   4.760   1.620  10.529  0.1050  0.0145  0.0260
  452DPPI   PO4 6994   4.990   1.843  10.029  0.0939 -0.3888  0.0076
  452DPPI   GL1 6995   4.996   1.784   9.617 -0.1756 -0.0287  0.0562
  452DPPI   GL2 6996   5.045   1.579   9.399 -0.0386 -0.1700  0.0304
  452DPPI   C1A 6997   4.833   2.075   9.343  0.0872 -0.2690  0.3455
  452DPPI   C2A 6998   4.813   2.128   8.946 -0.0478 -0.2194  0.1200
  452DPPI   C3A 6999   4.910   2.276   8.484  0.2105  0.1427  0.1578
  452DPPI   C4A 7000   4.920   2.312   7.998  0.1215 -0.0542 -0.0915
  452DPPI   C1B 7001   5.125   1.731   8.870  0.0062 -0.0905  0.3428
  452DPPI   C2B 7002   5.231   1.870   8.386  0.1560  0.1188  0.0155
  452DPPI   C3B 7003   5.393   1.918   7.989 -0.2186 -0.1417  0.1246
  452DPPI   C4B 7004   5.055   1.950   7.512  0.1053  0.2022  0.2820
  453DPPI    C1 7005  15.242  17.166  10.189  0.1212  0.1309  0.0638
  453DPPI    C2 7006  15.566  17.369  10.074  0.2125 -0.0241  0.0450
  453DPPI    C3 7007  15.576  16.969  10.091  0.0570 -0.0243  0.1513
  453DPPI   PO4 7008  14.973  17.220  10.080 -0.1202  0.1090  0.0485
  453DPPI   GL1 7009  14.924  17.447   9.690  0.0621  0.0598 -0.0600
  453DPPI   GL2 7010  15.211  17.493   9.703 -0.0967  0.5050 -0.2352
  453DPPI   C1A 7011  15.061  17.706   9.290  0.2443 -0.2033 -0.2202
  453DPPI   C2A 7012  15.173  17.595   8.944 -0.0680  0.0606 -0.0504
  453DPPI   C3A 7013  15.281  17.417   8.519 -0.0070  0.0056 -0.1037
  453DPPI   C4A 7014  15.156  17.115   8.204 -0.2836  0.1408  0.0102
  453DPPI   C1B 7015  14.958  17.928   9.716  0.1219  0.1190 -0.4628
  453DPPI   C2B 7016  14.767  18.078   9.523 -0.0776 -0.0232  0.1432
  453DPPI   C3B 7017  14.705  18.192   9.158  0.2804 -0.3887  0.1849
  453DPPI   C4B 7018  14.862  18.224   8.751 -0.6881 -0.0769 -0.2260
  454DPPI    C1 7019   8.817   1.331   9.765  0.1012  0.3449  0.1682
  454DPPI    C2 7020   8.606   1.421  10.093  0.0906 -0.0318  0.2683
  454DPPI    C3 7021   8.920   1.174  10.118  0.1306 -0.0101  0.0054
  454DPPI   PO4 7022   8.627   1.260   9.610 -0.2142  0.0497 -0.1340
  454DPPI   GL1 7023   8.601   1.480   9.326 -0.1241  0.1238  0.2488
  454DPPI   GL2 7024   8.425   1.392   9.100 -0.2514 -0.1494 -0.1147
  454DPPI   C1A 7025   8.888   1.711   8.973  0.1634  0.0405  0.3413
  454DPPI   C2A 7026   8.850   1.662   8.503 -0.2317 -0.0109  0.5264
  454DPPI   C3A 7027   8.975   1.572   8.085  0.0214 -0.1245  0.1905
  454DPPI   C4A 7028   9.038   1.491   7.615 -0.0259  0.1435 -0.3469
  454DPPI   C1B 7029   8.379   1.687   8.795 -0.0332  0.1080 -0.1021
  454DPPI   C2B 7030   8.534   2.008   8.493  0.3057 -0.0954  0.0898
  454DPPI   C3B 7031   8.734   2.000   8.103 -0.1418 -0.0384  0.1563
  454DPPI   C4B 7032   8.696   2.122   7.687 -0.2717 -0.1093 -0.0402
  455DPPI    C1 7033  12.029  16.333   9.673  0.2176  0.0981 -0.0556
  455DPPI    C2 7034  11.993  16.469  10.048  0.1173  0.0669 -0.0536
  455DPPI    C3 7035  11.685  16.285   9.871  0.1434  0.1381 -0.1741
  455DPPI   PO4 7036  12.267  16.200   9.671 -0.0373 -0.0975  0.0901
  455DPPI   GL1 7037  12.536  16.180   9.458  0.1285 -0.4179  0.2301
  455DPPI   GL2 7038  12.600  15.975   9.206  0.0563  0.0045 -0.0806
  455DPPI   C1A 7039  12.512  16.465   8.925 -0.0931  0.3589  0.0942
  455DPPI   C2A 7040  12.582  16.417   8.436 -0.2715 -0.2241  0.2615
  455DPPI   C3A 7041  12.647  16.486   8.061 -0.1968 -0.1798 -0.3759
  455DPPI   C4A 7042  12.669  16.573   7.660  0.0620  0.1180  0.2809
  455DPPI   C1B 7043  12.380  15.981   8.922 -0.0772  0.1807  0.2070
  455DPPI   C2B 7044  12.311  16.014   8.478  0.0705  0.2017 -0.1093
  455DPPI   C3B 7045  12.420  16.027   7.995 -0.1259  0.2883  0.4059
  455DPPI   C4B 7046  12.516  16.129   7.523  0.1799 -0.0618  0.0847
  456DPPI    C1 7047   5.775   0.331   9.961 -0.0826 -0.1161  0.0028
  456DPPI    C2 7048   5.581   0.018   9.804 -0.0412 -0.1166 -0.0478
  456DPPI    C3 7049   5.897  -0.041  10.043  0.0542 -0.1116 -0.1714
  456DPPI   PO4 7050   5.790   0.503   9.787  0.0002 -0.1063 -0.3482
  456DPPI   GL1 7051   5.708   0.755   9.517 -0.1203  0.4557 -0.0114
  456DPPI   GL2 7052   5.952   0.826   9.490  0.0898 -0.0280  0.0813
  456DPPI   C1A 7053   5.505   0.811   9.090 -0.0224 -0.0214 -0.1671
  456DPPI   C2A 7054   5.452   0.868   8.699  0.3030 -0.1425  0.0472
  456DPPI   C3A 7055   5.288   0.999   8.263 -0.0853 -0.1284 -0.3827
  456DPPI   C4A 7056   5.341   1.018   7.864 -0.1070  0.0609 -0.0257
  456DPPI   C1B 7057   5.953   0.652   9.109  0.0358  0.1564  0.2213
  456DPPI   C2B 7058   5.906   0.750   8.683  0.0886  0.1526  0.2923
  456DPPI   C3B 7059   6.275   0.733   8.376  0.3173 -0.0861  0.1258
  456DPPI   C4B 7060   6.411   1.020   8.073 -0.3996 -0.1556 -0.2475
  457DPPI    C1 7061   4.105   1.102  10.205 -0.1201  0.0906  0.4439
  457DPPI    C2 7062   4.336   1.045   9.884 -0.4199 -0.0776  0.2531
  457DPPI    C3 7063   4.271   1.415  10.020 -0.0077 -0.0304  0.3370
  457DPPI   PO4 7064   3.955   0.869  10.158  0.0629 -0.1403  0.0961
  457DPPI   GL1 7065   3.881   0.867   9.751 -0.1752 -0.1386 -0.0245
  457DPPI   GL2 7066   3.899   1.146   9.674 -0.2434  0.0044 -0.4362
  457DPPI   C1A 7067   3.414   0.875   9.531  0.1568  0.1321 -0.1794
  457DPPI   C2A 7068   3.148   0.781   9.185 -0.0642 -0.0222  0.0743
  457DPPI   C3A 7069   3.104   0.896   8.663 -0.0772  0.2094 -0.3159
  457DPPI   C4A 7070   3.138   0.791   8.251 -0.1433  0.2722  0.0225
  457DPPI   C1B 7071   3.979   0.997   9.271 -0.0617  0.0039  0.0854
  457DPPI   C2B 7072   3.903   0.961   8.927 -0.1716  0.1953 -0.0251
  457DPPI   C3B 7073   4.060   1.083   8.604  0.0424 -0.1132 -0.0939
  457DPPI   C4B 7074   4.015   0.932   8.243 -0.2563  0.4204 -0.0822
  458DPPI    C1 7075  11.448   0.044   9.892  0.1326 -0.1270 -0.2278
  458DPPI    C2 7076  11.230  -0.139  10.173  0.0865  0.3408  0.0512
  458DPPI    C3 7077  11.628  -0.175  10.174  0.0691  0.1365  0.0221
  458DPPI   PO4 7078  11.384   0.077   9.671  0.1185  0.4079  0.1444
  458DPPI   GL1 7079  11.583   0.423   9.456 -0.1822  0.7883 -0.2293
  458DPPI   GL2 7080  11.306   0.488   9.298  0.2898  0.0240  0.0199
  458DPPI   C1A 7081  11.801   0.482   9.151  0.0687  0.2558 -0.1712
  458DPPI   C2A 7082  11.901   0.443   8.721  0.2251 -0.0346 -0.0054
  458DPPI   C3A 7083  11.977   0.499   8.286  0.2243 -0.3999 -0.2836
  458DPPI   C4A 7084  12.225   0.118   8.119  0.0340  0.0239  0.0781
  458DPPI   C1B 7085  11.339   0.518   8.858  0.0702  0.1911 -0.2599
  458DPPI   C2B 7086  11.276   0.608   8.411  0.0004  0.0657  0.1209
  458DPPI   C3B 7087  11.148   0.548   8.061  0.0135 -0.2419 -0.0664
  458DPPI   C4B 7088  11.264   0.781   7.647  0.0097  0.0985  0.2018
  459DPPI    C1 7089   5.691  13.519   9.329  0.0572 -0.0127  0.0188
  459DPPI    C2 7090   5.623  13.697   9.681 -0.0917  0.0522 -0.0419
  459DPPI    C3 7091   5.452  13.345   9.598  0.0372 -0.0202 -0.0038
  459DPPI   PO4 7092   5.756  13.827   9.193 -0.1792  0.2300 -0.2638
  459DPPI   GL1 7093   5.632  13.954   8.793 -0.0062  0.2136  0.0776
  459DPPI   GL2 7094   5.450  14.222   8.968  0.3064  0.1374  0.0593
  459DPPI   C1A 7095   5.733  13.982   8.444  0.0579  0.0480  0.2328
  459DPPI   C2A 7096   5.788  14.021   8.060  0.1246 -0.3136 -0.2275
  459DPPI   C3A 7097   5.825  13.921   7.693 -0.1012 -0.1072 -0.2374
  459DPPI   C4A 7098   5.949  13.702   7.384  0.1048  0.1038  0.1474
  459DPPI   C1B 7099   5.523  14.409   8.620 -0.0637  0.2823  0.0525
  459DPPI   C2B 7100   5.696  14.527   8.238 -0.4788  0.0540  0.0892
  459DPPI   C3B 7101   5.911  14.605   7.934  0.2183  0.0050  0.2532
  459DPPI   C4B 7102   6.244  14.770   7.770  0.0063  0.0062  0.2037
  460DPPI    C1 7103   5.668  12.788   9.942  0.0437 -0.0084  0.0202
  460DPPI    C2 7104   5.536  13.095  10.162  0.0478  0.0124 -0.0059
  460DPPI    C3 7105   5.927  13.014  10.147  0.0562  0.0640 -0.0743
  460DPPI   PO4 7106   5.602  12.802   9.668  0.0087  0.2217  0.2484
  460DPPI   GL1 7107   5.569  12.689   9.151  0.0661  0.1074 -0.4784
  460DPPI   GL2 7108   5.586  12.993   9.240  0.1134 -0.0446  0.1301
  460DPPI   C1A 7109   5.751  12.550   8.814 -0.0923 -0.1071 -0.0647
  460DPPI   C2A 7110   5.841  12.208   8.529 -0.0448 -0.0528  0.0524
  460DPPI   C3A 7111   5.720  12.002   8.146 -0.0786 -0.1517  0.2050
  460DPPI   C4A 7112   5.657  12.064   7.619 -0.0391 -0.3474  0.0198
  460DPPI   C1B 7113   5.385  12.966   8.805 -0.1211 -0.0237 -0.1902
  460DPPI   C2B 7114   5.639  12.887   8.470  0.1665 -0.0531 -0.0439
  460DPPI   C3B 7115   5.822  12.516   8.118  0.2224 -0.0949  0.1155
  460DPPI   C4B 7116   5.989  12.396   7.794  0.1877 -0.1201 -0.1246
  461DPPI    C1 7117  11.744   5.010  10.239  0.0637 -0.1719  0.0036
  461DPPI    C2 7118  11.492   4.917  10.535 -0.0836  0.1005 -0.0332
  461DPPI    C3 7119  11.641   5.287  10.508  0.1784 -0.0089 -0.1181
  461DPPI   PO4 7120  11.645   4.855  10.072 -0.0330 -0.1886  0.0733
  461DPPI   GL1 7121  11.361   4.610   9.780 -0.1466  0.0660 -0.0100
  461DPPI   GL2 7122  11.413   4.840   9.613 -0.0319  0.3195  0.1109
  461DPPI   C1A 7123  11.342   4.456   9.364 -0.0111  0.0458 -0.1791
  461DPPI   C2A 7124  11.215   4.493   8.950  0.1120 -0.0635  0.1462
  461DPPI   C3A 7125  11.000   4.504   8.526 -0.0178 -0.1523 -0.1355
  461DPPI   C4A 7126  10.838   4.420   8.162 -0.0689  0.0899  0.1820
  461DPPI   C1B 7127  11.098   4.900   9.260  0.1170  0.2428 -0.1845
  461DPPI   C2B 7128  10.965   4.963   8.929  0.1079 -0.2364 -0.0660
  461DPPI   C3B 7129  10.766   5.130   8.502  0.0110 -0.0044 -0.0685
  461DPPI   C4B 7130  10.635   5.310   8.081  0.0347 -0.0275 -0.1246
  462DPPI    C1 7131  17.915   6.968  10.481 -0.3947  0.1714  0.2097
  462DPPI    C2 7132  17.972   6.896  10.870 -0.1196 -0.1974  0.1077
  462DPPI    C3 7133  18.286   6.927  10.625 -0.2871  0.1283 -0.0731
  462DPPI   PO4 7134  17.716   6.722  10.433 -0.0898 -0.0429  0.0560
  462DPPI   GL1 7135  17.607   6.697  10.020 -0.0041  0.2265 -0.4841
  462DPPI   GL2 7136  17.789   6.947   9.941 -0.0951 -0.0251  0.1332
  462DPPI   C1A 7137  17.355   6.719   9.662 -0.1207  0.0981  0.1743
  462DPPI   C2A 7138  17.073   6.699   9.283 -0.1458  0.0984 -0.0864
  462DPPI   C3A 7139  17.085   6.679   8.797 -0.0911 -0.0646 -0.0958
  462DPPI   C4A 7140  17.040   6.859   8.458 -0.0998  0.0706  0.1266
  462DPPI   C1B 7141  17.843   6.916   9.534  0.0690 -0.2877 -0.0894
  462DPPI   C2B 7142  17.891   6.805   9.153  0.0043 -0.0533 -0.0105
  462DPPI   C3B 7143  17.807   6.771   8.692  0.2089  0.0932  0.0887
  462DPPI   C4B 7144  17.469   6.535   8.456 -0.1119 -0.0808  0.2809
  463DPPI    C1 7145   0.952  17.899   9.923  0.1189  0.0972 -0.2333
  463DPPI    C2 7146   0.697  18.206   9.899  0.2577  0.2526  0.1832
  463DPPI    C3 7147   0.725  17.996  10.238  0.0174 -0.3581 -0.1596
  463DPPI   PO4 7148   0.994  17.754   9.674 -0.1527 -0.2465  0.2772
  463DPPI   GL1 7149   1.191  17.853   9.330  0.2101  0.1237 -0.1150
  463DPPI   GL2 7150   0.936  17.807   9.172 -0.1488 -0.0590 -0.2179
  463DPPI   C1A 7151   1.451  18.134   9.211 -0.0102  0.2124  0.1863
  463DPPI   C2A 7152   1.495  18.246   8.881 -0.0057 -0.1950  0.0911
  463DPPI   C3A 7153   1.395  18.278   8.453  0.1108  0.2133  0.1939
  463DPPI   C4A 7154   0.978  18.290   8.286  0.1030  0.0691  0.3578
  463DPPI   C1B 7155   1.179  17.871   8.757  0.0600 -0.2347 -0.1193
  463DPPI   C2B 7156   1.302  17.846   8.357 -0.1229  0.1703  0.2169
  463DPPI   C3B 7157   1.100  17.716   7.991  0.3793 -0.0256  0.0348
  463DPPI   C4B 7158   0.658  17.714   7.885 -0.2684 -0.0561 -0.0358
  464DPPI    C1 7159   8.306  14.357  10.059 -0.0191 -0.0123  0.0740
  464DPPI    C2 7160   7.999  14.401  10.312 -0.0435 -0.0111  0.0443
  464DPPI    C3 7161   8.306  14.164  10.409 -0.0226  0.0398  0.1028
  464DPPI   PO4 7162   8.187  14.326   9.787 -0.0665  0.1640  0.0683
  464DPPI   GL1 7163   8.041  13.959   9.574 -0.2857  0.0703  0.1467
  464DPPI   GL2 7164   8.164  14.222   9.332  0.1226  0.0727  0.2687
  464DPPI   C1A 7165   8.341  13.695   9.379  0.0561  0.2506 -0.2309
  464DPPI   C2A 7166   8.276  13.609   8.999  0.2755  0.1531  0.0178
  464DPPI   C3A 7167   8.271  13.621   8.513 -0.0405  0.0609  0.0021
  464DPPI   C4A 7168   8.373  13.670   8.104 -0.0207  0.1242 -0.1453
  464DPPI   C1B 7169   8.010  14.277   8.892 -0.0753  0.0175 -0.2029
  464DPPI   C2B 7170   8.300  14.112   8.616 -0.2310  0.2178  0.1923
  464DPPI   C3B 7171   8.280  14.269   8.175 -0.2248 -0.0554 -0.2940
  464DPPI   C4B 7172   8.403  14.479   7.849 -0.2017 -0.1433  0.3412
  465DPPI    C1 7173   5.839   1.933   9.989 -0.0349 -0.0295 -0.0988
  465DPPI    C2 7174   5.867   2.222  10.263 -0.0018  0.0235 -0.1578
  465DPPI    C3 7175   6.185   1.994  10.180 -0.1232 -0.2641  0.1429
  465DPPI   PO4 7176   5.781   2.036   9.810  0.1298 -0.0996  0.2760
  465DPPI   GL1 7177   5.808   1.744   9.491 -0.1030 -0.2817 -0.0777
  465DPPI   GL2 7178   5.487   1.895   9.443 -0.0683 -0.2986  0.1280
  465DPPI   C1A 7179   5.636   1.538   9.111 -0.1104 -0.0720  0.0551
  465DPPI   C2A 7180   5.515   1.383   8.719  0.3242 -0.2089 -0.0595
  465DPPI   C3A 7181   5.536   1.461   8.205  0.5669  0.0874 -0.0831
  465DPPI   C4A 7182   5.673   1.523   7.756  0.0346 -0.1223 -0.1270
  465DPPI   C1B 7183   5.323   2.108   9.105 -0.4097 -0.2809 -0.1256
  465DPPI   C2B 7184   5.447   2.184   8.671  0.0616 -0.2285 -0.1658
  465DPPI   C3B 7185   5.549   2.299   8.311  0.1600 -0.1205 -0.1328
  465DPPI   C4B 7186   5.617   2.574   7.975  0.1720  0.1087  0.1154
  466DPPI    C1 7187   4.152  15.829  10.226  0.0941  0.1253 -0.1004
  466DPPI    C2 7188   3.993  15.960  10.569  0.1532  0.1548 -0.0841
  466DPPI    C3 7189   4.221  15.631  10.566  0.0798  0.1039 -0.1101
  466DPPI   PO4 7190   3.909  15.840  10.097 -0.2109 -0.0605 -0.0676
  466DPPI   GL1 7191   3.552  15.673   9.761  0.2440 -0.2241  0.0223
  466DPPI   GL2 7192   3.700  15.951   9.590  0.1006 -0.0431  0.2537
  466DPPI   C1A 7193   3.328  15.571   9.441 -0.1162 -0.0404 -0.1280
  466DPPI   C2A 7194   3.219  15.754   9.027  0.1041 -0.0150 -0.1467
  466DPPI   C3A 7195   3.050  15.664   8.574 -0.0068 -0.0470  0.2316
  466DPPI   C4A 7196   2.862  15.602   8.130  0.0464 -0.1270  0.3293
  466DPPI   C1B 7197   3.531  16.196   9.297  0.3262  0.1574  0.1626
  466DPPI   C2B 7198   3.580  16.249   8.907 -0.3126 -0.4074  0.2424
  466DPPI   C3B 7199   3.534  16.097   8.513 -0.1072  0.2151 -0.2929
  466DPPI   C4B 7200   3.308  15.900   8.124  0.0334 -0.0725  0.2341
  467DPPI    C1 7201   0.965   1.462  10.748 -0.2936 -0.0905 -0.2635
  467DPPI    C2 7202   0.908   1.103  10.914  0.1016 -0.0145  0.0517
  467DPPI    C3 7203   1.261   1.287  10.952 -0.0361  0.3280 -0.2662
  467DPPI   PO4 7204   0.845   1.458  10.535  0.1765  0.1018  0.0263
  467DPPI   GL1 7205   0.856   1.586  10.094 -0.0479  0.0056  0.3217
  467DPPI   GL2 7206   1.168   1.799  10.184  0.2230 -0.0506 -0.0530
  467DPPI   C1A 7207   0.771   1.749   9.699  0.0577 -0.1901  0.1784
  467DPPI   C2A 7208   0.752   2.063   9.378 -0.1320  0.0543  0.1908
  467DPPI   C3A 7209   0.829   2.218   8.987  0.0954 -0.0323 -0.1558
  467DPPI   C4A 7210   0.729   2.527   8.729 -0.0368 -0.0314 -0.3302
  467DPPI   C1B 7211   1.362   2.140   9.956  0.3536  0.1794 -0.2092
  467DPPI   C2B 7212   1.281   2.490   9.594 -0.0588  0.2343 -0.1760
  467DPPI   C3B 7213   1.114   2.841   9.274 -0.2123 -0.2202 -0.0192
  467DPPI   C4B 7214   0.938   2.917   8.938  0.1139  0.0638  0.0279
  468DPPI    C1 7215   0.306   9.591  10.628 -0.1595 -0.1804 -0.0302
  468DPPI    C2 7216   0.497   9.275  10.780  0.0081  0.1075  0.3737
  468DPPI    C3 7217   0.132   9.371  10.913 -0.1113 -0.0080  0.1345
  468DPPI   PO4 7218   0.599   9.681  10.403 -0.1590  0.1389  0.1795
  468DPPI   GL1 7219   0.730   9.636   9.858  0.0818  0.1884  0.0596
  468DPPI   GL2 7220   0.415   9.771   9.832 -0.2300 -0.3284  0.1187
  468DPPI   C1A 7221   0.848   9.717   9.400 -0.0927  0.0113  0.0670
  468DPPI   C2A 7222   1.166   9.812   9.102 -0.1776  0.2550 -0.1260
  468DPPI   C3A 7223   1.255   9.870   8.776  0.2852  0.1000 -0.1014
  468DPPI   C4A 7224   1.492   9.846   8.419 -0.0447 -0.3545  0.2592
  468DPPI   C1B 7225   0.411   9.977   9.465  0.3765  0.4694 -0.0114
  468DPPI   C2B 7226   0.113   9.974   9.085  0.3445 -0.1025 -0.5232
  468DPPI   C3B 7227  -0.239  10.099   8.919  0.0004 -0.0099  0.3606
  468DPPI   C4B 7228  -0.325  10.086   8.582  0.0327  0.3115 -0.1152
  469DPPI    C1 7229   0.910  17.215   9.831  0.1578 -0.3102  0.0585
  469DPPI    C2 7230   0.968  17.443  10.155  0.4761 -0.2579 -0.0325
  469DPPI    C3 7231   0.909  17.049  10.195 -0.2719 -0.1419  0.1398
  469DPPI   PO4 7232   1.108  17.263   9.676 -0.0869  0.1892 -0.1843
  469DPPI   GL1 7233   1.203  17.337   9.394 -0.0974  0.2768  0.2078
  469DPPI   GL2 7234   1.561  17.549   9.513  0.0659 -0.2394  0.0770
  469DPPI   C1A 7235   1.447  17.340   9.047  0.2235 -0.4718  0.1150
  469DPPI   C2A 7236   1.403  17.429   8.557  0.0127 -0.0078  0.0168
  469DPPI   C3A 7237   1.441  17.424   8.219 -0.0525  0.3730  0.5066
  469DPPI   C4A 7238   1.578  17.618   7.761  0.0829  0.2669  0.0740
  469DPPI   C1B 7239   1.678  17.767   9.084 -0.2617  0.3341  0.1723
  469DPPI   C2B 7240   1.676  17.803   8.692 -0.1392 -0.0641 -0.0091
  469DPPI   C3B 7241   1.814  17.924   8.311  0.3393  0.2431 -0.1664
  469DPPI   C4B 7242   2.011  17.888   7.959  0.1447 -0.1979  0.3342
  470DPPI    C1 7243  14.748   5.420  10.609 -0.1145  0.2490 -0.0567
  470DPPI    C2 7244  15.127   5.524  10.534 -0.0828  0.2979  0.1638
  470DPPI    C3 7245  14.971   5.585  10.898 -0.2137  0.0138  0.1583
  470DPPI   PO4 7246  14.607   5.492  10.378 -0.0627  0.0427  0.0263
  470DPPI   GL1 7247  14.709   5.774  10.068 -0.0426 -0.0390 -0.0539
  470DPPI   GL2 7248  15.010   5.755  10.091  0.0339  0.1101  0.1708
  470DPPI   C1A 7249  14.622   5.710   9.693  0.2173  0.0192  0.0286
  470DPPI   C2A 7250  14.496   5.802   9.344  0.1822  0.0060  0.1798
  470DPPI   C3A 7251  14.441   6.071   8.937  0.2386  0.0295 -0.0372
  470DPPI   C4A 7252  14.655   6.458   8.726 -0.2635 -0.2171 -0.3961
  470DPPI   C1B 7253  15.068   5.890   9.717 -0.0634  0.1950  0.3198
  470DPPI   C2B 7254  15.019   6.098   9.389  0.0425 -0.4578  0.0555
  470DPPI   C3B 7255  15.087   6.068   9.037  0.0393 -0.0133 -0.0330
  470DPPI   C4B 7256  15.024   6.157   8.625 -0.1301 -0.2325 -0.0807
  471DPPI    C1 7257   6.788   8.548  10.287 -0.1677 -0.0197  0.0760
  471DPPI    C2 7258   7.022   8.338  10.040 -0.0236  0.0111  0.1853
  471DPPI    C3 7259   6.803   8.150  10.317 -0.0864 -0.0137  0.1187
  471DPPI   PO4 7260   6.742   8.749  10.181 -0.2143  0.2719  0.1014
  471DPPI   GL1 7261   6.681   8.871   9.798 -0.1543  0.1829 -0.1760
  471DPPI   GL2 7262   6.354   8.988   9.807  0.3123 -0.0579 -0.1118
  471DPPI   C1A 7263   6.569   9.091   9.391  0.0206 -0.0648  0.0018
  471DPPI   C2A 7264   6.554   9.023   9.003  0.2753  0.0538  0.0523
  471DPPI   C3A 7265   6.511   9.085   8.637  0.1887  0.3165 -0.0282
  471DPPI   C4A 7266   6.308   8.895   8.257  0.0847  0.1807 -0.0854
  471DPPI   C1B 7267   6.271   8.715   9.512 -0.1879  0.2193 -0.0550
  471DPPI   C2B 7268   6.261   8.574   9.027 -0.1929 -0.0296  0.2019
  471DPPI   C3B 7269   6.032   8.478   8.518 -0.0804 -0.1833  0.2463
  471DPPI   C4B 7270   5.635   8.736   8.490  0.0765  0.1861  0.0825
  472DPPI    C1 7271   2.661  14.203  10.392  0.0155 -0.3354 -0.1937
  472DPPI    C2 7272   2.306  14.304  10.546  0.3048  0.1283  0.2002
  472DPPI    C3 7273   2.522  14.012  10.715  0.0927 -0.1968 -0.0770
  472DPPI   PO4 7274   2.618  14.261  10.144 -0.0999  0.2492 -0.0723
  472DPPI   GL1 7275   2.629  14.350   9.816 -0.0181 -0.3037  0.1658
  472DPPI   GL2 7276   2.579  14.522   9.620  0.1132 -0.3958  0.0711
  472DPPI   C1A 7277   3.022  14.223   9.525 -0.2121 -0.2034 -0.0972
  472DPPI   C2A 7278   3.037  14.209   9.035 -0.1269 -0.1175 -0.1487
  472DPPI   C3A 7279   3.024  14.213   8.647 -0.0657 -0.2218 -0.0546
  472DPPI   C4A 7280   3.156  14.223   8.229  0.4622  0.1814  0.0094
  472DPPI   C1B 7281   2.536  14.251   9.268 -0.1520  0.2532 -0.0463
  472DPPI   C2B 7282   2.414  14.177   8.896 -0.2386 -0.2328 -0.0025
  472DPPI   C3B 7283   2.339  14.103   8.455  0.2036 -0.1032  0.1134
  472DPPI   C4B 7284   2.070  14.008   8.176  0.2436  0.0322 -0.0509
  473PYPI    C1 7285  14.973  15.613  10.521  0.2061 -0.1278 -0.0152
  473PYPI    C2 7286  14.816  15.980  10.549  0.0161 -0.2158  0.0936
  473PYPI    C3 7287  14.805  15.734  10.864  0.4198 -0.2071  0.1201
  473PYPI   PO4 7288  15.085  15.555  10.219 -0.1077  0.1440 -0.0291
  473PYPI   GL1 7289  15.273  15.811   9.905  0.1821  0.1586  0.2627
  473PYPI   GL2 7290  15.299  16.085   9.838 -0.0696 -0.1768 -0.1164
  473PYPI   C1A 7291  15.145  15.520   9.502  0.0885 -0.0996  0.0443
  473PYPI   C2A 7292  15.130  15.630   9.048  0.2815  0.1852 -0.1572
  473PYPI   D3A 7293  15.147  15.792   8.774  0.0863 -0.0721  0.0557
  473PYPI   C4A 7294  14.957  15.836   8.341  0.1548 -0.5053  0.0886
  473PYPI   C1B 7295  15.061  15.996   9.395 -0.4821 -0.0006  0.1530
  473PYPI   C2B 7296  14.863  16.215   9.032  0.2260 -0.2018  0.2118
  473PYPI   C3B 7297  14.758  16.330   8.704  0.1177  0.0524 -0.2466
  473PYPI   C4B 7298  14.803  16.301   8.290 -0.1895  0.4943 -0.2282
  474PYPI    C1 7299   0.440   0.957  11.014  0.1487  0.1190 -0.0920
  474PYPI    C2 7300   0.077   0.847  10.887  0.2188 -0.0606 -0.1401
  474PYPI    C3 7301   0.329   0.573  11.033  0.1686  0.1289  0.3215
  474PYPI   PO4 7302   0.468   1.084  10.706 -0.3288  0.1768  0.0615
  474PYPI   GL1 7303   0.481   1.215  10.267  0.0092 -0.1552 -0.2551
  474PYPI   GL2 7304   0.335   1.588  10.157 -0.1669 -0.2541  0.1041
  474PYPI   C1A 7305   0.562   1.169   9.876  0.0430  0.3834 -0.0060
  474PYPI   C2A 7306   0.561   1.296   9.490  0.1543  0.1960  0.0441
  474PYPI   D3A 7307   0.575   1.431   9.025  0.2170 -0.1068  0.4367
  474PYPI   C4A 7308   0.450   1.116   8.735 -0.2820  0.2696  0.2466
  474PYPI   C1B 7309   0.284   1.545   9.744 -0.0460  0.0654 -0.0859
  474PYPI   C2B 7310   0.317   1.694   9.304 -0.2942  0.1559 -0.2226
  474PYPI   C3B 7311   0.048   1.510   9.035 -0.2373  0.0126  0.2048
  474PYPI   C4B 7312   0.009   1.361   8.581  0.1027 -0.0319 -0.2253
  475PYPI    C1 7313  15.048  13.379  10.492 -0.1306 -0.1179  0.1002
  475PYPI    C2 7314  14.711  13.201  10.613 -0.1535  0.0247  0.2488
  475PYPI    C3 7315  14.878  13.487  10.838 -0.0117  0.0556  0.1056
  475PYPI   PO4 7316  15.045  13.331  10.204  0.1829 -0.0929 -0.0534
  475PYPI   GL1 7317  15.266  13.485   9.809 -0.1998 -0.4127 -0.1335
  475PYPI   GL2 7318  15.652  13.530   9.843  0.1118  0.1557 -0.0711
  475PYPI   C1A 7319  15.496  13.189   9.397 -0.2635 -0.2119 -0.0175
  475PYPI   C2A 7320  15.715  13.149   8.976  0.0825  0.1467 -0.2626
  475PYPI   D3A 7321  15.777  12.975   8.517  0.2399 -0.0970 -0.0351
  475PYPI   C4A 7322  15.674  12.660   8.408  0.1362  0.0189  0.0650
  475PYPI   C1B 7323  15.914  13.189   9.681 -0.1052  0.0596 -0.2400
  475PYPI   C2B 7324  15.994  12.937   9.341  0.1906 -0.4014 -0.1400
  475PYPI   C3B 7325  16.006  12.745   9.004  0.1791  0.2418  0.2406
  475PYPI   C4B 7326  16.106  12.588   8.658  0.1701  0.0496 -0.2812
  476PYPI    C1 7327   7.997  18.461   9.963 -0.2442  0.0806 -0.1683
  476PYPI    C2 7328   8.248  18.773   9.952  0.0542 -0.1497 -0.0326
  476PYPI    C3 7329   7.863  18.828  10.046  0.0900  0.1844 -0.0717
  476PYPI   PO4 7330   8.177  18.244   9.801  0.0658 -0.3243 -0.2304
  476PYPI   GL1 7331   8.347  18.366   9.435  0.1167  0.0792  0.1516
  476PYPI   GL2 7332   8.542  18.085   9.406  0.2010  0.0065  0.0756
  476PYPI   C1A 7333   8.206  18.301   9.003  0.0965 -0.0772  0.2359
  476PYPI   C2A 7334   8.177  18.319   8.522 -0.0552  0.1681 -0.2164
  476PYPI   D3A 7335   7.945  18.212   8.068 -0.0159  0.5100  0.2787
  476PYPI   C4A 7336   8.048  17.941   7.719  0.0346  0.3451 -0.1566
  476PYPI   C1B 7337   8.658  18.117   8.916 -0.4827  0.3478  0.2935
  476PYPI   C2B 7338   8.737  18.128   8.396 -0.0255  0.0954 -0.0896
  476PYPI   C3B 7339   8.442  18.339   8.093  0.1176 -0.0423  0.3731
  476PYPI   C4B 7340   8.601  18.661   7.738  0.1910 -0.1575 -0.0811
  477PYPI    C1 7341  16.617  10.202  10.070 -0.0630 -0.1661 -0.1572
  477PYPI    C2 7342  16.452  10.150  10.431 -0.0292 -0.4998 -0.1860
  477PYPI    C3 7343  16.819  10.306  10.399 -0.1417 -0.2097 -0.0946
  477PYPI   PO4 7344  16.450  10.287   9.944  0.2167 -0.1728 -0.0760
  477PYPI   GL1 7345  16.208  10.476   9.534  0.2479 -0.2117 -0.4169
  477PYPI   GL2 7346  15.972  10.682   9.351 -0.2468 -0.0394 -0.0164
  477PYPI   C1A 7347  16.255  10.404   8.981  0.0456 -0.2135  0.0136
  477PYPI   C2A 7348  16.495  10.410   8.520 -0.0821 -0.1895 -0.1679
  477PYPI   D3A 7349  16.599  10.632   8.182 -0.2942 -0.0933  0.0725
  477PYPI   C4A 7350  16.736  11.018   8.103  0.1763 -0.3294 -0.2215
  477PYPI   C1B 7351  16.036  10.925   9.066  0.0020  0.2504  0.0595
  477PYPI   C2B 7352  15.919  10.730   8.681 -0.3053  0.1223  0.0405
  477PYPI   C3B 7353  15.818  10.418   8.355  0.3098  0.0865  0.1257
  477PYPI   C4B 7354  15.620  10.207   8.085  0.0933 -0.1136  0.0829
  478PYPI    C1 7355  18.367   5.256  11.077 -0.1284  0.2684  0.0485
  478PYPI    C2 7356  18.219   5.079  11.403 -0.0153  0.3362  0.1372
  478PYPI    C3 7357  18.606   5.178  11.387  0.0637  0.0016 -0.1617
  478PYPI   PO4 7358  18.277   5.062  10.868 -0.1193 -0.2014 -0.1227
  478PYPI   GL1 7359  18.313   5.055  10.361 -0.0958 -0.0558 -0.1038
  478PYPI   GL2 7360  17.930   4.956  10.316  0.1587  0.0639  0.0994
  478PYPI   C1A 7361  18.563   5.294  10.104  0.0363 -0.0013 -0.0971
  478PYPI   C2A 7362  18.603   5.436   9.682 -0.2298 -0.1440 -0.3354
  478PYPI   D3A 7363  18.504   5.374   9.356  0.3161 -0.1209  0.2860
  478PYPI   C4A 7364  18.148   5.003   9.217  0.2178 -0.0220  0.1693
  478PYPI   C1B 7365  17.697   5.002   9.952  0.2659  0.1693 -0.2218
  478PYPI   C2B 7366  17.523   4.932   9.624  0.3357  0.0299 -0.1887
  478PYPI   C3B 7367  17.682   5.136   9.169 -0.0145  0.3690 -0.4902
  478PYPI   C4B 7368  17.998   5.126   8.782 -0.0624  0.1181  0.0320
  479PYPI    C1 7369   2.090  13.709   9.922 -0.0703 -0.0702 -0.2185
  479PYPI    C2 7370   2.214  13.847  10.276 -0.0680 -0.0263 -0.2363
  479PYPI    C3 7371   2.209  14.089   9.958 -0.0241 -0.0791 -0.2773
  479PYPI   PO4 7372   1.887  13.491  10.016  0.2347 -0.2196 -0.2727
  479PYPI   GL1 7373   1.581  13.340   9.845  0.3409 -0.0952 -0.0032
  479PYPI   GL2 7374   1.514  13.106   9.801 -0.2601 -0.2919 -0.1572
  479PYPI   C1A 7375   1.117  13.221   9.541  0.0606 -0.0024  0.0460
  479PYPI   C2A 7376   0.956  13.395   9.165  0.2345 -0.0417  0.0391
  479PYPI   D3A 7377   0.962  13.371   8.729 -0.3731  0.0158 -0.0538
  479PYPI   C4A 7378   1.196  13.598   8.416  0.0705  0.0151 -0.1876
  479PYPI   C1B 7379   1.269  12.771   9.551  0.0573 -0.1093  0.4803
  479PYPI   C2B 7380   1.247  12.946   9.131 -0.1285 -0.1537  0.3633
  479PYPI   C3B 7381   1.450  13.226   8.898 -0.6506 -0.1778 -0.0504
  479PYPI   C4B 7382   1.596  13.553   8.752  0.0422  0.0609  0.1323
  480PYPI    C1 7383  17.936   1.051  10.574  0.1564  0.0478  0.1563
  480PYPI    C2 7384  17.740   1.195  10.891 -0.1356 -0.2447  0.1142
  480PYPI    C3 7385  17.867   0.816  10.890 -0.0321 -0.2105 -0.0721
  480PYPI   PO4 7386  17.989   1.205  10.478 -0.1261  0.1424 -0.0323
  480PYPI   GL1 7387  18.043   1.511  10.199 -0.1675 -0.0407  0.2686
  480PYPI   GL2 7388  18.392   1.596  10.012  0.5122  0.0753 -0.0467
  480PYPI   C1A 7389  18.018   1.376   9.710  0.1323 -0.0762 -0.2788
  480PYPI   C2A 7390  17.900   1.019   9.362 -0.2609  0.1935  0.2397
  480PYPI   D3A 7391  17.862   0.748   9.018  0.0750  0.1240  0.2886
  480PYPI   C4A 7392  17.851   0.788   8.475  0.0356 -0.0176 -0.0853
  480PYPI   C1B 7393  18.368   1.729   9.513 -0.1208 -0.0808  0.1169
  480PYPI   C2B 7394  18.534   2.006   9.096  0.3011  0.3401 -0.0046
  480PYPI   C3B 7395  18.314   2.327   8.818  0.2654 -0.1587  0.3733
  480PYPI   C4B 7396  18.065   2.806   8.791  0.1682 -0.1424 -0.1963
  481PYPI    C1 7397   2.423   7.363  10.686 -0.0729 -0.2689  0.0192
  481PYPI    C2 7398   2.144   7.647  10.726  0.1721 -0.0266  0.0403
  481PYPI    C3 7399   2.183   7.364  11.006  0.0359  0.0159  0.1032
  481PYPI   PO4 7400   2.417   7.222  10.346 -0.0593 -0.1400 -0.0591
  481PYPI   GL1 7401   2.702   6.886  10.105 -0.4112  0.1322  0.2184
  481PYPI   GL2 7402   2.933   6.825   9.997 -0.2306  0.3531 -0.0646
  481PYPI   C1A 7403   2.442   6.815   9.639  0.1824  0.3423  0.1234
  481PYPI   C2A 7404   2.367   6.615   9.206 -0.3413 -0.0656 -0.1145
  481PYPI   D3A 7405   2.312   6.255   8.951  0.1822  0.0695  0.3505
  481PYPI   C4A 7406   2.304   6.378   8.523 -0.1475 -0.0023 -0.0750
  481PYPI   C1B 7407   2.935   6.896   9.639  0.0106  0.1447 -0.1945
  481PYPI   C2B 7408   2.838   6.802   9.140 -0.0580 -0.2594  0.3506
  481PYPI   C3B 7409   2.915   6.932   8.757 -0.1070 -0.0012 -0.0968
  481PYPI   C4B 7410   3.162   7.034   8.451  0.0911 -0.0432 -0.2357
  482PYPI    C1 7411   5.492   8.376  10.531  0.2955  0.2741  0.0707
  482PYPI    C2 7412   5.599   8.054  10.742 -0.1762 -0.1116 -0.2575
  482PYPI    C3 7413   5.847   8.366  10.716  0.1524 -0.3057  0.3383
  482PYPI   PO4 7414   5.385   8.204  10.314 -0.1757 -0.3592 -0.0729
  482PYPI   GL1 7415   5.153   8.248   9.913 -0.2692 -0.2639  0.0403
  482PYPI   GL2 7416   5.532   8.283   9.828 -0.4363  0.1622  0.1378
  482PYPI   C1A 7417   5.104   8.014   9.631  0.2903 -0.0362  0.1870
  482PYPI   C2A 7418   5.247   7.968   9.182  0.0185  0.0845  0.1105
  482PYPI   D3A 7419   5.542   7.769   8.889  0.1089  0.1188 -0.1349
  482PYPI   C4A 7420   5.816   7.907   8.526  0.3864  0.0109  0.1748
  482PYPI   C1B 7421   5.624   8.164   9.483  0.2391  0.2279 -0.0483
  482PYPI   C2B 7422   5.801   8.011   9.198  0.0906  0.2573  0.1274
  482PYPI   C3B 7423   6.034   8.135   8.991  0.0644  0.1710  0.0431
  482PYPI   C4B 7424   6.373   8.123   8.639  0.0322  0.0683  0.0823
  483PYPI    C1 7425   6.447  14.284   9.768 -0.1542  0.0380  0.0911
  483PYPI    C2 7426   6.697  14.287  10.080  0.0056 -0.0444 -0.0342
  483PYPI    C3 7427   6.397  14.551  10.061  0.0151 -0.0169  0.1713
  483PYPI   PO4 7428   6.591  14.272   9.523 -0.1591  0.2176  0.0347
  483PYPI   GL1 7429   6.557  14.301   9.075  0.2363  0.2259  0.0662
  483PYPI   GL2 7430   6.384  14.542   9.130 -0.0487 -0.4294  0.2746
  483PYPI   C1A 7431   6.717  14.303   8.750 -0.2089  0.1998  0.0196
  483PYPI   C2A 7432   6.738  14.114   8.300  0.0891 -0.0116  0.1422
  483PYPI   D3A 7433   6.944  13.994   7.892  0.2141 -0.2565 -0.1880
  483PYPI   C4A 7434   6.914  14.108   7.509  0.1983 -0.0667 -0.0371
  483PYPI   C1B 7435   6.189  14.874   9.045 -0.1829  0.1670 -0.1606
  483PYPI   C2B 7436   6.096  14.932   8.636 -0.3059  0.0742 -0.5423
  483PYPI   C3B 7437   6.094  14.957   8.253  0.3245  0.3617  0.2557
  483PYPI   C4B 7438   5.786  15.130   7.901  0.0215  0.1503  0.0132
  484PYPI    C1 7439   9.303   4.832  10.394 -0.0098 -0.0169  0.1104
  484PYPI    C2 7440   9.510   4.712  10.714 -0.0813  0.2908  0.2754
  484PYPI    C3 7441   9.139   4.856  10.758 -0.1802  0.1178  0.0265
  484PYPI   PO4 7442   9.443   4.983  10.299 -0.1840  0.1677  0.0335
  484PYPI   GL1 7443   9.588   4.840   9.875  0.3494  0.2645  0.0591
  484PYPI   GL2 7444   9.315   4.764   9.894 -0.0409 -0.2765  0.1662
  484PYPI   C1A 7445   9.772   5.012   9.549 -0.1431 -0.0057 -0.1276
  484PYPI   C2A 7446   9.973   5.225   9.206 -0.3890  0.0400 -0.3432
  484PYPI   D3A 7447   9.905   5.407   8.765  0.2752  0.2155  0.1265
  484PYPI   C4A 7448   9.975   5.751   8.623  0.0722 -0.0759  0.0292
  484PYPI   C1B 7449   9.294   4.637   9.466 -0.1334 -0.0791  0.1208
  484PYPI   C2B 7450   9.227   4.639   9.037  0.2167  0.0430 -0.0566
  484PYPI   C3B 7451   9.369   4.666   8.576  0.1104  0.3634 -0.2726
  484PYPI   C4B 7452   9.424   4.522   8.079 -0.3866  0.0530 -0.1058
  485PYPI    C1 7453   1.413   9.946  10.494  0.0558 -0.0958 -0.1891
  485PYPI    C2 7454   1.370  10.275  10.718  0.0220 -0.1450 -0.1232
  485PYPI    C3 7455   1.680  10.030  10.780  0.0042 -0.1667 -0.1198
  485PYPI   PO4 7456   1.351  10.017  10.312  0.3174  0.1812 -0.0459
  485PYPI   GL1 7457   1.075  10.029   9.924 -0.1350 -0.0255  0.2526
  485PYPI   GL2 7458   0.901  10.170   9.658 -0.3621  0.6322 -0.3960
  485PYPI   C1A 7459   1.279   9.617   9.649  0.1901 -0.2723 -0.2653
  485PYPI   C2A 7460   1.407   9.375   9.257 -0.1190  0.0682 -0.0888
  485PYPI   D3A 7461   1.401   9.409   8.789  0.0000  0.2754 -0.3411
  485PYPI   C4A 7462   1.600   9.006   8.650 -0.1980  0.2019 -0.1371
  485PYPI   C1B 7463   0.943  10.219   9.238  0.1082 -0.1499  0.2527
  485PYPI   C2B 7464   1.006  10.479   8.998 -0.2473  0.0668 -0.0865
  485PYPI   C3B 7465   1.235  10.743   8.589 -0.1990  0.0061  0.1139
  485PYPI   C4B 7466   1.481  10.464   8.388  0.0476 -0.2141  0.2334
  486PYPI    C1 7467  17.895  15.315  10.320  0.0458  0.1739 -0.1759
  486PYPI    C2 7468  17.737  15.669  10.421  0.0487  0.1474 -0.0781
  486PYPI    C3 7469  18.079  15.546  10.589 -0.1510 -0.0715  0.1781
  486PYPI   PO4 7470  17.856  15.304  10.010 -0.3286  0.0912  0.0292
  486PYPI   GL1 7471  17.673  14.898   9.715 -0.1122  0.1500 -0.0713
  486PYPI   GL2 7472  17.473  15.076   9.439 -0.3173  0.1411 -0.0856
  486PYPI   C1A 7473  17.931  14.674   9.553  0.0994  0.1524 -0.2132
  486PYPI   C2A 7474  18.096  14.473   9.158  0.0467  0.0694  0.3085
  486PYPI   D3A 7475  18.245  14.489   8.786 -0.1658 -0.1776 -0.0150
  486PYPI   C4A 7476  18.152  14.620   8.474 -0.1708 -0.1172  0.1093
  486PYPI   C1B 7477  17.365  15.136   8.977 -0.0574  0.4032  0.2673
  486PYPI   C2B 7478  17.219  15.090   8.648 -0.0846  0.2937  0.2998
  486PYPI   C3B 7479  16.931  14.805   8.412  0.0383  0.1102 -0.0305
  486PYPI   C4B 7480  16.737  14.538   8.055 -0.0845 -0.0780 -0.0527
  487PYPI    C1 7481   1.809  12.728  10.033  0.0992  0.3009 -0.1331
  487PYPI    C2 7482   2.042  12.690  10.356  0.0031  0.1040 -0.0850
  487PYPI    C3 7483   2.004  13.046  10.177  0.0607  0.2135  0.1174
  487PYPI   PO4 7484   1.896  12.477   9.887 -0.0079 -0.2193 -0.0508
  487PYPI   GL1 7485   2.366  12.446   9.760  0.0114 -0.0637 -0.4716
  487PYPI   GL2 7486   2.371  12.117   9.703  0.3498 -0.3868 -0.2606
  487PYPI   C1A 7487   2.214  12.567   9.351  0.2241 -0.2180 -0.1292
  487PYPI   C2A 7488   2.101  12.674   8.892  0.1663 -0.1892 -0.0843
  487PYPI   D3A 7489   2.114  12.652   8.322 -0.2068  0.1674 -0.1009
  487PYPI   C4A 7490   2.582  12.717   8.089  0.0059  0.1801  0.1266
  487PYPI   C1B 7491   2.403  11.745   9.537 -0.2212 -0.0952  0.1227
  487PYPI   C2B 7492   2.378  11.697   9.055  0.0240 -0.2854 -0.0579
  487PYPI   C3B 7493   2.362  11.777   8.660  0.1033  0.1913 -0.0554
  487PYPI   C4B 7494   2.199  11.750   8.276 -0.2497 -0.0539 -0.0877
  488PYPI    C1 7495   8.932  16.818  10.015  0.0153  0.1476  0.0222
  488PYPI    C2 7496   9.023  16.597  10.337  0.0653  0.2370  0.0698
  488PYPI    C3 7497   8.686  16.526  10.133  0.0320  0.1821  0.1437
  488PYPI   PO4 7498   9.183  16.823   9.852  0.2179  0.0409  0.4537
  488PYPI   GL1 7499   9.286  17.028   9.411  0.2353  0.2528 -0.0515
  488PYPI   GL2 7500   9.450  16.800   9.375  0.1962  0.3339 -0.0111
  488PYPI   C1A 7501   9.324  17.218   8.961  0.2136  0.0015 -0.1554
  488PYPI   C2A 7502   9.260  17.608   8.816 -0.4589  0.1830  0.2522
  488PYPI   D3A 7503   9.154  18.077   8.774  0.2220 -0.1152 -0.0159
  488PYPI   C4A 7504   9.328  18.246   8.356 -0.0828 -0.0149  0.2043
  488PYPI   C1B 7505   9.252  16.712   8.911 -0.0788  0.1146 -0.1336
  488PYPI   C2B 7506   9.294  16.891   8.521  0.3492  0.2211 -0.0412
  488PYPI   C3B 7507   9.496  17.033   8.132  0.1061  0.1837 -0.0222
  488PYPI   C4B 7508   9.698  17.230   7.715  0.0944 -0.0109 -0.1463
  489PYPI    C1 7509   8.139   7.778  10.524 -0.2742 -0.0428  0.0804
  489PYPI    C2 7510   8.320   7.908  10.856 -0.0643  0.0567 -0.0710
  489PYPI    C3 7511   8.235   7.520  10.814  0.0047  0.0274  0.0533
  489PYPI   PO4 7512   8.288   7.833  10.303  0.2589  0.1679 -0.0561
  489PYPI   GL1 7513   8.490   7.610   9.850  0.3096 -0.1284 -0.1950
  489PYPI   GL2 7514   8.205   7.328   9.824  0.0130 -0.3639  0.0124
  489PYPI   C1A 7515   8.608   7.377   9.563 -0.1249  0.1896  0.0936
  489PYPI   C2A 7516   8.631   7.024   9.564  0.2506  0.1584  0.2418
  489PYPI   D3A 7517   8.647   6.538   9.535 -0.4547 -0.1395  0.1414
  489PYPI   C4A 7518   8.948   6.260   9.443  0.0705 -0.3209 -0.0387
  489PYPI   C1B 7519   8.192   7.251   9.373 -0.2009  0.1345 -0.1518
  489PYPI   C2B 7520   8.542   7.222   9.066 -0.1662  0.0561 -0.3307
  489PYPI   C3B 7521   8.467   7.114   8.648  0.0666 -0.1692  0.0675
  489PYPI   C4B 7522   8.271   7.212   8.250 -0.1523  0.2735  0.2668
  490PYPI    C1 7523  10.084   3.277  10.123  0.1413  0.0490 -0.0697
  490PYPI    C2 7524  10.386   3.400  10.355  0.1004 -0.0038  0.0120
  490PYPI    C3 7525  10.011   3.509  10.441  0.0508 -0.2766  0.1525
  490PYPI   PO4 7526  10.069   3.357   9.884  0.1817  0.0512  0.2187
  490PYPI   GL1 7527  10.256   3.496   9.482  0.2809 -0.1681 -0.1870
  490PYPI   GL2 7528  10.058   3.445   9.256  0.0809  0.1183  0.2087
  490PYPI   C1A 7529  10.565   3.357   9.168  0.1623 -0.0915 -0.1303
  490PYPI   C2A 7530  10.592   2.914   9.076  0.2399  0.1331 -0.3091
  490PYPI   D3A 7531  10.582   2.751   8.691  0.0646  0.0485 -0.0129
  490PYPI   C4A 7532  10.220   2.665   8.554 -0.0224  0.3209 -0.2263
  490PYPI   C1B 7533   9.793   3.790   8.966 -0.0031 -0.1638 -0.1485
  490PYPI   C2B 7534   9.802   3.816   8.606 -0.3096  0.3177 -0.0491
  490PYPI   C3B 7535   9.975   3.862   8.170  0.1276 -0.0942  0.0676
  490PYPI   C4B 7536   9.944   3.739   7.737  0.2157  0.0784 -0.0121
  491PYPI    C1 7537  13.356  11.659  10.503 -0.0321 -0.0499 -0.0934
  491PYPI    C2 7538  13.339  11.324  10.722  0.3903 -0.0362 -0.0315
  491PYPI    C3 7539  13.188  11.665  10.866 -0.0538 -0.1975 -0.1004
  491PYPI   PO4 7540  13.393  11.516  10.273 -0.0690 -0.2531 -0.3065
  491PYPI   GL1 7541  13.406  11.588   9.793 -0.2805 -0.2305 -0.0229
  491PYPI   GL2 7542  13.792  11.681   9.784  0.0550 -0.1754 -0.0873
  491PYPI   C1A 7543  13.493  11.545   9.337  0.2404 -0.0490 -0.0518
  491PYPI   C2A 7544  13.452  11.639   8.975 -0.1592 -0.0752 -0.2400
  491PYPI   D3A 7545  13.274  11.565   8.551  0.3601  0.0452 -0.1245
  491PYPI   C4A 7546  13.475  11.482   8.213 -0.0423 -0.0374 -0.3214
  491PYPI   C1B 7547  14.015  11.731   9.471  0.3513  0.0484 -0.1634
  491PYPI   C2B 7548  14.001  11.795   9.055 -0.2517 -0.0422 -0.0514
  491PYPI   C3B 7549  14.229  11.627   8.649  0.0319  0.2032  0.1482
  491PYPI   C4B 7550  14.037  11.656   8.162 -0.1875  0.2501  0.0733
  492PYPI    C1 7551  16.060  15.169  10.258  0.1766  0.0174 -0.0939
  492PYPI    C2 7552  15.834  15.160  10.588 -0.0253 -0.1074 -0.2333
  492PYPI    C3 7553  16.231  15.127  10.617 -0.0131  0.2100  0.0219
  492PYPI   PO4 7554  15.954  15.075  10.073 -0.2388 -0.0241  0.1461
  492PYPI   GL1 7555  15.619  14.915   9.810  0.1058 -0.2146 -0.1269
  492PYPI   GL2 7556  15.852  14.931   9.604 -0.0144 -0.1079 -0.0259
  492PYPI   C1A 7557  15.405  14.725   9.544  0.0680  0.2819 -0.2688
  492PYPI   C2A 7558  15.400  14.670   9.114  0.1391 -0.0745 -0.0731
  492PYPI   D3A 7559  15.375  14.882   8.967  0.0659 -0.5214  0.1924
  492PYPI   C4A 7560  15.473  14.816   8.460  0.1958 -0.1480 -0.1359
  492PYPI   C1B 7561  15.586  15.110   9.313 -0.0995 -0.0725 -0.2170
  492PYPI   C2B 7562  15.487  15.314   9.032  0.1462 -0.0081 -0.0235
  492PYPI   C3B 7563  15.253  15.299   8.723  0.1837 -0.0246 -0.2857
  492PYPI   C4B 7564  14.994  15.360   8.498 -0.0302 -0.1849  0.0634
  493PYPI    C1 7565  14.729   8.368  10.475 -0.0467 -0.0762 -0.1100
  493PYPI    C2 7566  15.053   8.594  10.536 -0.1123  0.0412 -0.1932
  493PYPI    C3 7567  14.689   8.744  10.607 -0.1572 -0.0312 -0.2697
  493PYPI   PO4 7568  14.859   8.161  10.348 -0.0707  0.0703 -0.3384
  493PYPI   GL1 7569  15.060   8.405  10.035  0.1660 -0.2532  0.1077
  493PYPI   GL2 7570  15.179   8.150   9.917  0.2809  0.1606  0.0834
  493PYPI   C1A 7571  15.040   8.683   9.641 -0.1680 -0.2040 -0.0880
  493PYPI   C2A 7572  15.030   9.105   9.518  0.0460 -0.0283  0.0217
  493PYPI   D3A 7573  15.080   9.240   9.148  0.1903  0.0399  0.2900
  493PYPI   C4A 7574  14.920   8.996   8.829 -0.0243 -0.3272  0.0796
  493PYPI   C1B 7575  15.310   8.249   9.424  0.2728  0.1311 -0.2044
  493PYPI   C2B 7576  15.317   8.139   9.008  0.1839 -0.0908  0.1300
  493PYPI   C3B 7577  15.314   7.798   8.752  0.0333 -0.3582 -0.3954
  493PYPI   C4B 7578  15.529   7.355   8.830 -0.4166  0.1833 -0.1490
  494PYPI    C1 7579   7.701   1.671   9.850 -0.0663 -0.2755 -0.2513
  494PYPI    C2 7580   7.480   1.428  10.079  0.0602 -0.2075 -0.0542
  494PYPI    C3 7581   7.829   1.568  10.215  0.0889 -0.0847 -0.2505
  494PYPI   PO4 7582   7.708   1.552   9.648 -0.0214  0.0155  0.2040
  494PYPI   GL1 7583   7.741   1.446   9.206 -0.1633 -0.2796  0.1333
  494PYPI   GL2 7584   7.636   1.797   9.177  0.0337  0.0930  0.1637
  494PYPI   C1A 7585   7.762   1.378   8.848 -0.0919 -0.0530  0.1092
  494PYPI   C2A 7586   8.015   1.527   8.466  0.5380 -0.0853  0.0481
  494PYPI   D3A 7587   7.979   1.277   8.141  0.0562 -0.2560 -0.2713
  494PYPI   C4A 7588   8.198   1.273   7.743  0.0735  0.1569 -0.0754
  494PYPI   C1B 7589   7.677   1.855   8.866  0.1113  0.0566  0.4099
  494PYPI   C2B 7590   7.608   1.838   8.478  0.3626 -0.0914 -0.0247
  494PYPI   C3B 7591   7.522   2.096   8.211  0.0714 -0.1064 -0.5143
  494PYPI   C4B 7592   7.838   2.364   7.932 -0.0842 -0.0030  0.1565
  495PYPI    C1 7593  14.310   2.800  10.144 -0.0797 -0.0499  0.2712
  495PYPI    C2 7594  14.558   2.904  10.440 -0.1214  0.1620  0.2330
  495PYPI    C3 7595  14.696   2.869  10.066 -0.0510 -0.1885  0.2891
  495PYPI   PO4 7596  14.023   2.899  10.190 -0.0523  0.2172 -0.1801
  495PYPI   GL1 7597  13.811   2.685   9.998 -0.0476  0.1640  0.0087
  495PYPI   GL2 7598  13.583   2.841   9.755 -0.2639  0.0605  0.1977
  495PYPI   C1A 7599  13.817   2.354   9.680 -0.0630 -0.0924  0.0135
  495PYPI   C2A 7600  14.000   1.846   9.689  0.2846  0.0006 -0.4307
  495PYPI   D3A 7601  14.054   1.548   9.444  0.1234  0.1247  0.2515
  495PYPI   C4A 7602  14.193   1.660   9.145  0.3212  0.1199  0.1066
  495PYPI   C1B 7603  13.645   2.632   9.272 -0.0584  0.0524  0.1380
  495PYPI   C2B 7604  13.657   2.649   8.808  0.1221 -0.0048 -0.0517
  495PYPI   C3B 7605  13.755   2.887   8.423  0.1323 -0.1986 -0.0708
  495PYPI   C4B 7606  13.885   2.986   7.919  0.0100 -0.0467  0.1604
  496PYPI    C1 7607   3.891   4.180  10.351  0.1463  0.0776  0.0820
  496PYPI    C2 7608   3.796   3.862  10.575 -0.1398  0.0567 -0.0642
  496PYPI    C3 7609   3.987   4.172  10.740  0.0883 -0.1631  0.0935
  496PYPI   PO4 7610   3.647   4.185  10.247  0.0156 -0.1728 -0.0193
  496PYPI   GL1 7611   3.403   4.316   9.988  0.2051 -0.1073  0.1334
  496PYPI   GL2 7612   3.251   4.674  10.000 -0.1117  0.1604  0.1585
  496PYPI   C1A 7613   3.580   4.453   9.625  0.0455  0.0347 -0.3144
  496PYPI   C2A 7614   3.558   4.253   9.178  0.0411 -0.2338  0.0116
  496PYPI   D3A 7615   3.409   3.984   8.863 -0.0503 -0.1721  0.2907
  496PYPI   C4A 7616   3.533   3.667   8.625 -0.4121  0.2945 -0.1699
  496PYPI   C1B 7617   3.075   4.488   9.611 -0.0075 -0.1946  0.1824
  496PYPI   C2B 7618   3.060   4.547   9.179 -0.0716  0.0178 -0.3638
  496PYPI   C3B 7619   3.212   4.492   8.754  0.2761  0.1648 -0.1699
  496PYPI   C4B 7620   3.391   4.255   8.481 -0.0693 -0.1695  0.2433
  497PYPI    C1 7621  17.313   9.142  10.665  0.1236  0.0520  0.1184
  497PYPI    C2 7622  17.163   9.099  11.033  0.4395  0.2198  0.2712
  497PYPI    C3 7623  17.177   9.461  10.865 -0.1949  0.0752 -0.1276
  497PYPI   PO4 7624  17.175   8.919  10.550  0.0266 -0.0300 -0.0111
  497PYPI   GL1 7625  17.271   8.715  10.146  0.1878 -0.0615  0.0600
  497PYPI   GL2 7626  17.536   8.602   9.857 -0.3029 -0.1170  0.2725
  497PYPI   C1A 7627  16.859   8.726   9.966  0.0410 -0.0712 -0.1859
  497PYPI   C2A 7628  16.651   8.870   9.562  0.0270  0.1609  0.0328
  497PYPI   D3A 7629  16.477   8.962   9.205  0.0733  0.1514  0.0890
  497PYPI   C4A 7630  16.308   8.956   8.750  0.0151  0.1406 -0.0843
  497PYPI   C1B 7631  17.114   8.658   9.501  0.1341 -0.2562 -0.2086
  497PYPI   C2B 7632  17.095   8.540   9.116 -0.3011 -0.0171 -0.1583
  497PYPI   C3B 7633  17.412   8.331   8.858  0.0169 -0.0161 -0.1510
  497PYPI   C4B 7634  17.687   8.585   8.587 -0.3152  0.1425  0.2483
  498PYPI    C1 7635  11.323  14.326   9.922  0.1377  0.1578  0.1162
  498PYPI    C2 7636  11.650  14.288   9.695  0.1681  0.0766  0.1735
  498PYPI    C3 7637  11.665  14.200  10.085 -0.0555 -0.4595  0.0696
  498PYPI   PO4 7638  11.150  14.196   9.805 -0.0231  0.2161 -0.3964
  498PYPI   GL1 7639  11.173  13.911   9.469 -0.2561 -0.0439 -0.0117
  498PYPI   GL2 7640  11.158  13.573   9.387 -0.0188  0.0199 -0.0654
  498PYPI   C1A 7641  11.067  13.915   8.987  0.0490 -0.0815 -0.1172
  498PYPI   C2A 7642  11.262  13.828   8.541  0.0250 -0.0475  0.1489
  498PYPI   D3A 7643  11.488  13.868   8.184 -0.0714  0.3354  0.0977
  498PYPI   C4A 7644  11.322  14.042   7.765 -0.1426  0.2407 -0.0111
  498PYPI   C1B 7645  11.084  13.362   9.069 -0.0524 -0.3391  0.0256
  498PYPI   C2B 7646  11.174  13.185   8.655 -0.0040 -0.3306 -0.2793
  498PYPI   C3B 7647  11.186  12.984   8.321 -0.0714  0.2212 -0.0433
  498PYPI   C4B 7648  11.452  12.660   8.116 -0.1100 -0.1467 -0.3037
  499PYPI    C1 7649  17.004   9.863  10.645 -0.0756 -0.1865 -0.5134
  499PYPI    C2 7650  17.021  10.212  10.840  0.2088 -0.3389 -0.2550
  499PYPI    C3 7651  16.698   9.979  10.874  0.1654 -0.2629 -0.1431
  499PYPI   PO4 7652  17.070   9.884  10.399  0.4476 -0.1109 -0.1176
  499PYPI   GL1 7653  16.908   9.803  10.053  0.0591  0.2730 -0.1881
  499PYPI   GL2 7654  16.846   9.575   9.808  0.0336 -0.0317  0.2379
  499PYPI   C1A 7655  17.111   9.955   9.693  0.1535  0.0231 -0.4243
  499PYPI   C2A 7656  17.478  10.024   9.461 -0.3252  0.0709 -0.0883
  499PYPI   D3A 7657  17.865  10.121   9.247 -0.0110  0.0088 -0.1000
  499PYPI   C4A 7658  17.749  10.185   8.711  0.2457 -0.3328 -0.0916
  499PYPI   C1B 7659  16.836   9.756   9.315 -0.0832  0.1541 -0.0040
  499PYPI   C2B 7660  17.043  10.128   9.208 -0.0026 -0.0060  0.0661
  499PYPI   C3B 7661  17.370  10.020   8.928 -0.0312 -0.1599  0.1985
  499PYPI   C4B 7662  17.423   9.718   8.606 -0.1406 -0.0565  0.1721
  500PYPI    C1 7663   9.351  14.153   9.599 -0.1256  0.2233  0.1587
  500PYPI    C2 7664   9.631  14.298   9.352  0.0772 -0.1237  0.1783
  500PYPI    C3 7665   9.457  14.538   9.620 -0.1897  0.2754 -0.3331
  500PYPI   PO4 7666   9.491  13.898   9.629 -0.2678  0.0153  0.0271
  500PYPI   GL1 7667   9.670  13.775   9.324  0.1291 -0.1665 -0.1490
  500PYPI   GL2 7668   9.351  13.625   9.161 -0.0852 -0.1449 -0.0697
  500PYPI   C1A 7669   9.553  14.112   8.908  0.1976  0.5311 -0.4145
  500PYPI   C2A 7670   9.071  14.250   8.785  0.3036  0.1444  0.1471
  500PYPI   D3A 7671   8.831  14.640   8.807 -0.1092  0.0383  0.0315
  500PYPI   C4A 7672   8.380  14.579   9.011 -0.2438  0.0947 -0.1534
  500PYPI   C1B 7673   9.235  13.625   8.780 -0.0317 -0.1662  0.0218
  500PYPI   C2B 7674   9.267  13.931   8.505 -0.0602  0.2848  0.1088
  500PYPI   C3B 7675   9.586  14.030   8.213 -0.2272  0.0365 -0.0457
  500PYPI   C4B 7676   9.892  13.855   7.921 -0.2271 -0.0124 -0.0859
  501PYPI    C1 7677   6.411  10.756  10.302  0.4363  0.0034 -0.0877
  501PYPI    C2 7678   6.537  11.098  10.467 -0.1911  0.2107 -0.0151
  501PYPI    C3 7679   6.369  10.816  10.695  0.1473 -0.0710 -0.1056
  501PYPI   PO4 7680   6.348  10.877  10.036 -0.2185 -0.0374  0.0829
  501PYPI   GL1 7681   6.098  10.737   9.694  0.0083  0.2462  0.0467
  501PYPI   GL2 7682   5.865  10.488   9.727  0.2103 -0.1545  0.1067
  501PYPI   C1A 7683   5.988  11.038   9.314  0.0357 -0.0319 -0.4106
  501PYPI   C2A 7684   6.097  11.290   8.988  0.2327  0.1269  0.0201
  501PYPI   D3A 7685   6.298  11.252   8.578  0.1718  0.2169  0.0925
  501PYPI   C4A 7686   6.228  11.262   8.159 -0.0359 -0.1219  0.1306
  501PYPI   C1B 7687   5.854  10.528   9.345  0.3520  0.2484  0.0459
  501PYPI   C2B 7688   5.762  10.632   8.897  0.0288 -0.0858 -0.1522
  501PYPI   C3B 7689   5.802  10.989   8.722 -0.0864 -0.1129 -0.0651
  501PYPI   C4B 7690   5.844  10.915   8.262  0.0650 -0.0631  0.3650
  502PYPI    C1 7691  11.310   1.575  10.102  0.2010  0.1733  0.0580
  502PYPI    C2 7692  11.252   1.817   9.789  0.0736  0.0753  0.0048
  502PYPI    C3 7693  11.335   1.972  10.148 -0.0245  0.1989 -0.0250
  502PYPI   PO4 7694  11.097   1.308   9.970 -0.3736  0.1728  0.1145
  502PYPI   GL1 7695  11.166   1.008   9.560  0.1867 -0.0316 -0.3886
  502PYPI   GL2 7696  11.293   1.280   9.507  0.0231  0.3466 -0.0164
  502PYPI   C1A 7697  11.038   0.822   9.197  0.1805 -0.2615  0.2369
  502PYPI   C2A 7698  11.002   0.898   8.794  0.1064 -0.0828 -0.1965
  502PYPI   D3A 7699  11.238   1.169   8.563  0.0336  0.1386  0.0693
  502PYPI   C4A 7700  11.144   1.075   8.112  0.1262 -0.0231 -0.0603
  502PYPI   C1B 7701  11.207   1.324   9.098  0.0493  0.3551  0.0786
  502PYPI   C2B 7702  11.010   1.587   8.753  0.2494  0.0925 -0.0642
  502PYPI   C3B 7703  10.986   1.635   8.307  0.1200  0.0991  0.1723
  502PYPI   C4B 7704  11.126   1.678   7.816 -0.3363 -0.2588 -0.3098
  503PYPI    C1 7705  13.893  10.499  10.195 -0.0630 -0.0036 -0.2075
  503PYPI    C2 7706  13.822  10.257  10.506 -0.1825  0.1060 -0.1486
  503PYPI    C3 7707  13.982  10.110  10.170  0.1137  0.0198  0.0271
  503PYPI   PO4 7708  13.754  10.635  10.196 -0.0070  0.3299 -0.4755
  503PYPI   GL1 7709  13.431  10.585   9.896  0.3316  0.0721 -0.0001
  503PYPI   GL2 7710  13.265  10.856   9.779  0.0874 -0.0644 -0.1692
  503PYPI   C1A 7711  13.520  10.575   9.436 -0.0007 -0.1353  0.0630
  503PYPI   C2A 7712  13.565  10.697   9.069 -0.1590  0.1204 -0.1876
  503PYPI   D3A 7713  13.604  10.732   8.738 -0.1532  0.0404 -0.0348
  503PYPI   C4A 7714  13.646  10.589   8.335 -0.0091  0.0789  0.0795
  503PYPI   C1B 7715  13.299  11.121   9.452 -0.0354 -0.0762 -0.2810
  503PYPI   C2B 7716  13.251  11.128   9.082 -0.5347 -0.0059  0.1737
  503PYPI   C3B 7717  13.078  10.936   8.804  0.0321 -0.1872  0.0997
  503PYPI   C4B 7718  12.708  10.584   8.808 -0.1159  0.1672 -0.1330
  504PYPI    C1 7719  13.929   0.195  10.148 -0.0079  0.2981  0.1076
  504PYPI    C2 7720  13.907  -0.176  10.295  0.0227  0.1283 -0.3027
  504PYPI    C3 7721  14.215   0.060  10.392 -0.0824  0.1100  0.0921
  504PYPI   PO4 7722  13.623   0.208  10.090  0.0785 -0.1463 -0.1503
  504PYPI   GL1 7723  13.434   0.280   9.728 -0.4425  0.2100  0.5653
  504PYPI   GL2 7724  13.126   0.227   9.631 -0.1550  0.1051 -0.1707
  504PYPI   C1A 7725  13.698   0.406   9.304 -0.0411 -0.2693 -0.0151
  504PYPI   C2A 7726  13.763   0.595   8.857  0.3909 -0.1002  0.0637
  504PYPI   D3A 7727  13.858   0.733   8.439 -0.1946 -0.0838 -0.3533
  504PYPI   C4A 7728  14.168   0.924   8.352 -0.0273 -0.2514 -0.2110
  504PYPI   C1B 7729  13.165   0.612   9.282 -0.3650 -0.0139  0.0147
  504PYPI   C2B 7730  13.241   0.642   8.786 -0.0800  0.0793 -0.2687
  504PYPI   C3B 7731  13.211   0.572   8.400  0.0829 -0.0248  0.2119
  504PYPI   C4B 7732  13.097   0.671   8.039 -0.0357 -0.0853 -0.0332
  505PYPI    C1 7733  16.736  17.076  10.414 -0.0477  0.1025 -0.1502
  505PYPI    C2 7734  16.895  16.762  10.603 -0.1190  0.0282 -0.2132
  505PYPI    C3 7735  16.855  17.111  10.794 -0.0600 -0.0071 -0.1361
  505PYPI   PO4 7736  16.876  16.953  10.138 -0.0805 -0.0016 -0.0686
  505PYPI   GL1 7737  17.247  17.172   9.854  0.0235 -0.1625 -0.4537
  505PYPI   GL2 7738  17.247  16.846   9.769 -0.3756  0.0607 -0.4723
  505PYPI   C1A 7739  17.378  17.336   9.446 -0.2794  0.0913 -0.1390
  505PYPI   C2A 7740  17.554  17.750   9.435  0.0941 -0.0154 -0.1668
  505PYPI   D3A 7741  17.803  18.012   9.144  0.0250  0.0072  0.1211
  505PYPI   C4A 7742  18.037  17.839   8.810  0.1550  0.0637 -0.1169
  505PYPI   C1B 7743  17.094  16.890   9.328  0.2083  0.1392  0.1822
  505PYPI   C2B 7744  17.109  16.741   8.916 -0.5998 -0.0845  0.0397
  505PYPI   C3B 7745  17.282  16.902   8.484 -0.0091  0.0661 -0.2781
  505PYPI   C4B 7746  17.374  17.010   8.089  0.1023 -0.1853 -0.2772
  506ERGO   ROH 7747   0.658  14.853   9.698  0.1348  0.1471 -0.0736
  506ERGO    R1 7748   0.820  14.980   9.504  0.1638  0.0499 -0.1171
  506ERGO    R2 7749   1.090  14.928   9.478  0.1896  0.0772 -0.0164
  506ERGO    R3 7750   1.022  14.877   9.220  0.2523 -0.1072  0.0044
  506ERGO    R4 7751   1.275  15.024   9.202  0.0763  0.1674 -0.0595
  506ERGO    R5 7752   1.089  15.074   9.100  0.0274 -0.0881 -0.0809
  506ERGO    C1 7753   1.319  15.032   8.799  0.0691  0.0469 -0.0652
  506ERGO    C2 7754   1.544  14.938   8.653  0.0683 -0.1268  0.0245
  507ERGO   ROH 7755  15.678  16.008   9.612 -0.0335 -0.1860 -0.0101
  507ERGO    R1 7756  15.622  15.854   9.381  0.0351 -0.0834 -0.0960
  507ERGO    R2 7757  15.502  15.962   9.156 -0.0205 -0.0127 -0.0356
  507ERGO    R3 7758  15.720  15.860   9.030  0.0282  0.1614 -0.0949
  507ERGO    R4 7759  15.567  15.992   8.818 -0.1338  0.0303 -0.0541
  507ERGO    R5 7760  15.637  15.786   8.818  0.0329  0.0890 -0.0690
  507ERGO    C1 7761  15.810  15.914   8.503 -0.1542  0.2188 -0.1205
  507ERGO    C2 7762  15.772  16.002   8.230  0.1204 -0.0159 -0.1170
  508ERGO   ROH 7763  11.503   1.773   9.250  0.0625  0.3418  0.0058
  508ERGO    R1 7764  11.458   1.789   8.971  0.0523  0.1952 -0.0023
  508ERGO    R2 7765  11.660   1.757   8.786  0.0510  0.1248  0.0065
  508ERGO    R3 7766  11.494   1.568   8.685  0.0703  0.0535  0.1082
  508ERGO    R4 7767  11.628   1.681   8.450 -0.0495  0.0463  0.0340
  508ERGO    R5 7768  11.413   1.662   8.480 -0.0335 -0.0125  0.1177
  508ERGO    C1 7769  11.453   1.459   8.160 -0.0899 -0.0663  0.1455
  508ERGO    C2 7770  11.460   1.331   7.751  0.1512 -0.0748  0.0270
  509ERGO   ROH 7771   6.104  15.206   9.469  0.3730  0.0216  0.0412
  509ERGO    R1 7772   5.946  15.250   9.238  0.1659 -0.0066  0.1749
  509ERGO    R2 7773   5.965  15.480   9.085  0.0226 -0.0211  0.1351
  509ERGO    R3 7774   6.006  15.303   8.883 -0.1501 -0.0384  0.1133
  509ERGO    R4 7775   5.895  15.540   8.752  0.0261  0.0680  0.1502
  509ERGO    R5 7776   5.820  15.336   8.736 -0.1449  0.1287  0.1415
  509ERGO    C1 7777   5.893  15.409   8.369 -0.1340  0.1038  0.1384
  509ERGO    C2 7778   5.859  15.660   8.141  0.2227  0.3670 -0.3010
  510ERGO   ROH 7779   6.079  12.145   8.989  0.3494 -0.1158  0.0056
  510ERGO    R1 7780   6.066  11.896   8.855  0.1163 -0.1211  0.0337
  510ERGO    R2 7781   5.861  11.715   8.897 -0.0840  0.0937  0.0165
  510ERGO    R3 7782   5.836  11.731   8.627 -0.0144  0.0909  0.0103
  510ERGO    R4 7783   5.692  11.487   8.701 -0.0810  0.1258 -0.0231
  510ERGO    R5 7784   5.851  11.504   8.552 -0.0432  0.0890  0.0176
  510ERGO    C1 7785   5.570  11.368   8.332 -0.0138  0.1420 -0.0521
  510ERGO    C2 7786   5.412  11.326   7.987  0.5679  0.0207  0.1280
  511ERGO   ROH 7787  13.923  16.184   9.412  0.0831 -0.0270 -0.0454
  511ERGO    R1 7788  14.015  16.009   9.209 -0.0894 -0.2330  0.0489
  511ERGO    R2 7789  13.846  15.837   9.073 -0.3611  0.1973 -0.1912
  511ERGO    R3 7790  13.952  15.960   8.854  0.2308 -0.0143 -0.0402
  511ERGO    R4 7791  13.882  15.691   8.762 -0.2708  0.1637 -0.1647
  511ERGO    R5 7792  14.076  15.787   8.744 -0.0137 -0.2871  0.1098
  511ERGO    C1 7793  14.002  15.720   8.376  0.3373 -0.0547 -0.0074
  511ERGO    C2 7794  13.993  15.804   7.995  0.1644 -0.2164  0.1241
  512ERGO   ROH 7795   3.940   9.138   9.708  0.2471  0.0230 -0.0902
  512ERGO    R1 7796   3.940   9.272   9.458  0.0622  0.0226 -0.0919
  512ERGO    R2 7797   4.006   9.145   9.222  0.0532  0.0645 -0.1153
  512ERGO    R3 7798   3.764   9.241   9.141 -0.0417 -0.0936 -0.0245
  512ERGO    R4 7799   3.897   9.156   8.894 -0.0404  0.0672 -0.0844
  512ERGO    R5 7800   3.810   9.352   8.934 -0.1773 -0.0044 -0.0099
  512ERGO    C1 7801   3.607   9.252   8.627 -0.1839 -0.0797  0.0187
  512ERGO    C2 7802   3.450   9.249   8.348 -0.2733  0.0809 -0.1843
  513ERGO   ROH 7803   8.168  17.398   9.176 -0.0679  0.0186 -0.0055
  513ERGO    R1 7804   8.339  17.305   8.971 -0.1395 -0.2025  0.0307
  513ERGO    R2 7805   8.248  17.156   8.757 -0.3310  0.0959 -0.1086
  513ERGO    R3 7806   8.370  17.350   8.611  0.1318 -0.0456  0.0715
  513ERGO    R4 7807   8.301  17.142   8.415 -0.2720  0.2474 -0.1052
  513ERGO    R5 7808   8.498  17.230   8.447 -0.0824 -0.1996  0.0158
  513ERGO    C1 7809   8.445  17.317   8.080  0.1966  0.2029  0.0658
  513ERGO    C2 7810   8.437  17.461   7.744 -0.2800  0.0538  0.0207
  514ERGO   ROH 7811  13.821  11.084   9.857  0.4025 -0.1364  0.0028
  514ERGO    R1 7812  13.791  11.204   9.603  0.0885 -0.1775  0.0151
  514ERGO    R2 7813  14.007  11.256   9.437 -0.0587  0.2268 -0.0646
  514ERGO    R3 7814  13.862  11.111   9.258  0.1366 -0.0400 -0.0116
  514ERGO    R4 7815  14.054  11.260   9.095 -0.1036  0.2063 -0.0707
  514ERGO    R5 7816  13.838  11.257   9.069 -0.1032 -0.1253 -0.0481
  514ERGO    C1 7817  13.947  11.127   8.727  0.0536 -0.0562 -0.0242
  514ERGO    C2 7818  13.952  11.197   8.389 -0.0228  0.0417  0.3165
  515ERGO   ROH 7819   8.188   5.684   9.721  0.0842 -0.0435 -0.1222
  515ERGO    R1 7820   8.237   5.742   9.448  0.0431 -0.1169 -0.1461
  515ERGO    R2 7821   8.362   5.563   9.278  0.0084 -0.1684 -0.1218
  515ERGO    R3 7822   8.139   5.602   9.127 -0.0155 -0.1975 -0.0927
  515ERGO    R4 7823   8.357   5.576   8.932 -0.0063  0.0567 -0.1138
  515ERGO    R5 7824   8.213   5.739   8.946 -0.0992 -0.0356 -0.0038
  515ERGO    C1 7825   8.144   5.620   8.590 -0.0371  0.1605 -0.0819
  515ERGO    C2 7826   8.054   5.771   8.277 -0.1881  0.4306  0.1752
  516ERGO   ROH 7827   2.400  18.446   9.668  0.1206  0.0096 -0.1250
  516ERGO    R1 7828   2.308  18.656   9.502  0.1162 -0.0138 -0.1502
  516ERGO    R2 7829   2.419  18.709   9.255 -0.0579 -0.2099 -0.2679
  516ERGO    R3 7830   2.161  18.686   9.171 -0.1475 -0.0820 -0.0434
  516ERGO    R4 7831   2.298  18.831   8.955 -0.2022 -0.3335 -0.2623
  516ERGO    R5 7832   2.116  18.893   9.059 -0.0784 -0.1223 -0.1559
  516ERGO    C1 7833   1.986  18.880   8.701 -0.3703 -0.2855 -0.0485
  516ERGO    C2 7834   1.989  18.991   8.345  0.3308 -0.4019  0.0043
  517ERGO   ROH 7835  12.811  10.574   9.900  0.0900  0.0727 -0.0688
  517ERGO    R1 7836  12.905  10.480   9.650  0.1645  0.0049 -0.0161
  517ERGO    R2 7837  13.137  10.332   9.625  0.1486 -0.0465  0.0986
  517ERGO    R3 7838  12.973  10.156   9.499  0.1582 -0.0386  0.0760
  517ERGO    R4 7839  13.234  10.119   9.371  0.1331  0.0485  0.0128
  517ERGO    R5 7840  13.045  10.160   9.271  0.1088  0.0429  0.0645
  517ERGO    C1 7841  13.137   9.830   9.105  0.1330  0.1112 -0.0584
  517ERGO    C2 7842  13.175   9.805   8.780 -0.1613 -0.0307 -0.0763
  518ERGO   ROH 7843  13.147   2.008  10.135 -0.2063  0.2145 -0.1847
  518ERGO    R1 7844  13.282   1.884   9.919 -0.1605  0.0449 -0.0632
  518ERGO    R2 7845  13.231   1.950   9.655 -0.1108 -0.1642 -0.1319
  518ERGO    R3 7846  13.500   1.991   9.647 -0.1121 -0.1616 -0.1058
  518ERGO    R4 7847  13.422   1.957   9.367 -0.0857 -0.1243 -0.1127
  518ERGO    R5 7848  13.578   1.847   9.473 -0.0958 -0.1350 -0.1167
  518ERGO    C1 7849  13.786   2.000   9.192 -0.0723 -0.0987 -0.0769
  518ERGO    C2 7850  13.936   2.187   9.092  0.3391 -0.0236  0.0467
  519ERGO   ROH 7851  16.464   6.543  10.094 -0.0192  0.2280 -0.1405
  519ERGO    R1 7852  16.419   6.627   9.827  0.0010  0.1373 -0.1724
  519ERGO    R2 7853  16.559   6.836   9.711 -0.0011  0.1058 -0.2265
  519ERGO    R3 7854  16.614   6.650   9.521  0.0278  0.0477 -0.1632
  519ERGO    R4 7855  16.556   6.895   9.371  0.0238 -0.0010 -0.2465
  519ERGO    R5 7856  16.462   6.701   9.343  0.0381 -0.0179 -0.1927
  519ERGO    C1 7857  16.606   6.756   8.994  0.0654 -0.1177 -0.1985
  519ERGO    C2 7858  16.632   6.694   8.613  0.0921  0.2452  0.2560
  520ERGO   ROH 7859  17.026   3.083  10.044  0.2162 -0.0014  0.0868
  520ERGO    R1 7860  17.047   3.244   9.811  0.0619 -0.2370 -0.0953
  520ERGO    R2 7861  17.165   3.494   9.813 -0.3986 -0.0032 -0.3152
  520ERGO    R3 7862  17.316   3.389   9.613 -0.0743  0.0245 -0.0918
  520ERGO    R4 7863  17.312   3.677   9.560 -0.4094 -0.0245 -0.3368
  520ERGO    R5 7864  17.258   3.518   9.421 -0.0723 -0.2161 -0.2558
  520ERGO    C1 7865  17.540   3.685   9.225 -0.1111 -0.0109 -0.1396
  520ERGO    C2 7866  17.728   3.697   8.927 -0.0059 -0.2897 -0.1205
  521ERGO   ROH 7867   6.553  17.818   9.474  0.0061  0.1284 -0.0926
  521ERGO    R1 7868   6.429  17.712   9.243  0.0891  0.1490 -0.1482
  521ERGO    R2 7869   6.272  17.864   9.074  0.1238  0.1600 -0.1798
  521ERGO    R3 7870   6.443  17.772   8.884  0.1984  0.2055 -0.1331
  521ERGO    R4 7871   6.234  17.911   8.733  0.1642  0.0654 -0.1967
  521ERGO    R5 7872   6.302  17.706   8.703  0.2679  0.0979 -0.1430
  521ERGO    C1 7873   6.373  17.852   8.357  0.2578  0.0527 -0.1627
  521ERGO    C2 7874   6.395  18.067   8.192  0.3083  0.1125 -0.0089
  522ERGO   ROH 7875  12.738   0.640   9.601 -0.2016 -0.1735  0.0832
  522ERGO    R1 7876  12.629   0.663   9.340 -0.1393 -0.2400  0.0514
  522ERGO    R2 7877  12.669   0.886   9.182 -0.2510 -0.2050  0.0757
  522ERGO    R3 7878  12.758   0.703   9.003 -0.0650 -0.1322  0.0912
  522ERGO    R4 7879  12.656   0.923   8.838 -0.2627 -0.2314  0.0729
  522ERGO    R5 7880  12.600   0.713   8.823 -0.0656 -0.2883  0.0795
  522ERGO    C1 7881  12.733   0.772   8.470 -0.0951 -0.1784  0.0858
  522ERGO    C2 7882  12.727   1.045   8.309  0.1458  0.1386 -0.4170
  523ERGO   ROH 7883   5.221   5.184   9.552 -0.1256  0.3627 -0.0383
  523ERGO    R1 7884   5.206   5.077   9.290 -0.2088  0.2573  0.0087
  523ERGO    R2 7885   5.125   5.227   9.072 -0.0898  0.2258 -0.0608
  523ERGO    R3 7886   5.361   5.142   8.968 -0.1536 -0.0077 -0.0201
  523ERGO    R4 7887   5.196   5.204   8.735 -0.0292  0.2215 -0.0472
  523ERGO    R5 7888   5.300   5.017   8.774 -0.2405  0.1002 -0.0616
  523ERGO    C1 7889   5.460   5.112   8.441 -0.0537 -0.0003 -0.0010
  523ERGO    C2 7890   5.456   5.169   8.140  0.0007 -0.2977 -0.2703
  524ERGO   ROH 7891  12.587  13.109   9.371 -0.0499 -0.2556 -0.0790
  524ERGO    R1 7892  12.569  13.247   9.125 -0.3006 -0.2413 -0.0541
  524ERGO    R2 7893  12.772  13.245   8.937 -0.2472  0.2447 -0.0082
  524ERGO    R3 7894  12.575  13.159   8.771 -0.0287 -0.1607 -0.0726
  524ERGO    R4 7895  12.797  13.228   8.593 -0.1328  0.4086 -0.0100
  524ERGO    R5 7896  12.592  13.301   8.579 -0.3119 -0.0504 -0.0247
  524ERGO    C1 7897  12.626  13.137   8.237  0.1389  0.1237 -0.0715
  524ERGO    C2 7898  12.517  12.869   7.900 -0.0266  0.0498 -0.0345
  525ERGO   ROH 7899   1.421  10.175   9.641 -0.1183  0.1536  0.0091
  525ERGO    R1 7900   1.474  10.078   9.381  0.1267  0.1157  0.0695
  525ERGO    R2 7901   1.416  10.223   9.153 -0.0416 -0.0799 -0.0237
  525ERGO    R3 7902   1.678  10.180   9.097  0.0554  0.3247  0.0940
  525ERGO    R4 7903   1.561  10.266   8.843 -0.0094 -0.0801 -0.0073
  525ERGO    R5 7904   1.678  10.085   8.878  0.2916  0.1468  0.1719
  525ERGO    C1 7905   1.893  10.250   8.610  0.1003  0.2996  0.1128
  525ERGO    C2 7906   2.014  10.203   8.268  0.3421 -0.0707 -0.0356
  526ERGO   ROH 7907   4.029  15.353   9.589 -0.0637 -0.1791 -0.0559
  526ERGO    R1 7908   3.865  15.516   9.426  0.0579 -0.0843 -0.0834
  526ERGO    R2 7909   3.963  15.657   9.209  0.1525 -0.2387 -0.1380
  526ERGO    R3 7910   3.766  15.526   9.076  0.0168 -0.1035 -0.0733
  526ERGO    R4 7911   3.879  15.711   8.878  0.2185 -0.3127 -0.1678
  526ERGO    R5 7912   3.669  15.694   8.934  0.1932 -0.0674 -0.1588
  526ERGO    C1 7913   3.644  15.621   8.561  0.1296 -0.2288 -0.1244
  526ERGO    C2 7914   3.558  15.521   8.268  0.4963 -0.0669  0.2190
  527ERGO   ROH 7915  18.077   2.243  10.209  0.1263 -0.0805  0.0284
  527ERGO    R1 7916  18.030   2.040  10.017  0.2629 -0.0759 -0.0118
  527ERGO    R2 7917  17.803   2.035   9.859  0.1842 -0.2860  0.1030
  527ERGO    R3 7918  17.984   2.023   9.657  0.0989 -0.0104  0.0049
  527ERGO    R4 7919  17.733   1.929   9.538  0.1278 -0.1912  0.0837
  527ERGO    R5 7920  17.924   1.825   9.536  0.2291 -0.0084 -0.0644
  527ERGO    C1 7921  17.862   1.855   9.161  0.0145  0.1227 -0.0196
  527ERGO    C2 7922  17.822   1.920   8.786 -0.2296 -0.1483 -0.1985
  528ERGO   ROH 7923   4.083   3.295   9.903 -0.1056 -0.1193  0.0321
  528ERGO    R1 7924   4.171   3.149   9.677 -0.0419  0.1820 -0.1433
  528ERGO    R2 7925   4.147   2.874   9.660  0.6129  0.1191 -0.2083
  528ERGO    R3 7926   4.019   2.932   9.427  0.1481 -0.1028 -0.0189
  528ERGO    R4 7927   4.168   2.685   9.372  0.7396  0.2887 -0.3129
  528ERGO    R5 7928   4.175   2.870   9.257  0.1050  0.3785 -0.2531
  528ERGO    C1 7929   4.060   2.628   8.986  0.3770  0.1792 -0.1962
  528ERGO    C2 7930   4.057   2.503   8.691  0.0438 -0.1939 -0.0242
  529ERGO   ROH 7931   3.286   7.655   9.924  0.0875 -0.2730 -0.0482
  529ERGO    R1 7932   3.131   7.726   9.698  0.1527 -0.0805 -0.0357
  529ERGO    R2 7933   3.132   7.981   9.590  0.4116 -0.0602 -0.0023
  529ERGO    R3 7934   3.195   7.848   9.362  0.2732 -0.0974 -0.0180
  529ERGO    R4 7935   3.136   8.121   9.274  0.3095 -0.0946 -0.0180
  529ERGO    R5 7936   3.047   7.938   9.197  0.2271 -0.0749  0.0396
  529ERGO    C1 7937   3.198   8.078   8.876  0.1202 -0.1496 -0.0417
  529ERGO    C2 7938   3.305   8.004   8.495 -0.3272 -0.0828  0.1567
  530ERGO   ROH 7939   5.936  17.857   9.380  0.1571 -0.0673 -0.1193
  530ERGO    R1 7940   5.725  17.795   9.202  0.2327  0.0574 -0.2533
  530ERGO    R2 7941   5.464  17.871   9.248  0.1455 -0.3310 -0.0908
  530ERGO    R3 7942   5.486  17.980   9.000  0.0252  0.2107  0.1205
  530ERGO    R4 7943   5.204  17.900   9.023  0.1224 -0.2401 -0.0542
  530ERGO    R5 7944   5.343  17.845   8.864  0.2265  0.2731 -0.1682
  530ERGO    C1 7945   5.073  18.019   8.658 -0.0039  0.3212  0.1655
  530ERGO    C2 7946   4.977  18.079   8.343  0.2569  0.2157  0.2475
  531ERGO   ROH 7947   0.708  17.377   9.339  0.1167 -0.1829 -0.0924
  531ERGO    R1 7948   0.701  17.335   9.059  0.1049 -0.2371 -0.0841
  531ERGO    R2 7949   0.703  17.543   8.877 -0.1460 -0.2627 -0.1203
  531ERGO    R3 7950   0.916  17.408   8.775 -0.0251 -0.0607 -0.1385
  531ERGO    R4 7951   0.745  17.464   8.543 -0.2262 -0.4421 -0.0893
  531ERGO    R5 7952   0.822  17.269   8.604  0.0590 -0.3040  0.0079
  531ERGO    C1 7953   0.969  17.293   8.253 -0.1593 -0.3569 -0.0886
  531ERGO    C2 7954   1.033  17.200   8.043  0.1510  0.3310  0.4087
  532ERGO   ROH 7955   8.627  13.341   9.306 -0.2979 -0.2197  0.1799
  532ERGO    R1 7956   8.698  13.421   9.044 -0.3338 -0.0058  0.2334
  532ERGO    R2 7957   8.828  13.253   8.867 -0.0477  0.2487  0.1946
  532ERGO    R3 7958   8.619  13.315   8.705 -0.0921  0.0287  0.1640
  532ERGO    R4 7959   8.834  13.235   8.522  0.0214  0.2367  0.1966
  532ERGO    R5 7960   8.721  13.421   8.516 -0.1701  0.1246  0.1729
  532ERGO    C1 7961   8.642  13.283   8.169  0.0201  0.0230  0.1690
  532ERGO    C2 7962   8.570  13.122   7.860 -0.1598  0.2457 -0.2046
  533ERGO   ROH 7963   1.785   5.911  10.026 -0.0137 -0.0902  0.0115
  533ERGO    R1 7964   1.739   5.815   9.764 -0.0445 -0.0431  0.0003
  533ERGO    R2 7965   1.507   5.683   9.692 -0.0959  0.0626 -0.0206
  533ERGO    R3 7966   1.496   5.874   9.500 -0.0101  0.0867 -0.0035
  533ERGO    R4 7967   1.447   5.623   9.357 -0.2093  0.1279 -0.0134
  533ERGO    R5 7968   1.598   5.772   9.309 -0.1183  0.0322 -0.0344
  533ERGO    C1 7969   1.402   5.768   8.981 -0.1949  0.1884  0.0068
  533ERGO    C2 7970   1.315   5.790   8.661  0.0096 -0.1346  0.0286
  534ERGO   ROH 7971  15.153  16.937   9.741 -0.2259 -0.0655 -0.0231
  534ERGO    R1 7972  15.218  17.094   9.515  0.0609 -0.0323  0.0779
  534ERGO    R2 7973  15.439  17.044   9.356  0.0151 -0.2863  0.0901
  534ERGO    R3 7974  15.254  17.041   9.156  0.0407  0.1154  0.0530
  534ERGO    R4 7975  15.503  16.951   9.029 -0.0875 -0.2915  0.0715
  534ERGO    R5 7976  15.375  17.115   8.963  0.2146 -0.0319  0.1020
  534ERGO    C1 7977  15.367  16.895   8.652 -0.1233  0.0826  0.0258
  534ERGO    C2 7978  15.439  16.772   8.377  0.1030 -0.0039  0.2244
  535ERGO   ROH 7979  11.012  17.641   9.467 -0.3889  0.1330 -0.0111
  535ERGO    R1 7980  11.075  17.451   9.267 -0.0042  0.2321  0.0078
  535ERGO    R2 7981  10.883  17.299   9.140  0.2973 -0.2284  0.0695
  535ERGO    R3 7982  10.996  17.402   8.915  0.0271 -0.0022  0.0336
  535ERGO    R4 7983  10.891  17.141   8.833  0.3798 -0.1366  0.0246
  535ERGO    R5 7984  11.095  17.213   8.806  0.2570  0.1762 -0.0661
  535ERGO    C1 7985  11.001  17.146   8.443  0.1741  0.1291 -0.0353
  535ERGO    C2 7986  10.898  17.050   8.009  0.3197  0.0608 -0.0156
  536ERGO   ROH 7987   6.016  13.152   9.027  0.0616 -0.1263  0.1626
  536ERGO    R1 7988   5.890  13.223   8.784  0.0451 -0.0823  0.1848
  536ERGO    R2 7989   5.950  13.455   8.647  0.1324 -0.1262  0.1556
  536ERGO    R3 7990   5.993  13.284   8.441  0.0001 -0.1620  0.1561
  536ERGO    R4 7991   5.888  13.527   8.315  0.1649 -0.0831  0.1580
  536ERGO    R5 7992   5.810  13.325   8.291  0.0176 -0.0322  0.1655
  536ERGO    C1 7993   5.891  13.409   7.928  0.0596 -0.0915  0.1598
  536ERGO    C2 7994   5.686  13.409   7.627 -0.0077  0.0325  0.0291
  537ERGO   ROH 7995  11.537  13.209   9.377  0.1532 -0.0841  0.0004
  537ERGO    R1 7996  11.604  13.000   9.198  0.0080 -0.0891 -0.0496
  537ERGO    R2 7997  11.476  12.965   8.956  0.0347  0.1058 -0.0941
  537ERGO    R3 7998  11.729  12.974   8.857  0.0701 -0.0922 -0.0265
  537ERGO    R4 7999  11.568  12.858   8.641 -0.0237  0.3190 -0.1855
  537ERGO    R5 8000  11.750  12.773   8.728 -0.1409  0.0121 -0.2292
  537ERGO    C1 8001  11.860  12.804   8.364 -0.0245  0.2571 -0.1755
  537ERGO    C2 8002  11.906  12.871   8.038 -0.2610 -0.0583  0.0127
  538ERGO   ROH 8003  18.201   5.770  10.210  0.0485  0.1786 -0.0756
  538ERGO    R1 8004  18.308   5.829   9.955 -0.0607  0.0624 -0.1495
  538ERGO    R2 8005  18.173   5.773   9.720 -0.2129  0.0622 -0.0639
  538ERGO    R3 8006  18.216   6.037   9.671 -0.1180  0.0301 -0.1547
  538ERGO    R4 8007  18.100   5.933   9.422 -0.0720 -0.0323 -0.1498
  538ERGO    R5 8008  18.287   6.044   9.442 -0.0446 -0.0810 -0.1359
  538ERGO    C1 8009  18.098   6.273   9.202  0.0992 -0.1174 -0.2850
  538ERGO    C2 8010  17.985   6.367   8.821 -0.0566 -0.1801  0.1457
  539ERGO   ROH 8011   7.688  18.518   9.243 -0.3391 -0.1519 -0.0798
  539ERGO    R1 8012   7.779  18.636   9.003 -0.2502  0.0103  0.0324
  539ERGO    R2 8013   7.817  18.490   8.771  0.0008  0.1336 -0.0032
  539ERGO    R3 8014   7.653  18.679   8.664 -0.0472  0.0741 -0.0382
  539ERGO    R4 8015   7.713  18.498   8.441 -0.1958 -0.0961  0.0492
  539ERGO    R5 8016   7.739  18.715   8.444 -0.1731 -0.0915 -0.1198
  539ERGO    C1 8017   7.499  18.680   8.150 -0.3554 -0.2858  0.0468
  539ERGO    C2 8018   7.350  18.892   7.918  0.1504 -0.1847 -0.2096
  540ERGO   ROH 8019  17.194   0.286  10.022 -0.2519 -0.1636  0.0201
  540ERGO    R1 8020  17.240   0.364   9.754 -0.1402 -0.2672  0.0107
  540ERGO    R2 8021  17.230   0.186   9.542 -0.3508 -0.2899  0.0496
  540ERGO    R3 8022  17.052   0.365   9.442 -0.1232 -0.0837 -0.0030
  540ERGO    R4 8023  17.197   0.266   9.208 -0.1904 -0.2951  0.0295
  540ERGO    R5 8024  17.171   0.474   9.266  0.0485 -0.2456  0.0009
  540ERGO    C1 8025  17.011   0.481   8.919  0.1162 -0.1044 -0.0315
  540ERGO    C2 8026  16.956   0.798   8.738  0.2062  0.0434 -0.2737
  541ERGO   ROH 8027   5.061  13.812   8.896 -0.1678 -0.0707 -0.1395
  541ERGO    R1 8028   5.164  13.831   8.633 -0.1369 -0.0641 -0.1257
  541ERGO    R2 8029   5.002  13.868   8.412 -0.0829  0.2910 -0.1036
  541ERGO    R3 8030   5.166  14.080   8.368  0.2191  0.0902  0.0120
  541ERGO    R4 8031   5.098  13.983   8.100 -0.0398  0.3942 -0.0535
  541ERGO    R5 8032   5.298  14.015   8.179  0.0522  0.0347 -0.0962
  541ERGO    C1 8033   5.308  14.249   7.878  0.2689  0.2658  0.0842
  541ERGO    C2 8034   5.588  14.360   7.660 -0.1532 -0.1663 -0.1514
  542ERGO   ROH 8035  12.333  14.879   9.149  0.0426 -0.0394 -0.0093
  542ERGO    R1 8036  12.409  14.973   8.894 -0.0479  0.1847  0.0433
  542ERGO    R2 8037  12.417  14.810   8.671  0.3614  0.2504 -0.0000
  542ERGO    R3 8038  12.256  15.001   8.565  0.0107 -0.0370 -0.0045
  542ERGO    R4 8039  12.360  14.854   8.333  0.3514  0.1968 -0.0051
  542ERGO    R5 8040  12.369  15.070   8.365 -0.0723  0.2165  0.0327
  542ERGO    C1 8041  12.176  15.060   8.037  0.0162 -0.1042 -0.0124
  542ERGO    C2 8042  12.173  15.129   7.716 -0.2397 -0.1173  0.0897
  543ERGO   ROH 8043   6.603  16.571   9.486 -0.2733 -0.0020  0.0544
  543ERGO    R1 8044   6.652  16.750   9.272 -0.2253  0.0005  0.0668
  543ERGO    R2 8045   6.900  16.863   9.227 -0.2122  0.0028  0.1229
  543ERGO    R3 8046   6.866  16.759   8.978 -0.1582  0.0016  0.1166
  543ERGO    R4 8047   7.030  16.998   8.936 -0.1748  0.0106  0.1438
  543ERGO    R5 8048   6.843  16.950   8.836 -0.1493 -0.0045  0.1115
  543ERGO    C1 8049   7.074  16.979   8.534 -0.1023  0.0140  0.1499
  543ERGO    C2 8050   7.081  17.060   8.207  0.2770  0.2911 -0.1753
  544ERGO   ROH 8051   4.782   0.275   9.470  0.1982 -0.2644 -0.0593
  544ERGO    R1 8052   4.670   0.250   9.211  0.0247 -0.2696  0.0152
  544ERGO    R2 8053   4.674   0.455   9.026 -0.1329 -0.2598  0.0200
  544ERGO    R3 8054   4.789   0.267   8.868 -0.2114 -0.2357 -0.0670
  544ERGO    R4 8055   4.629   0.430   8.685  0.0092  0.0334 -0.0235
  544ERGO    R5 8056   4.621   0.213   8.707 -0.1788  0.0220 -0.1904
  544ERGO    C1 8057   4.711   0.238   8.337  0.0182  0.2267 -0.1304
  544ERGO    C2 8058   4.641   0.224   7.978  0.0260 -0.0899  0.0543
  545ERGO   ROH 8059  15.983   5.066   9.854 -0.2040  0.3273 -0.0977
  545ERGO    R1 8060  16.159   5.084   9.633  0.0541  0.0757  0.0796
  545ERGO    R2 8061  16.336   4.881   9.567 -0.1855 -0.2037  0.2395
  545ERGO    R3 8062  16.215   4.900   9.324  0.0766  0.0151  0.1222
  545ERGO    R4 8063  16.458   4.744   9.274 -0.1235 -0.3534  0.3356
  545ERGO    R5 8064  16.396   4.924   9.169  0.2599 -0.2465  0.2962
  545ERGO    C1 8065  16.416   4.681   8.876  0.1588 -0.2352  0.2814
  545ERGO    C2 8066  16.521   4.593   8.572 -0.0214  0.2677 -0.2199
  546ERGO   ROH 8067   8.312  15.557   8.995  0.2044 -0.0682  0.0452
  546ERGO    R1 8068   8.222  15.609   8.732 -0.0438 -0.1011  0.1205
  546ERGO    R2 8069   8.389  15.707   8.535 -0.2784  0.0771  0.0057
  546ERGO    R3 8070   8.301  15.489   8.398 -0.1955  0.0230  0.0387
  546ERGO    R4 8071   8.376  15.683   8.190 -0.4791  0.1075  0.0103
  546ERGO    R5 8072   8.184  15.580   8.210 -0.3883 -0.0461  0.1225
  546ERGO    C1 8073   8.286  15.464   7.861 -0.5180  0.0743  0.0439
  546ERGO    C2 8074   8.348  15.324   7.494 -0.3304  0.1356 -0.0773
  547ERGO   ROH 8075   9.056   1.185   9.261  0.1888  0.1421 -0.0080
  547ERGO    R1 8076   9.296   1.163   9.113  0.1166  0.0045 -0.1087
  547ERGO    R2 8077   9.338   0.963   8.927 -0.1022  0.0191 -0.1854
  547ERGO    R3 8078   9.391   1.172   8.762 -0.0183  0.0289 -0.1436
  547ERGO    R4 8079   9.506   0.940   8.626 -0.0530  0.0311 -0.1575
  547ERGO    R5 8080   9.609   1.126   8.675 -0.0182 -0.0072 -0.1120
  547ERGO    C1 8081   9.655   1.124   8.297  0.0544  0.0473 -0.1021
  547ERGO    C2 8082   9.781   1.042   7.985 -0.2697 -0.3106  0.0797
  548ERGO   ROH 8083   6.964   0.564   9.174  0.0632  0.0028 -0.0199
  548ERGO    R1 8084   6.803   0.397   9.011  0.0944  0.0101 -0.0577
  548ERGO    R2 8085   6.570   0.486   8.892  0.0312 -0.0318  0.0383
  548ERGO    R3 8086   6.689   0.395   8.666  0.0138  0.1194 -0.0331
  548ERGO    R4 8087   6.403   0.352   8.621  0.0180  0.0031  0.0288
  548ERGO    R5 8088   6.561   0.203   8.603  0.0859  0.0831 -0.0769
  548ERGO    C1 8089   6.418   0.190   8.250 -0.0060  0.1655 -0.0439
  548ERGO    C2 8090   6.424   0.060   7.919 -0.3280  0.2251 -0.0609
  549ERGO   ROH 8091  10.143   9.078  10.023 -0.1063  0.0533 -0.0871
  549ERGO    R1 8092  10.122   9.035   9.744 -0.1093  0.0637 -0.0873
  549ERGO    R2 8093  10.054   8.790   9.636 -0.1202  0.0756 -0.0917
  549ERGO    R3 8094   9.861   8.935   9.511 -0.1138  0.0850 -0.0940
  549ERGO    R4 8095   9.912   8.708   9.332 -0.2446 -0.0247 -0.0094
  549ERGO    R5 8096   9.917   8.920   9.278 -0.1895 -0.0442 -0.1095
  549ERGO    C1 8097   9.648   8.797   9.037 -0.3108 -0.0742  0.0364
  549ERGO    C2 8098   9.513   8.694   8.624  0.0182 -0.1757 -0.0761
  550ERGO   ROH 8099  15.453   3.861  10.082  0.1808 -0.1890  0.0859
  550ERGO    R1 8100  15.396   3.767   9.821  0.0881 -0.0607  0.0593
  550ERGO    R2 8101  15.143   3.778   9.711  0.0803  0.1269  0.1006
  550ERGO    R3 8102  15.272   3.909   9.510  0.1249  0.1246  0.1268
  550ERGO    R4 8103  15.027   3.806   9.387  0.2427 -0.0535  0.0249
  550ERGO    R5 8104  15.231   3.775   9.316  0.3035  0.0289  0.1499
  550ERGO    C1 8105  15.080   3.945   9.009  0.3792 -0.1607  0.0054
  550ERGO    C2 8106  14.828   4.108   8.759 -0.0802  0.2678 -0.0691
  551ERGO   ROH 8107  16.024  13.828   9.338 -0.0295 -0.2899  0.1365
  551ERGO    R1 8108  16.207  13.660   9.201 -0.0266 -0.1192 -0.0736
  551ERGO    R2 8109  16.162  13.390   9.164  0.1567 -0.1503 -0.0705
  551ERGO    R3 8110  16.201  13.452   8.903 -0.1543 -0.0744 -0.1037
  551ERGO    R4 8111  16.207  13.160   8.910  0.4913 -0.0785 -0.0814
  551ERGO    R5 8112  16.359  13.290   8.825  0.1584  0.2583 -0.1956
  551ERGO    C1 8113  16.270  13.084   8.517  0.3940  0.0346 -0.1189
  551ERGO    C2 8114  16.155  13.079   8.185  0.2069 -0.0511  0.1634
  552ERGO   ROH 8115  18.452  12.771   9.705 -0.1287 -0.2818  0.0873
  552ERGO    R1 8116  18.227  12.781   9.533 -0.0280 -0.1388 -0.0407
  552ERGO    R2 8117  18.230  12.916   9.293  0.1202  0.0538  0.0597
  552ERGO    R3 8118  18.149  12.676   9.193  0.1733  0.1302 -0.1716
  552ERGO    R4 8119  17.996  12.875   9.041 -0.0968  0.2264  0.2290
  552ERGO    R5 8120  17.915  12.705   9.151  0.1159  0.0377  0.0901
  552ERGO    C1 8121  17.785  12.626   8.801 -0.1734  0.3986  0.1105
  552ERGO    C2 8122  17.579  12.538   8.393  0.6556 -0.2726 -0.1240
  553ERGO   ROH 8123   3.413   6.801   9.734 -0.0066  0.0943 -0.0646
  553ERGO    R1 8124   3.440   6.763   9.455  0.0212  0.1473 -0.0689
  553ERGO    R2 8125   3.320   6.929   9.270  0.0831  0.2118 -0.0479
  553ERGO    R3 8126   3.573   6.951   9.174  0.1000  0.1762 -0.0135
  553ERGO    R4 8127   3.405   6.919   8.935  0.1320  0.1222 -0.0337
  553ERGO    R5 8128   3.579   6.799   8.988  0.1205  0.1266  0.0252
  553ERGO    C1 8129   3.692   6.934   8.649  0.1763  0.0365  0.0069
  553ERGO    C2 8130   3.767   6.963   8.285 -0.1656 -0.3374 -0.0775
  554ERGO   ROH 8131   0.836   4.898  10.233 -0.1668  0.1552  0.0381
  554ERGO    R1 8132   0.920   4.878   9.963  0.0274  0.0382  0.1057
  554ERGO    R2 8133   0.835   4.675   9.796 -0.0093  0.0775  0.0771
  554ERGO    R3 8134   0.761   4.882   9.636  0.2845  0.1106 -0.0206
  554ERGO    R4 8135   0.739   4.644   9.465 -0.0155  0.0621  0.0803
  554ERGO    R5 8136   0.852   4.825   9.421  0.2347 -0.1044  0.0126
  554ERGO    C1 8137   0.615   4.820   9.122  0.2566  0.0841 -0.0096
  554ERGO    C2 8138   0.470   4.829   8.853  0.0401  0.0289 -0.2143
  555ERGO   ROH 8139   6.150  14.022   8.837 -0.0084 -0.1839  0.2915
  555ERGO    R1 8140   6.304  13.956   8.608 -0.0084 -0.1884  0.2919
  555ERGO    R2 8141   6.292  13.708   8.488 -0.2235 -0.1034  0.1242
  555ERGO    R3 8142   6.238  13.854   8.265 -0.0168  0.1019  0.2050
  555ERGO    R4 8143   6.310  13.588   8.164 -0.3021  0.0812  0.0507
  555ERGO    R5 8144   6.398  13.778   8.104 -0.0734  0.0211  0.1881
  555ERGO    C1 8145   6.268  13.655   7.767 -0.1539  0.3815  0.0838
  555ERGO    C2 8146   6.243  13.336   7.559  0.1971  0.4058  0.0839
  556ERGO   ROH 8147  13.920   0.485   9.705 -0.0586 -0.1315  0.0119
  556ERGO    R1 8148  14.073   0.618   9.506 -0.0833 -0.0710  0.0342
  556ERGO    R2 8149  14.283   0.496   9.374  0.0212  0.0324  0.1085
  556ERGO    R3 8150  14.144   0.571   9.152  0.0382 -0.0787  0.0585
  556ERGO    R4 8151  14.407   0.491   9.052  0.1339  0.1039  0.1496
  556ERGO    R5 8152  14.306   0.680   9.015  0.0079  0.0323  0.1068
  556ERGO    C1 8153  14.350   0.558   8.656  0.2155  0.0412  0.1267
  556ERGO    C2 8154  14.374   0.526   8.385  0.0081  0.2590 -0.0465
  557ERGO   ROH 8155   8.246  17.847   9.121  0.2148  0.2210  0.0483
  557ERGO    R1 8156   8.266  17.727   8.866  0.0792  0.1016  0.0916
  557ERGO    R2 8157   8.161  17.844   8.639 -0.1340 -0.0510  0.1010
  557ERGO    R3 8158   8.415  17.811   8.545 -0.1851  0.0076 -0.0569
  557ERGO    R4 8159   8.250  17.855   8.305 -0.3294 -0.0129  0.0497
  557ERGO    R5 8160   8.386  17.688   8.341 -0.2762  0.0180 -0.0455
  557ERGO    C1 8161   8.540  17.831   8.022 -0.4911  0.0643 -0.1285
  557ERGO    C2 8162   8.662  18.091   7.651 -0.0605 -0.2731 -0.2450
  558ERGO   ROH 8163  14.010  17.843   9.526  0.1315  0.1373  0.1632
  558ERGO    R1 8164  14.051  17.844   9.245  0.0090 -0.0367  0.1433
  558ERGO    R2 8165  14.020  18.071   9.091 -0.0398 -0.1292  0.0190
  558ERGO    R3 8166  14.273  18.012   9.012 -0.0792 -0.1964 -0.0599
  558ERGO    R4 8167  14.152  18.147   8.781 -0.0685 -0.0145  0.0340
  558ERGO    R5 8168  14.250  17.952   8.781 -0.1517 -0.0608 -0.0909
  558ERGO    C1 8169  14.466  18.136   8.525 -0.1223 -0.0110 -0.0314
  558ERGO    C2 8170  14.595  18.312   8.241  0.1548  0.3032 -0.1104
  559ERGO   ROH 8171   6.892  12.849   9.211 -0.2363  0.0231 -0.0867
  559ERGO    R1 8172   6.826  12.776   8.946 -0.1227 -0.0247 -0.1019
  559ERGO    R2 8173   7.012  12.776   8.741 -0.0393 -0.0487 -0.0237
  559ERGO    R3 8174   6.928  12.519   8.709 -0.0117 -0.0588 -0.0185
  559ERGO    R4 8175   7.023  12.601   8.443 -0.0789 -0.0290 -0.0372
  559ERGO    R5 8176   6.827  12.517   8.491 -0.0591 -0.0588  0.0014
  559ERGO    C1 8177   6.951  12.258   8.239 -0.0760 -0.0270 -0.0402
  559ERGO    C2 8178   7.096  11.999   7.839 -0.2067  0.1211 -0.1389
  560ERGO   ROH 8179  11.552   6.132   9.592 -0.1633 -0.3792 -0.0140
  560ERGO    R1 8180  11.767   6.209   9.426 -0.1866 -0.1040  0.0791
  560ERGO    R2 8181  11.952   6.028   9.328  0.0184  0.1137  0.0635
  560ERGO    R3 8182  11.880   6.134   9.088 -0.0091  0.1372  0.0813
  560ERGO    R4 8183  12.128   5.987   9.033 -0.3118 -0.3506 -0.0834
  560ERGO    R5 8184  12.088   6.197   8.986  0.0261 -0.2875 -0.1369
  560ERGO    C1 8185  12.164   6.064   8.637 -0.5300 -0.5989 -0.1521
  560ERGO    C2 8186  12.370   5.988   8.390  0.2370  0.5321 -0.0529
  561ERGO   ROH 8187   9.693  14.788   9.253  0.0980 -0.1500  0.0312
  561ERGO    R1 8188   9.643  14.779   8.975 -0.0046 -0.0557  0.0455
  561ERGO    R2 8189   9.698  14.556   8.821 -0.0412  0.0013 -0.0559
  561ERGO    R3 8190   9.436  14.581   8.750 -0.0707  0.0049  0.0535
  561ERGO    R4 8191   9.555  14.418   8.538 -0.1450  0.0918 -0.0482
  561ERGO    R5 8192   9.441  14.601   8.511 -0.1689  0.0890  0.0607
  561ERGO    C1 8193   9.227  14.361   8.306 -0.2332  0.1480  0.0591
  561ERGO    C2 8194   9.091  14.190   8.056  0.0821  0.0473 -0.2695
  562ERGO   ROH 8195  15.445   9.829   9.877  0.3504  0.1406 -0.0060
  562ERGO    R1 8196  15.567   9.638   9.708  0.0699 -0.0756  0.0281
  562ERGO    R2 8197  15.579   9.369   9.770 -0.1982 -0.0605  0.1480
  562ERGO    R3 8198  15.463   9.340   9.526 -0.3352 -0.0517  0.2102
  562ERGO    R4 8199  15.514   9.066   9.617 -0.1987 -0.0536  0.1334
  562ERGO    R5 8200  15.577   9.154   9.428 -0.3366 -0.0010  0.1096
  562ERGO    C1 8201  15.367   8.863   9.298 -0.3277 -0.0414  0.1833
  562ERGO    C2 8202  15.119   8.686   9.129  0.1623 -0.1585 -0.1171
  563ERGO   ROH 8203  10.089  16.501   8.878 -0.0143  0.3135  0.0736
  563ERGO    R1 8204  10.030  16.443   8.607  0.0376  0.2552  0.0746
  563ERGO    R2 8205   9.919  16.629   8.436  0.1407  0.2416 -0.0071
  563ERGO    R3 8206  10.134  16.567   8.282  0.1614  0.1297  0.0650
  563ERGO    R4 8207   9.946  16.696   8.098  0.3085  0.2755  0.0115
  563ERGO    R5 8208  10.040  16.501   8.072  0.1975  0.2191  0.0196
  563ERGO    C1 8209  10.163  16.677   7.756  0.4256  0.1900  0.0902
  563ERGO    C2 8210  10.167  16.606   7.348  0.4746 -0.2708 -0.1947
  564ERGO   ROH 8211   7.238   5.293   9.609  0.0331 -0.1377  0.0196
  564ERGO    R1 8212   7.328   5.212   9.353  0.0536 -0.0833  0.0093
  564ERGO    R2 8213   7.162   5.087   9.170  0.0750 -0.0685 -0.0206
  564ERGO    R3 8214   7.244   5.288   9.007  0.0617 -0.0309  0.0187
  564ERGO    R4 8215   7.180   5.066   8.826 -0.1953  0.0934 -0.0471
  564ERGO    R5 8216   7.368   5.177   8.834 -0.1275 -0.0130 -0.1308
  564ERGO    C1 8217   7.267   5.243   8.472 -0.3652  0.2230 -0.0255
  564ERGO    C2 8218   7.311   5.217   8.100  0.1734  0.1010 -0.2772
  565ERGO   ROH 8219   6.248  13.543   9.022 -0.1141  0.0129  0.0379
  565ERGO    R1 8220   6.413  13.433   8.821 -0.0750  0.0982  0.0228
  565ERGO    R2 8221   6.525  13.181   8.841  0.0936  0.1714  0.0331
  565ERGO    R3 8222   6.405  13.144   8.600  0.0764  0.0669  0.0576
  565ERGO    R4 8223   6.649  12.982   8.587  0.0794  0.0711  0.1044
  565ERGO    R5 8224   6.587  13.134   8.444  0.0630  0.0089  0.0468
  565ERGO    C1 8225   6.608  12.831   8.213  0.0549 -0.0854  0.1688
  565ERGO    C2 8226   6.709  12.622   7.989  0.1233 -0.2840 -0.1861
  566ERGO   ROH 8227   8.290  11.606   9.306 -0.2269  0.0041  0.2476
  566ERGO    R1 8228   8.089  11.520   9.125 -0.0195  0.0212  0.0017
  566ERGO    R2 8229   7.831  11.464   9.206 -0.0056 -0.4241 -0.2224
  566ERGO    R3 8230   7.766  11.642   9.011 -0.1081 -0.2043  0.0083
  566ERGO    R4 8231   7.537  11.460   9.025  0.0072 -0.3683 -0.2434
  566ERGO    R5 8232   7.651  11.511   8.847 -0.0164 -0.0589 -0.1722
  566ERGO    C1 8233   7.304  11.625   8.736 -0.0816 -0.1293 -0.0391
  566ERGO    C2 8234   7.119  11.536   8.743 -0.4215  0.3115  0.1575
  567ERGO   ROH 8235  15.081   7.022  10.299  0.0916 -0.0755 -0.0171
  567ERGO    R1 8236  14.997   6.895  10.061  0.1407 -0.1338 -0.0032
  567ERGO    R2 8237  15.015   7.015   9.813  0.0870 -0.1504 -0.0140
  567ERGO    R3 8238  15.151   6.789   9.749  0.1796 -0.1012  0.0046
  567ERGO    R4 8239  15.017   6.869   9.500  0.1850 -0.1500 -0.0144
  567ERGO    R5 8240  15.005   6.674   9.597  0.2428 -0.1548 -0.0163
  567ERGO    C1 8241  15.145   6.571   9.257  0.3290 -0.1035  0.0028
  567ERGO    C2 8242  15.241   6.585   8.924 -0.2903  0.2506  0.2937
  568ERGO   ROH 8243   5.095  12.588   9.053  0.0744 -0.1112  0.1129
  568ERGO    R1 8244   5.201  12.451   8.829 -0.0461 -0.1038  0.0492
  568ERGO    R2 8245   5.049  12.390   8.607 -0.1389  0.0083  0.0731
  568ERGO    R3 8246   5.248  12.520   8.475 -0.1236 -0.0373  0.0536
  568ERGO    R4 8247   5.139  12.331   8.279 -0.2146  0.0391  0.0476
  568ERGO    R5 8248   5.348  12.351   8.338 -0.2032 -0.0391  0.0069
  568ERGO    C1 8249   5.378  12.419   7.963 -0.2442  0.0141  0.0144
  568ERGO    C2 8250   5.496  12.559   7.594 -0.0588  0.1216 -0.0673
  569ERGO   ROH 8251   4.246  13.732   9.312  0.1830  0.2474 -0.1081
  569ERGO    R1 8252   4.132  13.567   9.112  0.2439  0.1380 -0.0548
  569ERGO    R2 8253   3.890  13.626   8.991  0.1120 -0.1075  0.0797
  569ERGO    R3 8254   4.035  13.604   8.763  0.0126  0.0603 -0.0010
  569ERGO    R4 8255   3.758  13.626   8.672 -0.0737 -0.3008  0.1550
  569ERGO    R5 8256   3.900  13.469   8.619  0.0983 -0.1263  0.0887
  569ERGO    C1 8257   3.817  13.604   8.272 -0.2752 -0.2560  0.1232
  569ERGO    C2 8258   3.765  13.617   7.893 -0.0979 -0.4109  0.3359
  570ERGO   ROH 8259  14.571   8.386   9.857 -0.0428 -0.2674 -0.1927
  570ERGO    R1 8260  14.714   8.363   9.614  0.0502 -0.2931 -0.1352
  570ERGO    R2 8261  14.820   8.123   9.525 -0.0842 -0.3392 -0.1609
  570ERGO    R3 8262  14.677   8.180   9.301  0.0599 -0.1665 -0.2123
  570ERGO    R4 8263  14.886   7.996   9.211 -0.1927 -0.5258 -0.1103
  570ERGO    R5 8264  14.841   8.192   9.127  0.1348 -0.4657 -0.1719
  570ERGO    C1 8265  14.791   7.975   8.818 -0.1206 -0.4723 -0.1290
  570ERGO    C2 8266  14.786   7.684   8.529  0.0230 -0.2114  0.1157
  571ERGO   ROH 8267  13.049   4.883   9.857  0.0171 -0.2164 -0.0441
  571ERGO    R1 8268  13.242   4.944   9.660 -0.1801 -0.0494 -0.1866
  571ERGO    R2 8269  13.441   4.767   9.585  0.0871  0.2265 -0.1248
  571ERGO    R3 8270  13.341   4.810   9.336 -0.1033 -0.1525 -0.1231
  571ERGO    R4 8271  13.616   4.718   9.292  0.1097  0.4241 -0.1477
  571ERGO    R5 8272  13.526   4.900   9.213 -0.3313  0.1879 -0.2402
  571ERGO    C1 8273  13.625   4.729   8.887 -0.0559  0.1834 -0.1593
  571ERGO    C2 8274  13.844   4.739   8.547 -0.0719  0.1201 -0.1550
  572ERGO   ROH 8275  10.201   1.479   9.642 -0.2183  0.2885  0.0887
  572ERGO    R1 8276  10.281   1.651   9.432 -0.0831  0.1414  0.0183
  572ERGO    R2 8277  10.484   1.586   9.256 -0.0877 -0.0578  0.0883
  572ERGO    R3 8278  10.294   1.637   9.068 -0.0222 -0.0416  0.0253
  572ERGO    R4 8279  10.549   1.701   8.937  0.0250  0.0592  0.1523
  572ERGO    R5 8280  10.375   1.832   8.954 -0.0150  0.0158  0.1224
  572ERGO    C1 8281  10.409   1.816   8.575  0.1522  0.1426  0.1305
  572ERGO    C2 8282  10.417   1.766   8.179 -0.0410 -0.2498 -0.0891
  573ERGO   ROH 8283   6.298  10.255   9.570  0.1213 -0.0151 -0.0066
  573ERGO    R1 8284   6.264  10.161   9.305 -0.1532 -0.1668  0.0791
  573ERGO    R2 8285   6.015  10.113   9.196 -0.3021  0.3276  0.1774
  573ERGO    R3 8286   6.103  10.281   9.001  0.0650 -0.0396  0.0110
  573ERGO    R4 8287   5.888  10.126   8.874 -0.1745  0.1919  0.1199
  573ERGO    R5 8288   6.092  10.150   8.800 -0.0988 -0.2522  0.1525
  573ERGO    C1 8289   5.897  10.292   8.504  0.2445 -0.2317 -0.0697
  573ERGO    C2 8290   5.783  10.299   8.218  0.0875  0.1295  0.1027
  574ERGO   ROH 8291  14.181  14.628   9.498  0.2476 -0.0263  0.0984
  574ERGO    R1 8292  14.231  14.620   9.219  0.2012 -0.0614  0.0904
  574ERGO    R2 8293  14.136  14.812   9.045 -0.0163 -0.2002  0.0488
  574ERGO    R3 8294  14.397  14.832   8.974 -0.0460  0.0259 -0.0033
  574ERGO    R4 8295  14.250  14.863   8.723 -0.1213  0.0704  0.0525
  574ERGO    R5 8296  14.411  14.721   8.762 -0.0133  0.1615 -0.0699
  574ERGO    C1 8297  14.563  14.912   8.469 -0.2103  0.4402  0.0058
  574ERGO    C2 8298  14.662  15.144   8.195  0.1516 -0.0266 -0.0540
  575ERGO   ROH 8299   7.298  13.650   9.251  0.3715  0.2336  0.0581
  575ERGO    R1 8300   7.229  13.722   8.986  0.2689 -0.0859 -0.0060
  575ERGO    R2 8301   7.216  13.985   8.902 -0.2194 -0.1636 -0.1948
  575ERGO    R3 8302   7.388  13.899   8.710 -0.0234  0.0238 -0.1095
  575ERGO    R4 8303   7.187  14.057   8.566 -0.2360 -0.3338 -0.2318
  575ERGO    R5 8304   7.247  13.852   8.522  0.0966 -0.2677 -0.1361
  575ERGO    C1 8305   7.332  14.019   8.189 -0.0616 -0.2572 -0.1733
  575ERGO    C2 8306   7.472  13.965   7.842 -0.2647  0.1149  0.0474
  576ERGO   ROH 8307  16.789   1.394   9.630  0.1558 -0.1257  0.0810
  576ERGO    R1 8308  16.895   1.514   9.397  0.2207 -0.1235  0.1107
  576ERGO    R2 8309  17.069   1.382   9.227  0.0977 -0.2005  0.0386
  576ERGO    R3 8310  16.885   1.450   9.039  0.1230  0.0119  0.0894
  576ERGO    R4 8311  17.064   1.263   8.903 -0.0970 -0.1416  0.0193
  576ERGO    R5 8312  17.010   1.462   8.835  0.0864 -0.0790  0.0644
  576ERGO    C1 8313  16.888   1.257   8.537 -0.1867  0.0920  0.0558
  576ERGO    C2 8314  16.763   1.214   8.181  0.3800  0.0429 -0.1131
  577ERGO   ROH 8315   7.020  11.551   7.729  0.0777 -0.1931 -0.1758
  577ERGO    R1 8316   7.134  11.347   7.889  0.1317 -0.0527 -0.0339
  577ERGO    R2 8317   7.297  11.401   8.105 -0.0628  0.1454  0.0615
  577ERGO    R3 8318   7.119  11.245   8.238 -0.0267  0.0404 -0.0113
  577ERGO    R4 8319   7.351  11.260   8.416 -0.0002 -0.0294 -0.0265
  577ERGO    R5 8320   7.254  11.078   8.345  0.0156 -0.0055 -0.1257
  577ERGO    C1 8321   7.214  11.031   8.722  0.0702 -0.2296 -0.1461
  577ERGO    C2 8322   7.208  11.068   9.091 -0.1542 -0.3291 -0.2480
  578ERGO   ROH 8323  15.595   0.256   9.982 -0.1118  0.0227  0.1260
  578ERGO    R1 8324  15.617   0.361   9.720 -0.0607  0.2308  0.2123
  578ERGO    R2 8325  15.531   0.222   9.497  0.2924  0.2620  0.0580
  578ERGO    R3 8326  15.388   0.449   9.450  0.0145  0.1026  0.1030
  578ERGO    R4 8327  15.392   0.308   9.193  0.1334  0.1139  0.0863
  578ERGO    R5 8328  15.452   0.514   9.229 -0.0988  0.1916  0.0904
  578ERGO    C1 8329  15.176   0.571   8.972 -0.2199 -0.1220  0.1450
  578ERGO    C2 8330  14.842   0.518   8.753  0.0761 -0.3301  0.0214
  579ERGO   ROH 8331   2.210   8.330   9.535 -0.1559 -0.2308  0.0343
  579ERGO    R1 8332   2.117   8.278   9.273 -0.2374 -0.1595  0.0470
  579ERGO    R2 8333   2.269   8.145   9.084 -0.1681  0.1617 -0.1416
  579ERGO    R3 8334   2.051   7.983   9.069  0.0234 -0.1021 -0.1220
  579ERGO    R4 8335   2.169   7.972   8.802 -0.0954  0.1846 -0.1797
  579ERGO    R5 8336   1.963   8.022   8.850 -0.1316 -0.0979 -0.0551
  579ERGO    C1 8337   1.907   7.720   8.623  0.1266 -0.0498 -0.1833
  579ERGO    C2 8338   1.706   7.446   8.525 -0.0995  0.2391 -0.1789
  580ERGO   ROH 8339  11.486  16.456   9.383 -0.2138  0.2770 -0.0330
  580ERGO    R1 8340  11.536  16.321   9.139  0.1169  0.2793  0.0289
  580ERGO    R2 8341  11.366  16.339   8.921  0.0735 -0.2161  0.0108
  580ERGO    R3 8342  11.593  16.415   8.792 -0.0873  0.2659 -0.0098
  580ERGO    R4 8343  11.402  16.357   8.578  0.0155 -0.1799  0.0065
  580ERGO    R5 8344  11.602  16.273   8.599  0.2091  0.2538  0.0067
  580ERGO    C1 8345  11.635  16.438   8.257 -0.1692  0.2937 -0.0152
  580ERGO    C2 8346  11.676  16.558   7.906 -0.1821 -0.1681  0.0744
  581ERGO   ROH 8347   6.424  10.670   9.343  0.1134  0.0966  0.0840
  581ERGO    R1 8348   6.295  10.670   9.090  0.0618  0.0094  0.1098
  581ERGO    R2 8349   6.355  10.854   8.893 -0.0819  0.0326  0.0864
  581ERGO    R3 8350   6.396  10.631   8.743  0.0142  0.0460  0.0918
  581ERGO    R4 8351   6.224  10.800   8.577  0.0901  0.0445  0.0121
  581ERGO    R5 8352   6.186  10.593   8.633  0.0753  0.0382 -0.0226
  581ERGO    C1 8353   6.186  10.560   8.253  0.2804  0.0641 -0.0261
  581ERGO    C2 8354   6.145  10.621   7.893 -0.1199  0.1892  0.0001
  582ERGO   ROH 8355   0.758   2.795  10.357  0.1453  0.0107 -0.0281
  582ERGO    R1 8356   0.610   2.778  10.117  0.0261 -0.0064  0.0413
  582ERGO    R2 8357   0.385   2.932  10.070  0.0443  0.0775  0.0918
  582ERGO    R3 8358   0.520   3.003   9.845 -0.0039 -0.0459  0.0281
  582ERGO    R4 8359   0.247   3.097   9.799  0.1239  0.2830  0.1780
  582ERGO    R5 8360   0.363   2.969   9.667 -0.1153  0.1808  0.1055
  582ERGO    C1 8361   0.294   3.259   9.431  0.1250  0.2869  0.1684
  582ERGO    C2 8362   0.388   3.416   9.246 -0.1405 -0.0429  0.1641
  583ERGO   ROH 8363  11.302  12.090   9.417 -0.0379  0.3140 -0.0936
  583ERGO    R1 8364  11.232  11.989   9.162 -0.0053  0.3273 -0.1075
  583ERGO    R2 8365  11.376  12.047   8.934  0.2000  0.0974 -0.0386
  583ERGO    R3 8366  11.385  11.777   8.910 -0.1020  0.0758  0.0407
  583ERGO    R4 8367  11.298  11.872   8.646  0.3249  0.1291 -0.0932
  583ERGO    R5 8368  11.198  11.723   8.771 -0.0092  0.2758 -0.1711
  583ERGO    C1 8369  11.261  11.515   8.457  0.1142  0.1275 -0.0505
  583ERGO    C2 8370  11.219  11.267   8.220  0.1547 -0.1459 -0.1745
  584ERGO   ROH 8371  16.772  12.804   9.871  0.0518 -0.1363  0.0804
  584ERGO    R1 8372  16.704  12.698   9.618  0.0290 -0.1098  0.0757
  584ERGO    R2 8373  16.662  12.428   9.577 -0.1042 -0.0882  0.0794
  584ERGO    R3 8374  16.425  12.514   9.474 -0.0477  0.0287  0.0452
  584ERGO    R4 8375  16.482  12.265   9.331 -0.1729 -0.0278  0.0885
  584ERGO    R5 8376  16.438  12.459   9.241 -0.0568 -0.0150  0.0541
  584ERGO    C1 8377  16.156  12.250   9.091 -0.1601  0.1171  0.0617
  584ERGO    C2 8378  15.876  12.068   9.122 -0.3215 -0.1566  0.1595
  585ERGO   ROH 8379  16.373   4.053   9.887 -0.1688  0.0576  0.0666
  585ERGO    R1 8380  16.468   3.955   9.640  0.4065  0.2431  0.2016
  585ERGO    R2 8381  16.304   3.920   9.420  0.6447 -0.6782  0.1414
  585ERGO    R3 8382  16.489   4.077   9.297  0.0480  0.0542  0.1042
  585ERGO    R4 8383  16.337   3.957   9.078  0.5155 -0.6848  0.1264
  585ERGO    R5 8384  16.553   3.953   9.103  0.5754  0.2045  0.1570
  585ERGO    C1 8385  16.530   4.126   8.764 -0.1199 -0.0011  0.0825
  585ERGO    C2 8386  16.677   4.173   8.316  0.0907 -0.0132  0.0514
  586ERGO   ROH 8387   6.105   1.234   9.236 -0.0874  0.0477 -0.0061
  586ERGO    R1 8388   6.125   1.154   8.965  0.1165 -0.0115  0.0257
  586ERGO    R2 8389   5.951   1.244   8.770  0.0726 -0.2958 -0.0631
  586ERGO    R3 8390   6.181   1.317   8.645  0.0261 -0.0385 -0.0066
  586ERGO    R4 8391   5.972   1.348   8.441  0.0336 -0.3643 -0.0880
  586ERGO    R5 8392   6.156   1.233   8.422  0.1965 -0.1421  0.0057
  586ERGO    C1 8393   6.201   1.477   8.132 -0.0328 -0.1625 -0.0495
  586ERGO    C2 8394   6.117   1.656   7.934 -0.1309 -0.1003  0.0104
  587ERGO   ROH 8395   8.637   0.925   9.188  0.1297  0.1254  0.1453
  587ERGO    R1 8396   8.671   0.989   8.914  0.0977 -0.0247  0.1062
  587ERGO    R2 8397   8.854   1.176   8.827 -0.0760  0.0937  0.0053
  587ERGO    R3 8398   8.940   0.972   8.670  0.1425  0.0729  0.1457
  587ERGO    R4 8399   9.024   1.215   8.529 -0.4974  0.1027 -0.2422
  587ERGO    R5 8400   8.906   1.051   8.446 -0.2831 -0.2385  0.0824
  587ERGO    C1 8401   9.204   1.046   8.207 -0.5376  0.0885 -0.2545
  587ERGO    C2 8402   9.324   1.121   7.854  0.0933 -0.0562  0.1821
  588ERGO   ROH 8403   7.989   9.127   9.418  0.0169 -0.2341  0.0270
  588ERGO    R1 8404   7.991   9.113   9.136  0.0689 -0.1501  0.0224
  588ERGO    R2 8405   7.880   8.902   8.996  0.1201 -0.1250 -0.0616
  588ERGO    R3 8406   7.743   9.100   8.870  0.1169 -0.1041 -0.0244
  588ERGO    R4 8407   7.702   8.863   8.703  0.2581 -0.0319 -0.1581
  588ERGO    R5 8408   7.777   9.056   8.637  0.2293  0.0212 -0.0307
  588ERGO    C1 8409   7.470   9.025   8.413  0.3355  0.0421 -0.1794
  588ERGO    C2 8410   7.300   8.870   8.219 -0.0309  0.0700 -0.1154
  589ERGO   ROH 8411   0.389   4.665  10.268 -0.1318 -0.0725 -0.1194
  589ERGO    R1 8412   0.173   4.641  10.086 -0.1385 -0.0094 -0.1197
  589ERGO    R2 8413   0.081   4.853   9.935 -0.0803  0.0184 -0.1136
  589ERGO    R3 8414   0.124   4.681   9.728 -0.1287  0.0126 -0.1191
  589ERGO    R4 8415   0.041   4.932   9.601 -0.3240 -0.0362 -0.0990
  589ERGO    R5 8416  -0.048   4.735   9.570 -0.2542 -0.0831 -0.0204
  589ERGO    C1 8417   0.057   4.817   9.212 -0.5114 -0.0734 -0.0958
  589ERGO    C2 8418  -0.052   4.930   8.886  0.1265 -0.1013 -0.0717
  590ERGO   ROH 8419   4.304  12.136   8.191 -0.2348 -0.0113  0.1285
  590ERGO    R1 8420   4.159  12.241   7.971 -0.1816 -0.0771  0.0633
  590ERGO    R2 8421   4.283  12.346   7.747 -0.1264  0.0714  0.1707
  590ERGO    R3 8422   4.127  12.166   7.616  0.0953 -0.0195  0.0212
  590ERGO    R4 8423   4.169  12.382   7.423 -0.0227  0.1277  0.1390
  590ERGO    R5 8424   3.977  12.301   7.486  0.0195 -0.0885  0.0258
  590ERGO    C1 8425   3.956  12.234   7.111  0.2458  0.0752 -0.0199
  590ERGO    C2 8426   3.796  12.246   6.797  0.0497  0.3213  0.3149
  591ERGO   ROH 8427   7.950  15.793   9.081 -0.0963 -0.0427  0.0900
  591ERGO    R1 8428   7.810  15.776   8.835 -0.0488  0.0499  0.0561
  591ERGO    R2 8429   7.899  15.899   8.604  0.1517 -0.1048  0.0492
  591ERGO    R3 8430   7.877  15.649   8.501 -0.0959 -0.1094  0.1057
  591ERGO    R4 8431   7.829  15.828   8.273  0.3540 -0.1000  0.0045
  591ERGO    R5 8432   7.700  15.666   8.341  0.0669  0.0913 -0.0618
  591ERGO    C1 8433   7.769  15.551   7.984  0.2393 -0.1017  0.0314
  591ERGO    C2 8434   7.834  15.315   7.740 -0.0768 -0.2690  0.1598
  592ERGO   ROH 8435   5.572  16.297   9.127  0.0488 -0.0342  0.1120
  592ERGO    R1 8436   5.391  16.404   8.937 -0.1060 -0.2868  0.1105
  592ERGO    R2 8437   5.474  16.559   8.723 -0.3400  0.0870  0.2736
  592ERGO    R3 8438   5.336  16.375   8.579  0.1498 -0.1267  0.0575
  592ERGO    R4 8439   5.400  16.586   8.387 -0.2849  0.1981  0.2704
  592ERGO    R5 8440   5.202  16.505   8.428 -0.1101 -0.3151  0.1270
  592ERGO    C1 8441   5.227  16.429   8.055  0.2068  0.0620  0.0658
  592ERGO    C2 8442   5.188  16.266   7.662  0.1145 -0.3406 -0.0799
  593ERGO   ROH 8443  17.329   3.551  10.230 -0.0364 -0.1422 -0.0436
  593ERGO    R1 8444  17.595   3.541  10.135 -0.0116 -0.1207  0.0250
  593ERGO    R2 8445  17.658   3.569   9.867  0.0546 -0.0973  0.0478
  593ERGO    R3 8446  17.822   3.765   9.960  0.0250 -0.0964  0.1013
  593ERGO    R4 8447  17.913   3.716   9.685  0.0302 -0.0121  0.0804
  593ERGO    R5 8448  18.036   3.714   9.866  0.0340 -0.0425  0.0830
  593ERGO    C1 8449  18.215   3.986   9.666 -0.0114  0.0384  0.1496
  593ERGO    C2 8450  18.312   4.231   9.674 -0.1431  0.1339  0.3074
  594ERGO   ROH 8451   3.087  14.656   9.816 -0.0976  0.3092 -0.1640
  594ERGO    R1 8452   3.007  14.776   9.572  0.1984  0.2542 -0.2936
  594ERGO    R2 8453   3.155  14.754   9.340  0.1785 -0.3265 -0.2703
  594ERGO    R3 8454   2.921  14.663   9.238 -0.0367  0.1047 -0.1833
  594ERGO    R4 8455   3.076  14.745   9.003  0.0987 -0.3394 -0.2506
  594ERGO    R5 8456   2.874  14.809   9.054  0.2352  0.1082 -0.2496
  594ERGO    C1 8457   2.809  14.654   8.712 -0.1497  0.0581 -0.1576
  594ERGO    C2 8458   2.638  14.492   8.483  0.0898 -0.0847 -0.3974
  595ERGO   ROH 8459   6.253   4.225   9.533 -0.0653  0.1788 -0.0311
  595ERGO    R1 8460   6.263   4.423   9.332 -0.0907  0.1770 -0.0342
  595ERGO    R2 8461   6.471   4.442   9.151 -0.0214  0.2881  0.0552
  595ERGO    R3 8462   6.271   4.431   8.968  0.0632  0.1665 -0.0318
  595ERGO    R4 8463   6.485   4.581   8.835  0.0270  0.3041  0.0644
  595ERGO    R5 8464   6.278   4.644   8.859 -0.0241  0.1739 -0.0232
  595ERGO    C1 8465   6.305   4.651   8.479  0.1347  0.1993 -0.0120
  595ERGO    C2 8466   6.492   4.739   8.209  0.3001 -0.0906 -0.1506
  596ERGO   ROH 8467   5.507   3.292   8.828  0.0673  0.0055  0.2127
  596ERGO    R1 8468   5.270   3.217   8.693  0.0983  0.1204  0.0916
  596ERGO    R2 8469   5.119   3.397   8.547  0.2426  0.2008  0.0375
  596ERGO    R3 8470   5.150   3.213   8.350  0.2597  0.2081  0.0337
  596ERGO    R4 8471   4.975   3.418   8.234  0.1412  0.1293  0.0788
  596ERGO    R5 8472   4.936   3.203   8.243  0.2331  0.1147  0.0970
  596ERGO    C1 8473   4.920   3.257   7.866  0.0983  0.0944  0.0992
  596ERGO    C2 8474   5.054   3.359   7.528 -0.0568  0.0201  0.3821
  597ERGO   ROH 8475   8.363  10.734   9.526 -0.2942  0.1705 -0.1267
  597ERGO    R1 8476   8.502  10.606   9.315 -0.1655  0.1950 -0.0576
  597ERGO    R2 8477   8.382  10.549   9.072 -0.0728  0.0515 -0.0666
  597ERGO    R3 8478   8.593  10.688   8.972 -0.1345  0.1515 -0.0607
  597ERGO    R4 8479   8.498  10.525   8.747  0.0576 -0.0404 -0.0149
  597ERGO    R5 8480   8.702  10.533   8.825  0.0290  0.1456  0.0580
  597ERGO    C1 8481   8.763  10.642   8.464  0.0756  0.0001  0.0207
  597ERGO    C2 8482   8.867  10.746   8.213 -0.0270  0.0207  0.3573
  598ERGO   ROH 8483   1.829   1.931  10.035 -0.2657 -0.0432  0.0431
  598ERGO    R1 8484   1.893   1.964   9.761 -0.2097  0.0724  0.0691
  598ERGO    R2 8485   1.799   1.792   9.565  0.0211  0.0164  0.0065
  598ERGO    R3 8486   1.709   2.022   9.452 -0.1709 -0.0492  0.0219
  598ERGO    R4 8487   1.856   1.887   9.238  0.0226  0.1251  0.0376
  598ERGO    R5 8488   1.887   2.091   9.307 -0.1934  0.1468  0.0822
  598ERGO    C1 8489   1.805   2.158   8.941 -0.1568  0.1269  0.0702
  598ERGO    C2 8490   1.828   2.136   8.613  0.0219 -0.0274 -0.5947
  599ERGO   ROH 8491   2.749  16.740   9.341 -0.0064  0.1012  0.0204
  599ERGO    R1 8492   2.699  16.594   9.104 -0.1182 -0.0131  0.1127
  599ERGO    R2 8493   2.446  16.573   8.993 -0.1268  0.1547  0.1001
  599ERGO    R3 8494   2.571  16.668   8.771 -0.0089 -0.1157  0.0471
  599ERGO    R4 8495   2.361  16.491   8.668 -0.2789  0.1356  0.1440
  599ERGO    R5 8496   2.574  16.482   8.620 -0.2904 -0.1890  0.1251
  599ERGO    C1 8497   2.429  16.532   8.270 -0.2568 -0.1291  0.1198
  599ERGO    C2 8498   2.354  16.599   7.820  0.3000 -0.2000 -0.0299
  600ERGO   ROH 8499  12.637   3.227   9.768  0.1784  0.1325  0.0029
  600ERGO    R1 8500  12.641   3.303   9.496 -0.1246 -0.1287 -0.0811
  600ERGO    R2 8501  12.427   3.263   9.327 -0.5139  0.1523  0.3210
  600ERGO    R3 8502  12.453   3.529   9.282 -0.0290  0.0703  0.0424
  600ERGO    R4 8503  12.372   3.418   9.023 -0.4883 -0.0305  0.2213
  600ERGO    R5 8504  12.546   3.544   9.062 -0.1980 -0.3255 -0.0630
  600ERGO    C1 8505  12.365   3.759   8.804 -0.0184 -0.2139 -0.0982
  600ERGO    C2 8506  12.327   3.842   8.465  0.1269 -0.0668  0.1138
  601ERGO   ROH 8507   0.440  16.180   9.647  0.0575  0.0055 -0.0288
  601ERGO    R1 8508   0.301  16.237   9.407  0.0872  0.0367 -0.0374
  601ERGO    R2 8509   0.405  16.401   9.210  0.0902  0.0970  0.0212
  601ERGO    R3 8510   0.356  16.186   9.051  0.1505  0.1284 -0.0425
  601ERGO    R4 8511   0.384  16.412   8.866  0.1241  0.1926  0.0206
  601ERGO    R5 8512   0.216  16.272   8.877  0.1480  0.1518 -0.0337
  601ERGO    C1 8513   0.325  16.216   8.515  0.2006  0.2776 -0.0395
  601ERGO    C2 8514   0.364  16.286   8.182 -0.1742  0.1214 -0.1481
  602ERGO   ROH 8515   9.523   9.705   9.509 -0.2900  0.0358  0.2259
  602ERGO    R1 8516   9.642   9.760   9.258 -0.1453 -0.0034  0.2855
  602ERGO    R2 8517   9.562   9.636   9.025  0.0515 -0.1078  0.2727
  602ERGO    R3 8518   9.534   9.891   8.936  0.0177 -0.1465  0.1699
  602ERGO    R4 8519   9.529   9.726   8.693 -0.0116 -0.2513  0.2389
  602ERGO    R5 8520   9.659   9.897   8.732 -0.0167 -0.2240  0.1451
  602ERGO    C1 8521   9.483  10.019   8.417 -0.0801 -0.3711  0.1226
  602ERGO    C2 8522   9.567  10.209   8.111  0.1486  0.0184  0.3432
  603ERGO   ROH 8523   5.580  11.122   9.949 -0.1196  0.0017  0.0611
  603ERGO    R1 8524   5.597  10.971   9.710 -0.0072 -0.1777  0.1792
  603ERGO    R2 8525   5.454  10.739   9.670 -0.2523 -0.0313  0.1573
  603ERGO    R3 8526   5.370  10.867   9.445  0.1858 -0.0621 -0.0336
  603ERGO    R4 8527   5.286  10.589   9.407 -0.4185  0.0835  0.1971
  603ERGO    R5 8528   5.405  10.709   9.269 -0.0517 -0.3214  0.1499
  603ERGO    C1 8529   5.109  10.623   9.044 -0.1040  0.1215  0.0409
  603ERGO    C2 8530   4.847  10.537   8.660 -0.0597 -0.1992  0.0522
  604ERGO   ROH 8531   9.090  16.121   9.180 -0.0245  0.2284  0.1320
  604ERGO    R1 8532   9.244  16.084   8.944 -0.0371  0.3374  0.1070
  604ERGO    R2 8533   9.194  15.880   8.764  0.2022  0.1791  0.2179
  604ERGO    R3 8534   9.181  16.084   8.586 -0.1408  0.0812  0.1226
  604ERGO    R4 8535   9.246  15.849   8.424  0.0906  0.0831  0.2085
  604ERGO    R5 8536   9.355  16.037   8.428 -0.1472  0.2296  0.0687
  604ERGO    C1 8537   9.264  16.023   8.058 -0.2966 -0.0648  0.1135
  604ERGO    C2 8538   9.285  16.032   7.747  0.1747 -0.2257 -0.0084
  605ERGO   ROH 8539  13.663  17.500   9.371 -0.1296  0.1122 -0.1662
  605ERGO    R1 8540  13.791  17.524   9.120  0.0431  0.1915 -0.0722
  605ERGO    R2 8541  13.650  17.534   8.882  0.2195 -0.1146 -0.1921
  605ERGO    R3 8542  13.791  17.763   8.846 -0.0828  0.0804 -0.1716
  605ERGO    R4 8543  13.714  17.680   8.575  0.3089 -0.1924 -0.2112
  605ERGO    R5 8544  13.916  17.725   8.645  0.1797  0.1478 -0.0284
  605ERGO    C1 8545  13.884  17.980   8.363  0.0774 -0.0546 -0.2031
  605ERGO    C2 8546  13.987  18.210   8.213  0.1927 -0.1592  0.2548
  606ERGO   ROH 8547   9.230   3.791   9.841  0.0651 -0.0544 -0.0649
  606ERGO    R1 8548   9.258   3.860   9.568 -0.0386 -0.0773 -0.0823
  606ERGO    R2 8549   9.179   4.105   9.467 -0.2007 -0.1323 -0.1005
  606ERGO    R3 8550   9.434   4.114   9.376 -0.2258 -0.0045 -0.1586
  606ERGO    R4 8551   9.270   4.176   9.142 -0.3095 -0.1954 -0.1449
  606ERGO    R5 8552   9.422   4.021   9.156 -0.2110 -0.0920 -0.1200
  606ERGO    C1 8553   9.563   4.226   8.866 -0.3964 -0.1123 -0.2254
  606ERGO    C2 8554   9.660   4.264   8.551 -0.1064 -0.2679 -0.2741
  607ERGO   ROH 8555   3.996   8.061   9.922  0.0569 -0.1395 -0.1137
  607ERGO    R1 8556   4.106   8.209   9.707  0.0581 -0.0415 -0.0464
  607ERGO    R2 8557   4.250   8.091   9.504  0.1480  0.0642 -0.0462
  607ERGO    R3 8558   4.069   8.217   9.345  0.1418  0.0463 -0.0530
  607ERGO    R4 8559   4.277   8.122   9.160  0.1532  0.0638 -0.0457
  607ERGO    R5 8560   4.202   8.327   9.178  0.1351  0.0562 -0.0504
  607ERGO    C1 8561   4.122   8.258   8.812  0.1505  0.0466 -0.0517
  607ERGO    C2 8562   4.276   8.147   8.520 -0.2955 -0.0105  0.3576
  608ERGO   ROH 8563  11.785  18.540   9.325 -0.2398  0.0553 -0.0814
  608ERGO    R1 8564  11.929  18.558   9.082 -0.0873 -0.2880 -0.0240
  608ERGO    R2 8565  11.979  18.338   8.922 -0.5970 -0.4182 -0.0324
  608ERGO    R3 8566  11.862  18.492   8.730 -0.1330 -0.0744 -0.0557
  608ERGO    R4 8567  11.982  18.268   8.584 -0.4980 -0.2602 -0.0648
  608ERGO    R5 8568  12.013  18.480   8.545 -0.0177 -0.3031  0.0534
  608ERGO    C1 8569  11.873  18.370   8.207 -0.0047  0.1546 -0.1055
  608ERGO    C2 8570  12.025  18.272   7.853 -0.5039  0.0838  0.1823
  609ERGO   ROH 8571  12.922  16.720   9.426 -0.1471  0.1650  0.0990
  609ERGO    R1 8572  12.847  16.788   9.162 -0.0433  0.1868  0.0744
  609ERGO    R2 8573  12.936  17.018   9.037  0.0354  0.1812  0.1140
  609ERGO    R3 8574  13.017  16.843   8.845  0.0793  0.1753  0.1383
  609ERGO    R4 8575  12.906  17.070   8.696  0.1235  0.1683  0.1043
  609ERGO    R5 8576  12.851  16.860   8.674  0.1254  0.1719  0.0958
  609ERGO    C1 8577  12.965  16.936   8.318  0.2158  0.1554  0.1215
  609ERGO    C2 8578  13.132  16.770   8.056  0.0311  0.0513 -0.0067
  610ERGO   ROH 8579   2.156   9.464   9.597 -0.0647 -0.0136 -0.0457
  610ERGO    R1 8580   2.154   9.419   9.318  0.0032 -0.1127 -0.0313
  610ERGO    R2 8581   2.292   9.580   9.140  0.0008 -0.1400 -0.0612
  610ERGO    R3 8582   2.399   9.343   9.060  0.0751 -0.1428  0.0467
  610ERGO    R4 8583   2.444   9.525   8.835  0.0181 -0.2349 -0.0353
  610ERGO    R5 8584   2.348   9.330   8.827  0.0804 -0.2676  0.0538
  610ERGO    C1 8585   2.634   9.270   8.582  0.0979 -0.2928  0.0810
  610ERGO    C2 8586   2.955   9.371   8.372  0.0021 -0.3262  0.5479
  611ERGO   ROH 8587  10.331  15.371   8.939 -0.1381  0.1609 -0.2113
  611ERGO    R1 8588  10.314  15.371   8.656 -0.1434  0.0639 -0.2114
  611ERGO    R2 8589  10.485  15.223   8.497 -0.0142  0.1668 -0.1710
  611ERGO    R3 8590  10.253  15.125   8.395  0.0684 -0.0687 -0.1390
  611ERGO    R4 8591  10.448  15.099   8.177  0.0162  0.3462 -0.2447
  611ERGO    R5 8592  10.253  15.198   8.167 -0.1240  0.0988 -0.0889
  611ERGO    C1 8593  10.208  14.935   7.894  0.1115  0.2295 -0.2575
  611ERGO    C2 8594  10.332  14.840   7.578 -0.0889  0.0300  0.1658
  612ERGO   ROH 8595   2.494  15.384   9.743 -0.1395 -0.0718 -0.0867
  612ERGO    R1 8596   2.405  15.429   9.479 -0.1282  0.0333 -0.0721
  612ERGO    R2 8597   2.137  15.428   9.410 -0.1177 -0.0214 -0.0969
  612ERGO    R3 8598   2.196  15.674   9.308 -0.1932  0.0507  0.0290
  612ERGO    R4 8599   1.997  15.561   9.123  0.0143 -0.0237 -0.1640
  612ERGO    R5 8600   2.193  15.641   9.070  0.0102  0.1204  0.0122
  612ERGO    C1 8601   1.970  15.868   8.861  0.0201  0.0426 -0.0847
  612ERGO    C2 8602   1.718  15.963   8.626  0.0340  0.0420  0.0434
  613ERGO   ROH 8603   7.612  13.443   8.860 -0.1282  0.0118  0.0208
  613ERGO    R1 8604   7.623  13.498   8.583 -0.1979  0.2151  0.0567
  613ERGO    R2 8605   7.640  13.299   8.391  0.0685  0.3623 -0.0803
  613ERGO    R3 8606   7.420  13.422   8.290 -0.0978  0.1429  0.0058
  613ERGO    R4 8607   7.528  13.269   8.066 -0.0359  0.2459 -0.0339
  613ERGO    R5 8608   7.482  13.481   8.067 -0.2474  0.2012 -0.0203
  613ERGO    C1 8609   7.256  13.367   7.781 -0.2528 -0.0280  0.0739
  613ERGO    C2 8610   7.187  13.381   7.444  0.2970 -0.2410  0.4531
  614ERGO   ROH 8611   5.672   0.237   9.309 -0.1082 -0.0702  0.0677
  614ERGO    R1 8612   5.784   0.152   9.063 -0.1510  0.0243  0.0162
  614ERGO    R2 8613   5.631   0.108   8.838 -0.2143 -0.0719  0.0829
  614ERGO    R3 8614   5.806   0.282   8.724 -0.3858  0.0588  0.0111
  614ERGO    R4 8615   5.730   0.102   8.506 -0.1810 -0.1431  0.0931
  614ERGO    R5 8616   5.932   0.148   8.571 -0.2295  0.1060  0.0914
  614ERGO    C1 8617   5.952   0.261   8.207 -0.3227 -0.0618  0.0317
  614ERGO    C2 8618   6.034   0.432   7.911  0.1697  0.0182 -0.1927
  615ERGO   ROH 8619   4.834   7.529   9.895  0.0551  0.0821  0.0835
  615ERGO    R1 8620   4.814   7.599   9.622  0.1004  0.1221  0.0899
  615ERGO    R2 8621   5.011   7.540   9.438  0.1072  0.1005  0.1025
  615ERGO    R3 8622   4.805   7.423   9.303  0.0945  0.1644  0.0667
  615ERGO    R4 8623   5.018   7.453   9.104  0.1276  0.1240  0.0971
  615ERGO    R5 8624   4.812   7.524   9.086  0.1488  0.1787  0.0756
  615ERGO    C1 8625   4.829   7.293   8.782  0.1275  0.1977  0.0604
  615ERGO    C2 8626   4.940   7.025   8.623 -0.0616  0.1909  0.2832
  616ERGO   ROH 8627  11.869   9.459   9.836 -0.0000 -0.1475 -0.0934
  616ERGO    R1 8628  11.841   9.310   9.597  0.0135 -0.1559 -0.0901
  616ERGO    R2 8629  11.667   9.384   9.395 -0.0314 -0.2041 -0.0718
  616ERGO    R3 8630  11.890   9.370   9.241 -0.0437 -0.1415 -0.0950
  616ERGO    R4 8631  11.688   9.217   9.094 -0.0154 -0.1833 -0.0820
  616ERGO    R5 8632  11.887   9.148   9.152  0.0052 -0.1359 -0.1060
  616ERGO    C1 8633  11.910   9.107   8.773 -0.0177 -0.1124 -0.1098
  616ERGO    C2 8634  11.896   9.049   8.479 -0.4338 -0.0740 -0.0632
  617ERGO   ROH 8635   7.708   3.292   9.533  0.0050  0.2089 -0.1256
  617ERGO    R1 8636   7.805   3.262   9.268 -0.0609  0.1960 -0.1489
  617ERGO    R2 8637   7.776   3.028   9.124  0.1176  0.1038 -0.0417
  617ERGO    R3 8638   7.663   3.194   8.940 -0.1150 -0.0814 -0.0700
  617ERGO    R4 8639   7.748   2.958   8.787  0.1299 -0.0321 -0.0146
  617ERGO    R5 8640   7.799   3.166   8.745 -0.1212  0.0176 -0.0885
  617ERGO    C1 8641   7.626   3.072   8.418 -0.0813 -0.2851 -0.0252
  617ERGO    C2 8642   7.643   3.100   8.073  0.2147 -0.0078  0.0321
  618ERGO   ROH 8643   4.356  13.224   9.303  0.3386  0.0741  0.1260
  618ERGO    R1 8644   4.298  13.096   9.057  0.2788  0.0543  0.1504
  618ERGO    R2 8645   4.214  13.234   8.833  0.1960  0.0331  0.1676
  618ERGO    R3 8646   4.425  13.108   8.716  0.1753  0.0497  0.1116
  618ERGO    R4 8647   4.227  13.137   8.502  0.1371  0.0727  0.1536
  618ERGO    R5 8648   4.324  12.952   8.564  0.1505  0.0672  0.1116
  618ERGO    C1 8649   4.432  12.963   8.199  0.0833  0.1116  0.0927
  618ERGO    C2 8650   4.337  12.840   7.846 -0.2108  0.0020 -0.0485
  619ERGO   ROH 8651  10.838  14.446   9.022 -0.0556  0.0061  0.0494
  619ERGO    R1 8652  10.973  14.479   8.776 -0.0966  0.0643  0.0339
  619ERGO    R2 8653  11.033  14.268   8.608  0.1599  0.0595  0.1232
  619ERGO    R3 8654  10.902  14.418   8.424 -0.0278 -0.1760  0.0607
  619ERGO    R4 8655  11.083  14.248   8.267  0.3428  0.1294  0.1455
  619ERGO    R5 8656  11.068  14.466   8.258 -0.0353  0.1078  0.1310
  619ERGO    C1 8657  10.989  14.378   7.895  0.2732 -0.0510  0.0996
  619ERGO    C2 8658  11.088  14.399   7.532 -0.0047 -0.2632 -0.1919
  620ERGO   ROH 8659  14.510   5.246   9.862 -0.0122 -0.2195 -0.0444
  620ERGO    R1 8660  14.511   5.131   9.604  0.0138 -0.1259 -0.0849
  620ERGO    R2 8661  14.457   5.278   9.376  0.1555 -0.0195 -0.0446
  620ERGO    R3 8662  14.697   5.178   9.294  0.1324 -0.1049 -0.0127
  620ERGO    R4 8663  14.569   5.273   9.048  0.2553  0.0834 -0.0139
  620ERGO    R5 8664  14.649   5.074   9.084  0.1420  0.0193 -0.0813
  620ERGO    C1 8665  14.858   5.176   8.782  0.2918  0.0631  0.0339
  620ERGO    C2 8666  14.889   5.042   8.490  0.2391 -0.1738 -0.2455
  621ERGO   ROH 8667  11.333   3.820   9.338 -0.0942 -0.0918 -0.0729
  621ERGO    R1 8668  11.382   3.992   9.119 -0.1693  0.0686  0.0350
  621ERGO    R2 8669  11.504   3.906   8.887  0.0804  0.3203  0.0702
  621ERGO    R3 8670  11.282   4.011   8.770  0.0214  0.1025 -0.0202
  621ERGO    R4 8671  11.445   3.912   8.546  0.2641  0.3487  0.0373
  621ERGO    R5 8672  11.363   4.114   8.569  0.0201  0.2551  0.0535
  621ERGO    C1 8673  11.202   4.014   8.238  0.3157  0.1607 -0.0666
  621ERGO    C2 8674  11.288   4.233   7.907  0.2008 -0.2882 -0.1796
  622ERGO   ROH 8675   7.982   2.721   9.391 -0.3147 -0.0545 -0.0723
  622ERGO    R1 8676   8.054   2.565   9.166 -0.0373 -0.1220  0.0584
  622ERGO    R2 8677   8.087   2.673   8.915 -0.2215 -0.2679 -0.0298
  622ERGO    R3 8678   8.330   2.552   8.930 -0.0034  0.1622  0.0787
  622ERGO    R4 8679   8.311   2.647   8.653 -0.3340 -0.4068 -0.1139
  622ERGO    R5 8680   8.355   2.443   8.718  0.0454 -0.2199  0.2694
  622ERGO    C1 8681   8.669   2.518   8.514 -0.1948 -0.0840 -0.0611
  622ERGO    C2 8682   8.921   2.464   8.258  0.0056 -0.1724 -0.2182
  623ERGO   ROH 8683   7.326   9.913   9.417  0.0434  0.2564 -0.0152
  623ERGO    R1 8684   7.191   9.883   9.170 -0.0505  0.2662  0.0345
  623ERGO    R2 8685   7.133  10.097   9.006  0.1006  0.2459 -0.0462
  623ERGO    R3 8686   7.264   9.949   8.820 -0.0838  0.0409 -0.0164
  623ERGO    R4 8687   7.098  10.135   8.664  0.0224  0.1081 -0.0542
  623ERGO    R5 8688   7.102   9.918   8.645 -0.1687  0.0916  0.0511
  623ERGO    C1 8689   7.200  10.018   8.290 -0.1961 -0.1645 -0.0307
  623ERGO    C2 8690   7.005  10.033   8.086 -0.0187 -0.1721  0.0629
  624ERGO   ROH 8691   9.033  12.302   9.393  0.2094 -0.3232  0.2087
  624ERGO    R1 8692   9.128  12.163   9.165  0.1123 -0.3150  0.1628
  624ERGO    R2 8693   9.244  12.291   8.950 -0.0686 -0.2969  0.0724
  624ERGO    R3 8694   9.447  12.116   8.997  0.0225 -0.2215 -0.0366
  624ERGO    R4 8695   9.445  12.152   8.705 -0.0357 -0.0916 -0.0188
  624ERGO    R5 8696   9.437  11.963   8.813  0.0710 -0.1442 -0.1035
  624ERGO    C1 8697   9.753  11.908   8.607  0.0690  0.0987 -0.1742
  624ERGO    C2 8698   9.983  11.973   8.346 -0.2318  0.1102 -0.0868
  625ERGO   ROH 8699  10.386   6.741   9.605  0.0173 -0.1897 -0.0637
  625ERGO    R1 8700  10.505   6.679   9.356  0.0947 -0.2955 -0.0008
  625ERGO    R2 8701  10.582   6.423   9.287 -0.3966 -0.4275 -0.0854
  625ERGO    R3 8702  10.426   6.469   9.069 -0.1241  0.0406 -0.1938
  625ERGO    R4 8703  10.637   6.289   8.973 -0.3127 -0.2066 -0.1669
  625ERGO    R5 8704  10.582   6.481   8.887  0.0741 -0.0226 -0.0348
  625ERGO    C1 8705  10.524   6.255   8.586 -0.0082  0.3615 -0.3161
  625ERGO    C2 8706  10.329   5.963   8.259  0.1725  0.0069  0.1659
  626ERGO   ROH 8707  10.913   9.597   9.585 -0.0458  0.3645 -0.1074
  626ERGO    R1 8708  11.038   9.657   9.338  0.0330  0.1513 -0.1226
  626ERGO    R2 8709  11.290   9.769   9.323  0.0996  0.0072 -0.1452
  626ERGO    R3 8710  11.341   9.555   9.163  0.0113 -0.1171 -0.0075
  626ERGO    R4 8711  11.509   9.769   9.055  0.0118 -0.2228 -0.2183
  626ERGO    R5 8712  11.365   9.649   8.944 -0.0441 -0.2799 -0.0838
  626ERGO    C1 8713  11.683   9.568   8.750 -0.1221 -0.4734 -0.1316
  626ERGO    C2 8714  11.818   9.544   8.432  0.0526 -0.1024  0.2760
  627ERGO   ROH 8715   1.058  18.354   9.550  0.0718  0.1523 -0.0883
  627ERGO    R1 8716   0.999  18.493   9.311  0.2140 -0.0249 -0.2290
  627ERGO    R2 8717   1.084  18.406   9.063 -0.0693 -0.4928 -0.1691
  627ERGO    R3 8718   0.820  18.423   9.002 -0.0759 -0.0719 -0.0562
  627ERGO    R4 8719   0.959  18.492   8.753 -0.0491 -0.4727 -0.1720
  627ERGO    R5 8720   0.806  18.611   8.853  0.1928 -0.1326 -0.1717
  627ERGO    C1 8721   0.638  18.559   8.514 -0.0436 -0.0659 -0.0677
  627ERGO    C2 8722   0.510  18.527   8.126 -0.0297 -0.2180 -0.1412
  628ERGO   ROH 8723   2.512   9.227   9.853  0.2433 -0.0450  0.1110
  628ERGO    R1 8724   2.564   9.165   9.582  0.2725  0.0028  0.1051
  628ERGO    R2 8725   2.819   9.173   9.474  0.3089 -0.1339  0.1728
  628ERGO    R3 8726   2.760   8.918   9.400  0.1555 -0.0733  0.0830
  628ERGO    R4 8727   2.977   8.999   9.220  0.1047 -0.0958  0.0175
  628ERGO    R5 8728   2.783   8.919   9.162  0.0405  0.0219  0.0729
  628ERGO    C1 8729   3.013   8.659   9.003 -0.1582 -0.0168 -0.1572
  628ERGO    C2 8730   3.106   8.507   8.688  0.2155 -0.2613 -0.0704
  629ERGO   ROH 8731   7.287   6.797   9.691 -0.1351  0.2921  0.0156
  629ERGO    R1 8732   7.360   6.789   9.418  0.1629  0.3344  0.0909
  629ERGO    R2 8733   7.174   6.779   9.214  0.3832 -0.0286 -0.1029
  629ERGO    R3 8734   7.308   6.997   9.124  0.1224  0.1717 -0.0188
  629ERGO    R4 8735   7.192   6.878   8.883  0.3896  0.0319 -0.0845
  629ERGO    R5 8736   7.401   6.928   8.914  0.3113  0.3206  0.0123
  629ERGO    C1 8737   7.328   7.140   8.606  0.1484  0.2550  0.0052
  629ERGO    C2 8738   7.155   7.194   8.248  0.0235  0.0275  0.2678
  630ERGO   ROH 8739   7.244   1.892   9.555  0.5133 -0.2729 -0.0410
  630ERGO    R1 8740   7.184   1.942   9.283  0.2642 -0.2188  0.0202
  630ERGO    R2 8741   7.089   2.186   9.194  0.0395 -0.2349  0.1664
  630ERGO    R3 8742   7.300   2.170   9.024 -0.0779 -0.0607  0.0084
  630ERGO    R4 8743   7.082   2.286   8.863 -0.1577  0.0523  0.2533
  630ERGO    R5 8744   7.201   2.110   8.814 -0.1846  0.1245  0.0198
  630ERGO    C1 8745   7.277   2.329   8.511 -0.3827  0.3830  0.1556
  630ERGO    C2 8746   7.443   2.605   8.220  0.2836 -0.0118 -0.0131
  631ERGO   ROH 8747  10.531  10.904   9.370  0.0592 -0.0184 -0.1130
  631ERGO    R1 8748  10.613  10.700   9.192 -0.1212 -0.0807 -0.1273
  631ERGO    R2 8749  10.508  10.671   8.939 -0.0114  0.1489 -0.2042
  631ERGO    R3 8750  10.769  10.681   8.864  0.0526 -0.1917 -0.0392
  631ERGO    R4 8751  10.641  10.503   8.668 -0.0480 -0.0422 -0.1043
  631ERGO    R5 8752  10.816  10.458   8.789 -0.1821 -0.2590  0.0106
  631ERGO    C1 8753  10.963  10.413   8.440 -0.0092 -0.4733  0.1087
  631ERGO    C2 8754  10.957  10.211   8.066 -0.0287  0.1551  0.3767
  632ERGO   ROH 8755   5.363   9.192   9.637 -0.2147 -0.0261 -0.0569
  632ERGO    R1 8756   5.468   9.161   9.376 -0.0396  0.1290 -0.0068
  632ERGO    R2 8757   5.386   8.960   9.205  0.2458  0.0829 -0.0971
  632ERGO    R3 8758   5.338   9.167   9.036  0.1395  0.0760 -0.0767
  632ERGO    R4 8759   5.412   8.945   8.861  0.2328  0.1311 -0.1004
  632ERGO    R5 8760   5.502   9.143   8.864  0.1395  0.1711 -0.0880
  632ERGO    C1 8761   5.383   9.132   8.502  0.1255  0.1526 -0.0831
  632ERGO    C2 8762   5.453   9.116   8.147  0.0301  0.1528  0.1110
  633ERGO   ROH 8763  10.571  14.028   8.917  0.1019  0.3027 -0.1469
  633ERGO    R1 8764  10.554  13.944   8.647  0.0116  0.3693 -0.1625
  633ERGO    R2 8765  10.611  14.111   8.435  0.4331  0.2851 -0.1238
  633ERGO    R3 8766  10.782  13.912   8.365  0.0465 -0.0728 -0.0928
  633ERGO    R4 8767  10.702  14.035   8.110  0.3839  0.1438 -0.1051
  633ERGO    R5 8768  10.690  13.823   8.162 -0.0788  0.1497 -0.1384
  633ERGO    C1 8769  10.916  13.804   7.856 -0.0077 -0.2746 -0.0652
  633ERGO    C2 8770  10.799  13.924   7.612 -0.0847 -0.1617 -0.0473
  634ERGO   ROH 8771   9.093   5.236   9.673 -0.1465  0.0996 -0.0928
  634ERGO    R1 8772   9.274   5.241   9.457 -0.0952  0.1840 -0.0486
  634ERGO    R2 8773   9.210   5.145   9.206 -0.0067  0.1983 -0.0803
  634ERGO    R3 8774   9.288   5.393   9.126 -0.0629  0.2343 -0.0232
  634ERGO    R4 8775   9.317   5.226   8.887  0.3929  0.2071  0.0510
  634ERGO    R5 8776   9.470   5.353   8.976  0.1800  0.3302  0.2420
  634ERGO    C1 8777   9.453   5.505   8.627  0.5728  0.2461  0.1810
  634ERGO    C2 8778   9.439   5.600   8.306 -0.0691  0.4005 -0.2677
  635ERGO   ROH 8779   3.304  18.221   9.342 -0.1348 -0.0750 -0.1514
  635ERGO    R1 8780   3.337  18.413   9.137 -0.0161 -0.0237 -0.0858
  635ERGO    R2 8781   3.554  18.583   9.125  0.0070 -0.0408  0.0650
  635ERGO    R3 8782   3.579  18.481   8.874  0.1193  0.0228  0.0494
  635ERGO    R4 8783   3.800  18.672   8.899  0.1932 -0.0867  0.2465
  635ERGO    R5 8784   3.650  18.667   8.741  0.2909  0.0300  0.1487
  635ERGO    C1 8785   3.967  18.628   8.532  0.4071 -0.0537  0.3378
  635ERGO    C2 8786   4.243  18.629   8.342  0.1208  0.1087 -0.0991
  636ERGO   ROH 8787   5.416  13.456   8.893  0.5418  0.1779  0.0475
  636ERGO    R1 8788   5.480  13.422   8.619  0.1754  0.1541 -0.0410
  636ERGO    R2 8789   5.287  13.388   8.424 -0.0984  0.2907  0.1957
  636ERGO    R3 8790   5.413  13.599   8.309 -0.1060  0.2187  0.0541
  636ERGO    R4 8791   5.244  13.491   8.097 -0.0268  0.0124  0.0962
  636ERGO    R5 8792   5.457  13.528   8.085 -0.0312  0.0410  0.1244
  636ERGO    C1 8793   5.336  13.749   7.798  0.0078 -0.2174 -0.0946
  636ERGO    C2 8794   5.425  13.824   7.443  0.0346  0.3618  0.0312
  637ERGO   ROH 8795   9.692   0.050   9.292 -0.1245  0.0671  0.1452
  637ERGO    R1 8796   9.778   0.155   9.043 -0.1196 -0.1106  0.0704
  637ERGO    R2 8797  10.017   0.289   9.014 -0.2461  0.1076  0.0430
  637ERGO    R3 8798  10.059   0.105   8.817  0.0405 -0.0629  0.2548
  637ERGO    R4 8799  10.225   0.336   8.741 -0.4184  0.1797 -0.0778
  637ERGO    R5 8800  10.075   0.236   8.617 -0.2768 -0.2664  0.0850
  637ERGO    C1 8801  10.385   0.192   8.398 -0.2496  0.0617  0.0505
  637ERGO    C2 8802  10.633   0.330   8.202 -0.1876  0.1254 -0.1719
  638ERGO   ROH 8803   8.753  18.509   9.253  0.1052 -0.0568 -0.1007
  638ERGO    R1 8804   8.682  18.580   8.988 -0.0026 -0.0289 -0.0653
  638ERGO    R2 8805   8.842  18.739   8.829 -0.1361  0.1102 -0.0646
  638ERGO    R3 8806   8.821  18.531   8.655 -0.0538  0.1420 -0.1125
  638ERGO    R4 8807   8.865  18.766   8.485 -0.1165  0.1958 -0.0563
  638ERGO    R5 8808   8.702  18.622   8.468 -0.0682  0.1459 -0.1015
  638ERGO    C1 8809   8.858  18.586   8.122 -0.0278  0.2758 -0.0966
  638ERGO    C2 8810   9.022  18.382   7.967  0.1958  0.0730  0.0924
  639ERGO   ROH 8811   2.313  13.403   9.582 -0.0304 -0.0213  0.1556
  639ERGO    R1 8812   2.096  13.468   9.412  0.0364 -0.1477  0.0206
  639ERGO    R2 8813   1.848  13.350   9.438 -0.0424  0.0510  0.1730
  639ERGO    R3 8814   1.763  13.608   9.451  0.1186  0.1331 -0.2477
  639ERGO    R4 8815   1.528  13.457   9.360 -0.1219  0.0356  0.4632
  639ERGO    R5 8816   1.616  13.632   9.263 -0.1804 -0.2096 -0.0710
  639ERGO    C1 8817   1.263  13.761   9.326 -0.0170  0.1036  0.2372
  639ERGO    C2 8818   0.852  13.838   9.262  0.1839  0.0395  0.0546
  640ERGO   ROH 8819   3.292  17.759   9.600  0.1795  0.1739  0.1289
  640ERGO    R1 8820   3.304  17.767   9.317  0.1475  0.1261  0.1256
  640ERGO    R2 8821   3.342  17.540   9.164  0.2862  0.1193  0.1660
  640ERGO    R3 8822   3.115  17.624   9.041  0.2163 -0.0575  0.1725
  640ERGO    R4 8823   3.271  17.495   8.829  0.3555  0.1500  0.1475
  640ERGO    R5 8824   3.188  17.697   8.825  0.1665  0.0740  0.1999
  640ERGO    C1 8825   3.016  17.548   8.518  0.3302  0.0018  0.1429
  640ERGO    C2 8826   2.889  17.464   8.295 -0.0463  0.1913  0.1537
  641ERGO   ROH 8827  11.126   7.573   9.841  0.1991 -0.0238 -0.1533
  641ERGO    R1 8828  11.033   7.576   9.574  0.0323  0.0437 -0.0939
  641ERGO    R2 8829  11.035   7.803   9.418  0.2245  0.0060 -0.1283
  641ERGO    R3 8830  11.174   7.645   9.246 -0.0892 -0.1992 -0.2039
  641ERGO    R4 8831  11.113   7.887   9.091  0.7025  0.2069  0.0260
  641ERGO    R5 8832  11.068   7.681   9.034  0.1488  0.3703 -0.2536
  641ERGO    C1 8833  11.288   7.786   8.740  0.6864  0.1313  0.0449
  641ERGO    C2 8834  11.280   7.854   8.449  0.0200  0.0924 -0.1682
  642ERGO   ROH 8835  12.442   1.363   9.527 -0.0518  0.2322  0.0041
  642ERGO    R1 8836  12.574   1.300   9.285  0.1426  0.2676  0.0990
  642ERGO    R2 8837  12.440   1.274   9.044  0.2634 -0.1471  0.0654
  642ERGO    R3 8838  12.622   1.459   8.961 -0.0168  0.1050 -0.0050
  642ERGO    R4 8839  12.499   1.360   8.714  0.1635 -0.2036  0.0322
  642ERGO    R5 8840  12.712   1.368   8.759  0.1492  0.1540  0.0489
  642ERGO    C1 8841  12.704   1.583   8.444 -0.1578  0.0001 -0.0532
  642ERGO    C2 8842  12.792   1.788   8.138  0.2025  0.0412 -0.2911
  643ERGO   ROH 8843   1.591   0.726   9.761 -0.0227  0.0490 -0.0959
  643ERGO    R1 8844   1.431   0.901   9.606 -0.1093  0.0499 -0.0069
  643ERGO    R2 8845   1.488   0.959   9.342 -0.2182  0.1025 -0.0184
  643ERGO    R3 8846   1.231   0.878   9.303 -0.2207  0.0695  0.0642
  643ERGO    R4 8847   1.307   1.008   9.051 -0.2973  0.0290  0.0179
  643ERGO    R5 8848   1.132   1.053   9.174 -0.2709  0.0359  0.0551
  643ERGO    C1 8849   0.961   0.960   8.846 -0.3457 -0.0448  0.1166
  643ERGO    C2 8850   0.921   0.798   8.436 -0.1693  0.2207  0.3273
  644ERGO   ROH 8851   4.780  14.886   9.395  0.0696 -0.1129  0.1139
  644ERGO    R1 8852   4.849  15.002   9.146 -0.1171 -0.0020  0.1106
  644ERGO    R2 8853   5.036  14.890   8.976  0.0912  0.3065  0.1190
  644ERGO    R3 8854   4.834  14.904   8.795  0.0626 -0.0505  0.1171
  644ERGO    R4 8855   5.069  15.001   8.651 -0.1171  0.4042  0.1303
  644ERGO    R5 8856   4.879  15.104   8.671 -0.3108  0.0478  0.1367
  644ERGO    C1 8857   4.899  15.079   8.291 -0.2651  0.1257  0.1350
  644ERGO    C2 8858   4.729  15.045   7.873  0.3309 -0.0499 -0.0941
  645ERGO   ROH 8859  14.467  13.795   9.651  0.0209  0.1233 -0.1585
  645ERGO    R1 8860  14.431  13.733   9.378  0.0708  0.0049 -0.1369
  645ERGO    R2 8861  14.566  13.864   9.176  0.0882 -0.0709 -0.1645
  645ERGO    R3 8862  14.638  13.612   9.104  0.1224 -0.0938 -0.0574
  645ERGO    R4 8863  14.630  13.761   8.852  0.5085 -0.0858 -0.0837
  645ERGO    R5 8864  14.526  13.575   8.896  0.3926 -0.0633 -0.2194
  645ERGO    C1 8865  14.736  13.465   8.596  0.7853 -0.1159  0.0638
  645ERGO    C2 8866  14.917  13.407   8.173 -0.0623  0.0550 -0.4502
  646ERGO   ROH 8867  17.872  15.364   9.545  0.0186 -0.1260  0.0532
  646ERGO    R1 8868  17.991  15.274   9.305 -0.0183 -0.0416  0.0032
  646ERGO    R2 8869  17.906  15.048   9.172 -0.0273 -0.0045 -0.0538
  646ERGO    R3 8870  17.884  15.218   8.961 -0.0753  0.0613  0.0040
  646ERGO    R4 8871  17.867  14.951   8.842  0.0360  0.0962 -0.0915
  646ERGO    R5 8872  18.004  15.110   8.784 -0.0197  0.1690 -0.0251
  646ERGO    C1 8873  17.823  15.056   8.453  0.0276  0.2167 -0.0592
  646ERGO    C2 8874  17.526  14.873   8.169  0.0967 -0.0950 -0.1682
  647ERGO   ROH 8875   7.752  12.793   9.119 -0.2038  0.1932 -0.2541
  647ERGO    R1 8876   7.923  12.744   8.900 -0.2128  0.3867 -0.3057
  647ERGO    R2 8877   7.986  12.488   8.814  0.2402  0.4470 -0.1697
  647ERGO    R3 8878   7.897  12.582   8.575 -0.0621  0.1251 -0.1913
  647ERGO    R4 8879   8.026  12.326   8.512  0.0152  0.1181 -0.0288
  647ERGO    R5 8880   8.068  12.519   8.419 -0.1851  0.0419 -0.2977
  647ERGO    C1 8881   7.965  12.318   8.111 -0.3997 -0.3755  0.0331
  647ERGO    C2 8882   8.187  12.277   7.795 -0.0196 -0.0157 -0.1625
  648ERGO   ROH 8883  17.064  10.439   9.958 -0.0457 -0.2806 -0.1127
  648ERGO    R1 8884  17.014  10.422   9.679 -0.2954 -0.3347 -0.0673
  648ERGO    R2 8885  16.759  10.421   9.573 -0.3892  0.0694  0.1350
  648ERGO    R3 8886  16.854  10.628   9.426 -0.1263 -0.1706 -0.0426
  648ERGO    R4 8887  16.642  10.513   9.262 -0.3839  0.0485  0.1271
  648ERGO    R5 8888  16.847  10.550   9.200 -0.3475 -0.3106  0.0099
  648ERGO    C1 8889  16.663  10.762   8.942 -0.1341 -0.1890 -0.0444
  648ERGO    C2 8890  16.506  10.893   8.649  0.0352 -0.1839 -0.2136
  649ERGO   ROH 8891  13.811   8.052   9.811  0.0889  0.0524  0.1449
  649ERGO    R1 8892  13.673   8.162   9.590 -0.0512 -0.1203  0.1433
  649ERGO    R2 8893  13.799   8.314   9.396 -0.2515  0.1104  0.1841
  649ERGO    R3 8894  13.688   8.132   9.228  0.0503 -0.0399  0.1416
  649ERGO    R4 8895  13.708   8.378   9.069 -0.4016  0.0441  0.2123
  649ERGO    R5 8896  13.529   8.258   9.101 -0.1891 -0.2841  0.1950
  649ERGO    C1 8897  13.551   8.245   8.720 -0.2057 -0.1355  0.1888
  649ERGO    C2 8898  13.726   8.159   8.385 -0.1350 -0.0215  0.2601
  650ERGO   ROH 8899  14.390  16.047   9.615  0.0113 -0.2524  0.2496
  650ERGO    R1 8900  14.465  16.042   9.342 -0.1497 -0.1523  0.2025
  650ERGO    R2 8901  14.624  15.843   9.236 -0.1045 -0.0396  0.0661
  650ERGO    R3 8902  14.418  15.817   9.060 -0.1947 -0.1166  0.1799
  650ERGO    R4 8903  14.657  15.739   8.908 -0.2381 -0.0034  0.0402
  650ERGO    R5 8904  14.510  15.889   8.851 -0.3392 -0.0601  0.1321
  650ERGO    C1 8905  14.482  15.654   8.552 -0.4005 -0.0546  0.1320
  650ERGO    C2 8906  14.485  15.728   8.235  0.1218  0.0756 -0.0743
  651ERGO   ROH 8907   2.809  12.627   9.749 -0.2402  0.2131  0.0734
  651ERGO    R1 8908   2.701  12.705   9.499 -0.1699  0.1514  0.0243
  651ERGO    R2 8909   2.857  12.734   9.273 -0.1067  0.1031  0.0652
  651ERGO    R3 8910   2.677  12.561   9.165 -0.0701  0.0744  0.0487
  651ERGO    R4 8911   2.785  12.709   8.936 -0.2442  0.2672  0.0808
  651ERGO    R5 8912   2.574  12.685   8.988 -0.2129  0.1317  0.1658
  651ERGO    C1 8913   2.574  12.532   8.638 -0.2899  0.3358  0.0745
  651ERGO    C2 8914   2.467  12.245   8.382  0.1753  0.0774  0.3012
  652ERGO   ROH 8915   5.907  14.349   9.068 -0.0746  0.2260 -0.0050
  652ERGO    R1 8916   5.963  14.452   8.810  0.1004  0.1508  0.0011
  652ERGO    R2 8917   6.213  14.431   8.692  0.1220 -0.0973  0.0749
  652ERGO    R3 8918   6.072  14.316   8.490  0.0687  0.0152  0.0485
  652ERGO    R4 8919   6.334  14.377   8.373  0.0672 -0.0289  0.0426
  652ERGO    R5 8920   6.140  14.437   8.294  0.0825  0.0560  0.0830
  652ERGO    C1 8921   6.273  14.238   7.998 -0.0149  0.1165 -0.0008
  652ERGO    C2 8922   6.492  14.153   7.817  0.3219  0.0127  0.0793
  653ERGO   ROH 8923   0.458   9.231   9.891  0.0355 -0.2922 -0.2952
  653ERGO    R1 8924   0.384   9.226   9.617  0.0781 -0.0085 -0.3138
  653ERGO    R2 8925   0.223   9.420   9.503  0.0877  0.1027 -0.1336
  653ERGO    R3 8926   0.430   9.442   9.328  0.1108  0.3001 -0.0857
  653ERGO    R4 8927   0.194   9.526   9.175  0.0496  0.0378 -0.1520
  653ERGO    R5 8928   0.338   9.372   9.118  0.2289  0.1773 -0.1016
  653ERGO    C1 8929   0.372   9.608   8.820  0.0492  0.1853 -0.1178
  653ERGO    C2 8930   0.459   9.655   8.493  0.0881  0.4523 -0.4229
  654ERGO   ROH 8931  17.994  18.258   9.651 -0.1590 -0.1664 -0.2374
  654ERGO    R1 8932  18.143  18.315   9.417 -0.1701 -0.1780 -0.2464
  654ERGO    R2 8933  18.395  18.212   9.372 -0.1009 -0.0335 -0.1691
  654ERGO    R3 8934  18.284  18.124   9.140 -0.0143 -0.2136 -0.1452
  654ERGO    R4 8935  18.566  18.046   9.122  0.1113  0.1971 -0.1818
  654ERGO    R5 8936  18.453  18.162   8.975 -0.0875  0.0278 -0.1743
  654ERGO    C1 8937  18.561  17.867   8.758  0.3158  0.1625 -0.1669
  654ERGO    C2 8938  18.876  17.680   8.708 -0.0419  0.0640  0.4185
  655ERGO   ROH 8939   4.691  16.760   9.495 -0.1496  0.2477  0.2146
  655ERGO    R1 8940   4.697  16.967   9.302 -0.0626  0.1469  0.1106
  655ERGO    R2 8941   4.715  16.916   9.031 -0.0896  0.0029  0.1437
  655ERGO    R3 8942   4.492  17.072   9.020 -0.0195  0.1010  0.0582
  655ERGO    R4 8943   4.575  17.038   8.740 -0.0273 -0.1150  0.0629
  655ERGO    R5 8944   4.538  17.227   8.843  0.0612 -0.0257 -0.0441
  655ERGO    C1 8945   4.284  17.254   8.559  0.0748 -0.0916 -0.0643
  655ERGO    C2 8946   4.281  17.428   8.278  0.0496  0.0715 -0.0750
  656ERGO   ROH 8947  13.710  10.054   9.722  0.0650 -0.1480 -0.0166
  656ERGO    R1 8948  13.767  10.181   9.475  0.0654 -0.0278  0.0452
  656ERGO    R2 8949  13.845  10.040   9.251  0.0604  0.0828 -0.0208
  656ERGO    R3 8950  13.635  10.169   9.136  0.0647  0.1436  0.0375
  656ERGO    R4 8951  13.768  10.032   8.914 -0.1474 -0.0682  0.0276
  656ERGO    R5 8952  13.720  10.244   8.925 -0.0145 -0.0269 -0.0609
  656ERGO    C1 8953  13.526  10.149   8.610 -0.2643 -0.0990  0.1104
  656ERGO    C2 8954  13.253  10.260   8.455  0.0131 -0.0339 -0.0936
  657ERGO   ROH 8955   8.284  16.881   9.279 -0.0929 -0.0469 -0.0298
  657ERGO    R1 8956   8.417  16.763   9.058 -0.0319 -0.0630  0.0154
  657ERGO    R2 8957   8.295  16.579   8.892 -0.0207  0.0060 -0.0682
  657ERGO    R3 8958   8.371  16.752   8.697  0.1344  0.0053 -0.0092
  657ERGO    R4 8959   8.291  16.511   8.553 -0.0202  0.0951 -0.0862
  657ERGO    R5 8960   8.481  16.615   8.535  0.0616 -0.0342 -0.0283
  657ERGO    C1 8961   8.360  16.634   8.173  0.1257  0.1463 -0.0414
  657ERGO    C2 8962   8.442  16.505   7.885 -0.1016 -0.1472  0.3182
  658ERGO   ROH 8963  12.427   2.352   9.459  0.1262  0.2075 -0.1841
  658ERGO    R1 8964  12.349   2.378   9.188  0.1291  0.1459 -0.1916
  658ERGO    R2 8965  12.509   2.498   8.998  0.0896  0.1962 -0.1975
  658ERGO    R3 8966  12.471   2.264   8.866  0.1968  0.1645 -0.1717
  658ERGO    R4 8967  12.451   2.470   8.658 -0.1382  0.1471 -0.1551
  658ERGO    R5 8968  12.304   2.314   8.702  0.0305  0.0185 -0.0483
  658ERGO    C1 8969  12.381   2.234   8.337 -0.1701  0.0887 -0.1062
  658ERGO    C2 8970  12.433   2.036   8.073 -0.3748  0.2620  0.2130
  659ERGO   ROH 8971   2.252   2.951  10.157  0.0446  0.0889  0.1277
  659ERGO    R1 8972   2.139   2.862   9.914 -0.1088  0.1894  0.1608
  659ERGO    R2 8973   2.045   3.036   9.721  0.0173  0.2759  0.1766
  659ERGO    R3 8974   2.213   2.897   9.559 -0.1628  0.0951  0.1399
  659ERGO    R4 8975   2.029   3.031   9.375 -0.0442  0.3143  0.1786
  659ERGO    R5 8976   2.074   2.818   9.381 -0.2814  0.2610  0.1572
  659ERGO    C1 8977   2.178   2.898   9.023 -0.2490  0.1669  0.1452
  659ERGO    C2 8978   2.475   3.005   8.808  0.0708 -0.1702 -0.0879
  660ERGO   ROH 8979   5.851   6.101   9.975 -0.0041  0.1021 -0.0562
  660ERGO    R1 8980   5.736   6.074   9.718 -0.1552  0.2685 -0.0099
  660ERGO    R2 8981   5.628   6.287   9.580  0.1086  0.4386  0.0268
  660ERGO    R3 8982   5.799   6.206   9.385 -0.0859  0.1671 -0.0355
  660ERGO    R4 8983   5.606   6.379   9.247  0.0751  0.3707  0.0110
  660ERGO    R5 8984   5.659   6.175   9.192 -0.2116  0.2904  0.0398
  660ERGO    C1 8985   5.754   6.356   8.870 -0.1270  0.0763 -0.0568
  660ERGO    C2 8986   5.848   6.422   8.612  0.1277 -0.1788 -0.1880
  661ERGO   ROH 8987  14.644   9.454  10.085 -0.0060 -0.1384 -0.0241
  661ERGO    R1 8988  14.640   9.390   9.809 -0.2564 -0.0246 -0.0491
  661ERGO    R2 8989  14.436   9.469   9.641 -0.1483  0.5064  0.0625
  661ERGO    R3 8990  14.640   9.574   9.495  0.0389  0.1059  0.0208
  661ERGO    R4 8991  14.447   9.482   9.295 -0.2092  0.4722  0.0585
  661ERGO    R5 8992  14.658   9.430   9.305 -0.2916  0.0507  0.0167
  661ERGO    C1 8993  14.645   9.587   8.958 -0.0688  0.0761  0.0170
  661ERGO    C2 8994  14.681   9.490   8.680  0.1100  0.0218  0.0028
  662ERGO   ROH 8995   6.422   9.521   9.628  0.2627 -0.1904  0.0506
  662ERGO    R1 8996   6.283   9.494   9.383  0.1769 -0.2994  0.1110
  662ERGO    R2 8997   6.280   9.693   9.191 -0.1991 -0.2331  0.1828
  662ERGO    R3 8998   6.368   9.493   9.029  0.0029 -0.0527  0.0653
  662ERGO    R4 8999   6.218   9.673   8.851 -0.2088 -0.1105  0.1764
  662ERGO    R5 9000   6.188   9.458   8.875  0.0232 -0.1609  0.0626
  662ERGO    C1 9001   6.265   9.474   8.501 -0.0248  0.1303  0.0624
  662ERGO    C2 9002   6.333   9.514   8.106 -0.2170  0.0181 -0.1019
  663ERGO   ROH 9003  10.108  18.344   9.418 -0.0819  0.0020 -0.2021
  663ERGO    R1 9004  10.125  18.276   9.144  0.0602 -0.0414 -0.1847
  663ERGO    R2 9005  10.295  18.080   9.051 -0.0249 -0.1936 -0.0445
  663ERGO    R3 9006  10.067  17.980   8.941 -0.0324 -0.0188 -0.1885
  663ERGO    R4 9007  10.282  17.886   8.764 -0.0139 -0.0887 -0.1148
  663ERGO    R5 9008  10.103  17.996   8.704  0.0850  0.0371 -0.1628
  663ERGO    C1 9009  10.061  17.680   8.495 -0.0147  0.1365 -0.2911
  663ERGO    C2 9010  10.097  17.567   8.135  0.2033  0.2544 -0.0491
  664ERGO   ROH 9011   7.867   3.701   9.294  0.0186 -0.0043  0.0192
  664ERGO    R1 9012   7.826   3.758   9.020 -0.0379  0.1425  0.0544
  664ERGO    R2 9013   7.860   3.569   8.822  0.1285  0.2919 -0.0848
  664ERGO    R3 9014   7.606   3.641   8.755  0.0594  0.1140 -0.0081
  664ERGO    R4 9015   7.711   3.509   8.516  0.0412  0.1739 -0.0177
  664ERGO    R5 9016   7.622   3.707   8.525 -0.0822  0.1000 -0.0098
  664ERGO    C1 9017   7.387   3.541   8.274 -0.0745 -0.0617  0.0934
  664ERGO    C2 9018   7.417   3.501   7.805 -0.0676  0.2306  0.2564
  665ERGO   ROH 9019  10.033   4.576  10.001  0.1053  0.0619  0.1447
  665ERGO    R1 9020  10.256   4.527   9.834 -0.0398  0.1744 -0.0848
  665ERGO    R2 9021  10.386   4.284   9.825  0.2146  0.3071 -0.0429
  665ERGO    R3 9022  10.336   4.303   9.558 -0.1270  0.0441 -0.0061
  665ERGO    R4 9023  10.419   4.024   9.599  0.4292  0.2070  0.1000
  665ERGO    R5 9024  10.505   4.166   9.457  0.0160  0.2778 -0.0984
  665ERGO    C1 9025  10.392   3.891   9.218  0.2334 -0.0982  0.2179
  665ERGO    C2 9026  10.299   3.741   8.934 -0.2798  0.1366  0.1683
  666ERGO   ROH 9027  15.827   2.534   9.487 -0.0263  0.2318  0.0847
  666ERGO    R1 9028  16.003   2.657   9.302 -0.0059  0.0955  0.0127
  666ERGO    R2 9029  16.051   2.553   9.050 -0.1186  0.0075  0.0295
  666ERGO    R3 9030  15.978   2.802   8.970 -0.0075  0.0265 -0.0184
  666ERGO    R4 9031  16.232   2.753   8.833 -0.1714 -0.2389 -0.2483
  666ERGO    R5 9032  16.183   2.924   8.958  0.0817 -0.1360 -0.2791
  666ERGO    C1 9033  16.268   3.102   8.631 -0.0979 -0.3646 -0.4550
  666ERGO    C2 9034  16.286   3.149   8.178 -0.2204  0.2372 -0.2918
  667ERGO   ROH 9035   9.544   7.710   9.956 -0.3036  0.1068 -0.0365
  667ERGO    R1 9036   9.382   7.783   9.735 -0.1515  0.0811 -0.1584
  667ERGO    R2 9037   9.486   7.896   9.505  0.0108  0.0346 -0.1093
  667ERGO    R3 9038   9.356   7.690   9.384  0.0769  0.0234 -0.1619
  667ERGO    R4 9039   9.522   7.807   9.173  0.1897  0.0064 -0.0834
  667ERGO    R5 9040   9.307   7.772   9.164  0.1940  0.0042 -0.1956
  667ERGO    C1 9041   9.421   7.563   8.866  0.3558 -0.0204 -0.1178
  667ERGO    C2 9042   9.526   7.386   8.522 -0.1955  0.1043  0.0382
  668ERGO   ROH 9043  13.000  15.734   9.021  0.0770 -0.0929 -0.0907
  668ERGO    R1 9044  12.949  15.697   8.745 -0.0650 -0.1139 -0.0638
  668ERGO    R2 9045  12.769  15.853   8.605 -0.0586 -0.0441 -0.0149
  668ERGO    R3 9046  12.982  15.893   8.441 -0.1036 -0.1754 -0.1043
  668ERGO    R4 9047  12.753  15.999   8.292 -0.0398  0.2510  0.1199
  668ERGO    R5 9048  12.897  15.852   8.221 -0.2765  0.1314 -0.0921
  668ERGO    C1 9049  12.945  16.122   7.956 -0.0710  0.2998  0.1145
  668ERGO    C2 9050  13.014  16.211   7.602  0.0079 -0.1805 -0.0693
  669ERGO   ROH 9051  12.665  18.331   9.499 -0.0653 -0.0580 -0.0476
  669ERGO    R1 9052  12.499  18.282   9.275 -0.1297 -0.0477 -0.0022
  669ERGO    R2 9053  12.458  18.469   9.076 -0.0654 -0.0931 -0.0592
  669ERGO    R3 9054  12.541  18.267   8.914 -0.1981 -0.1924 -0.0044
  669ERGO    R4 9055  12.470  18.485   8.731  0.1669 -0.1146 -0.0548
  669ERGO    R5 9056  12.395  18.280   8.724 -0.0662 -0.0291 -0.0951
  669ERGO    C1 9057  12.553  18.304   8.378  0.1777 -0.2205 -0.0007
  669ERGO    C2 9058  12.599  18.334   8.095 -0.3204 -0.1393 -0.2679
  670ERGO   ROH 9059   3.235   1.798   9.930 -0.0317  0.0104 -0.3183
  670ERGO    R1 9060   3.195   1.761   9.653 -0.0355 -0.0572 -0.3081
  670ERGO    R2 9061   3.242   1.961   9.468  0.0070 -0.1199 -0.3588
  670ERGO    R3 9062   3.399   1.772   9.352 -0.0311 -0.1824 -0.3117
  670ERGO    R4 9063   3.309   1.941   9.129  0.1767 -0.0793 -0.3294
  670ERGO    R5 9064   3.291   1.724   9.144  0.0499 -0.0777 -0.3835
  670ERGO    C1 9065   3.496   1.752   8.823  0.2398 -0.1144 -0.2682
  670ERGO    C2 9066   3.567   1.773   8.460  0.2079  0.1700  0.0441
  671ERGO   ROH 9067  12.319   8.491   9.881 -0.0055 -0.2109 -0.0545
  671ERGO    R1 9068  12.431   8.454   9.624 -0.0329 -0.2171 -0.0694
  671ERGO    R2 9069  12.425   8.212   9.493  0.0520 -0.2632 -0.0258
  671ERGO    R3 9070  12.311   8.358   9.294 -0.0586 -0.3440 -0.0182
  671ERGO    R4 9071  12.422   8.121   9.159  0.0195 -0.2724 -0.0204
  671ERGO    R5 9072  12.460   8.330   9.108 -0.1003 -0.2751 -0.0451
  671ERGO    C1 9073  12.313   8.206   8.778 -0.1033 -0.3539 -0.0100
  671ERGO    C2 9074  12.364   8.070   8.540  0.2212 -0.2066  0.3149
  672ERGO   ROH 9075   1.005  11.195   9.534 -0.1568 -0.3502  0.0209
  672ERGO    R1 9076   0.847  11.374   9.382  0.1436 -0.1790 -0.0957
  672ERGO    R2 9077   0.924  11.467   9.134  0.2449 -0.5803 -0.2138
  672ERGO    R3 9078   0.681  11.372   9.058  0.0153 -0.1687 -0.0332
  672ERGO    R4 9079   0.773  11.536   8.831  0.2748 -0.5404 -0.2211
  672ERGO    R5 9080   0.582  11.554   8.936  0.3361 -0.0629 -0.1570
  672ERGO    C1 9081   0.457  11.486   8.583  0.0767 -0.1308 -0.0556
  672ERGO    C2 9082   0.542  11.417   8.289 -0.2284 -0.3228  0.1486
  673ERGO   ROH 9083   8.377  15.301   9.390  0.4072  0.2389 -0.0901
  673ERGO    R1 9084   8.484  15.157   9.171  0.1917  0.0468 -0.0718
  673ERGO    R2 9085   8.330  15.076   8.956  0.0656  0.2394 -0.0501
  673ERGO    R3 9086   8.519  15.209   8.812  0.2586 -0.0596 -0.0824
  673ERGO    R4 9087   8.370  15.052   8.614 -0.2308  0.3840 -0.0997
  673ERGO    R5 9088   8.586  15.052   8.644 -0.1939 -0.1020 -0.2438
  673ERGO    C1 9089   8.572  15.162   8.279 -0.2221  0.1875 -0.1587
  673ERGO    C2 9090   8.776  15.304   7.963  0.1934  0.0752 -0.4451
  674ERGO   ROH 9091  16.056   8.097   9.813 -0.2501 -0.1681 -0.1145
  674ERGO    R1 9092  16.240   8.051   9.604 -0.1233 -0.1690 -0.0033
  674ERGO    R2 9093  16.214   7.843   9.424 -0.0914 -0.0879 -0.0997
  674ERGO    R3 9094  16.230   8.042   9.240  0.1272 -0.0258 -0.0170
  674ERGO    R4 9095  16.287   7.797   9.089 -0.2401 -0.0482 -0.1386
  674ERGO    R5 9096  16.411   7.976   9.097  0.0065 -0.2115 -0.0916
  674ERGO    C1 9097  16.345   7.958   8.722 -0.1218  0.0331 -0.0838
  674ERGO    C2 9098  16.289   7.804   8.441  0.1271  0.0851 -0.3744
  675PSPI    C1 9099   6.308   6.979   5.563  0.0099 -0.2591 -0.1539
  675PSPI    C2 9100   5.982   7.167   5.428 -0.0396 -0.0734  0.2124
  675PSPI    C3 9101   6.244   7.011   5.169 -0.1147  0.2968 -0.0972
  675PSPI   PO4 9102   6.173   6.805   5.696 -0.0799 -0.3361  0.3970
  675PSPI   GL1 9103   6.117   6.722   6.040 -0.3132 -0.0421  0.1079
  675PSPI   GL2 9104   5.869   6.459   5.904 -0.0698 -0.1407 -0.2930
  675PSPI   C1A 9105   6.060   6.570   6.465  0.2836 -0.0842  0.2235
  675PSPI   C2A 9106   6.175   6.248   6.767 -0.1462 -0.0880  0.1652
  675PSPI   C3A 9107   6.385   6.199   7.092 -0.1219  0.2015 -0.1095
  675PSPI   C4A 9108   6.345   5.917   7.437 -0.1964 -0.3478  0.0123
  675PSPI   C1B 9109   5.612   6.263   6.318 -0.2710  0.1738 -0.1690
  675PSPI   C2B 9110   5.671   6.058   6.719 -0.2459 -0.0297 -0.3453
  675PSPI   C3B 9111   5.947   5.900   7.097 -0.1024 -0.0309  0.1084
  675PSPI   C4B 9112   5.898   5.579   7.484 -0.0428  0.0826 -0.2033
  676PSPI    C1 9113  13.829  13.088   5.587 -0.1126  0.3130 -0.1880
  676PSPI    C2 9114  14.221  13.126   5.517 -0.0562  0.2399  0.0761
  676PSPI    C3 9115  13.988  12.935   5.253  0.1912 -0.2439  0.1961
  676PSPI   PO4 9116  13.817  13.278   5.848 -0.4018 -0.2616 -0.0364
  676PSPI   GL1 9117  13.922  13.213   6.296  0.2026  0.1630 -0.0548
  676PSPI   GL2 9118  13.552  13.142   6.247  0.4429 -0.4704  0.1053
  676PSPI   C1A 9119  13.741  13.362   6.629 -0.1683 -0.0931  0.1664
  676PSPI   C2A 9120  13.574  13.328   6.920 -0.3122  0.1787 -0.1433
  676PSPI   C3A 9121  13.253  13.212   7.114 -0.6913  0.2077 -0.1984
  676PSPI   C4A 9122  12.963  12.993   7.360  0.1325  0.0644 -0.3080
  676PSPI   C1B 9123  13.289  13.129   6.605  0.0276  0.1043 -0.1081
  676PSPI   C2B 9124  13.142  12.792   6.869  0.1750  0.0301 -0.3112
  676PSPI   C3B 9125  13.026  12.517   7.133 -0.4204 -0.3547 -0.1571
  676PSPI   C4B 9126  12.850  12.173   7.324 -0.0275  0.0715 -0.0963
  677PSPI    C1 9127  16.983   3.284   5.989  0.0489 -0.0939  0.0429
  677PSPI    C2 9128  17.351   3.127   5.971  0.0249 -0.1402 -0.0514
  677PSPI    C3 9129  17.054   2.964   5.759  0.0177  0.0837 -0.2168
  677PSPI   PO4 9130  16.859   3.305   6.235 -0.5007 -0.1984 -0.0514
  677PSPI   GL1 9131  16.863   3.320   6.674 -0.3288  0.0222  0.0567
  677PSPI   GL2 9132  16.879   3.715   6.602  0.2389 -0.2455 -0.0536
  677PSPI   C1A 9133  16.982   3.286   6.984 -0.0576  0.2271  0.1456
  677PSPI   C2A 9134  17.197   3.428   7.358  0.5656  0.3031  0.0286
  677PSPI   C3A 9135  17.156   3.519   7.832  0.1142 -0.0914  0.1238
  677PSPI   C4A 9136  17.163   3.454   8.236 -0.0011  0.1661 -0.2897
  677PSPI   C1B 9137  16.819   3.791   7.048  0.3030 -0.2017 -0.2487
  677PSPI   C2B 9138  16.768   3.786   7.533 -0.1480  0.1224 -0.2924
  677PSPI   C3B 9139  16.664   3.859   7.882  0.0220  0.2190  0.1041
  677PSPI   C4B 9140  16.645   3.598   8.263  0.0527 -0.2128  0.0460
  678PSPI    C1 9141   8.831   7.568   5.795  0.1345 -0.1454  0.2978
  678PSPI    C2 9142   8.884   7.291   5.511 -0.1034  0.0815  0.0254
  678PSPI    C3 9143   9.194   7.509   5.638  0.0809 -0.2876  0.2252
  678PSPI   PO4 9144   8.684   7.449   5.949 -0.1871 -0.0561  0.2568
  678PSPI   GL1 9145   8.518   7.396   6.296 -0.3964  0.1016  0.2575
  678PSPI   GL2 9146   8.632   7.038   6.343 -0.0496 -0.0424  0.0056
  678PSPI   C1A 9147   8.772   7.488   6.622 -0.1872 -0.1981 -0.0356
  678PSPI   C2A 9148   8.738   7.538   6.997  0.1134 -0.1768 -0.1464
  678PSPI   C3A 9149   8.678   7.530   7.412 -0.0956  0.0368  0.1966
  678PSPI   C4A 9150   8.947   7.659   7.850 -0.1700 -0.0918  0.2258
  678PSPI   C1B 9151   8.560   7.027   6.718  0.1615  0.0231 -0.0795
  678PSPI   C2B 9152   8.629   7.049   7.096  0.2750 -0.0159 -0.1334
  678PSPI   C3B 9153   8.471   6.990   7.533  0.1261  0.2856  0.0297
  678PSPI   C4B 9154   8.556   7.264   7.819 -0.0169  0.1800 -0.1415
  679PSPI    C1 9155  16.079  16.231   5.474 -0.0720 -0.1790  0.1159
  679PSPI    C2 9156  16.451  16.090   5.517 -0.0469 -0.1133  0.1161
  679PSPI    C3 9157  16.153  15.843   5.415  0.0008 -0.1621  0.0940
  679PSPI   PO4 9158  15.975  16.361   5.689 -0.3190  0.3255 -0.1972
  679PSPI   GL1 9159  16.166  16.569   5.996  0.0681  0.1611 -0.2193
  679PSPI   GL2 9160  15.996  16.813   6.213 -0.5661  0.0800  0.0840
  679PSPI   C1A 9161  16.176  16.363   6.436 -0.0181  0.1744 -0.0825
  679PSPI   C2A 9162  16.424  16.245   6.734 -0.0684 -0.0005  0.0292
  679PSPI   C3A 9163  16.771  16.246   7.024  0.4304 -0.1396  0.0707
  679PSPI   C4A 9164  16.969  16.603   7.152  0.1417  0.1246  0.1289
  679PSPI   C1B 9165  15.841  16.671   6.629 -0.0188  0.1760  0.0146
  679PSPI   C2B 9166  15.961  16.473   6.962 -0.0596 -0.4440 -0.1959
  679PSPI   C3B 9167  16.126  16.109   7.133  0.0856  0.2629 -0.0544
  679PSPI   C4B 9168  16.299  15.810   7.058  0.0583 -0.2337  0.0901
  680PSPI    C1 9169  11.213   2.590   5.373  0.0506  0.1124 -0.0719
  680PSPI    C2 9170  11.490   2.869   5.301  0.0524  0.0564 -0.2898
  680PSPI    C3 9171  11.252   2.743   5.006 -0.2427  0.1416 -0.0931
  680PSPI   PO4 9172  11.113   2.775   5.606 -0.2030  0.2907 -0.1918
  680PSPI   GL1 9173  10.810   2.556   5.837 -0.0709 -0.1505 -0.4682
  680PSPI   GL2 9174  10.690   2.591   6.143 -0.4074 -0.0542  0.3272
  680PSPI   C1A 9175  11.018   2.205   6.112 -0.0206  0.3108  0.0363
  680PSPI   C2A 9176  10.967   2.128   6.558  0.1078 -0.0853 -0.2565
  680PSPI   C3A 9177  11.048   1.990   6.936  0.3462 -0.2260 -0.3382
  680PSPI   C4A 9178  10.987   1.768   7.286 -0.2614 -0.0616  0.1823
  680PSPI   C1B 9179  10.567   2.527   6.565 -0.0940 -0.0322  0.2239
  680PSPI   C2B 9180  10.706   2.421   7.012 -0.1532  0.1720 -0.1816
  680PSPI   C3B 9181  10.740   2.204   7.491  0.3355  0.2839 -0.2626
  680PSPI   C4B 9182  10.753   2.041   7.947  0.0361 -0.0874  0.2548
  681PSPI    C1 9183  16.278  17.317   5.797  0.0479 -0.1941 -0.1143
  681PSPI    C2 9184  16.665  17.303   5.896  0.0256 -0.2436 -0.0333
  681PSPI    C3 9185  16.537  17.571   5.628  0.1069 -0.1909 -0.0199
  681PSPI   PO4 9186  16.194  17.225   6.078  0.1668  0.0398  0.0054
  681PSPI   GL1 9187  16.084  17.490   6.515  0.1469  0.4679 -0.1750
  681PSPI   GL2 9188  15.987  17.150   6.559 -0.1660 -0.0160 -0.0800
  681PSPI   C1A 9189  16.260  17.435   6.924  0.0490  0.2002  0.0309
  681PSPI   C2A 9190  16.389  17.315   7.270  0.1277  0.0619  0.1734
  681PSPI   C3A 9191  16.515  17.456   7.723 -0.0253  0.0770 -0.0970
  681PSPI   C4A 9192  16.432  17.663   8.089 -0.1992  0.0869  0.0472
  681PSPI   C1B 9193  15.955  16.990   6.962 -0.3559 -0.0086  0.0062
  681PSPI   C2B 9194  16.099  16.898   7.307 -0.0578  0.0952  0.2729
  681PSPI   C3B 9195  16.587  16.946   7.586  0.2391 -0.0100  0.1422
  681PSPI   C4B 9196  16.801  16.994   7.965 -0.2574  0.1562  0.0352
  682PSPI    C1 9197   5.900  17.250   4.997 -0.0838 -0.1381 -0.0170
  682PSPI    C2 9198   5.924  17.143   4.612 -0.2558  0.0617 -0.0854
  682PSPI    C3 9199   5.811  17.514   4.710 -0.0077  0.0774  0.1549
  682PSPI   PO4 9200   5.957  17.081   5.232  0.2924 -0.3255  0.0613
  682PSPI   GL1 9201   6.094  17.098   5.636  0.1338 -0.0493  0.0527
  682PSPI   GL2 9202   6.093  17.359   5.885 -0.2877  0.1440  0.3755
  682PSPI   C1A 9203   6.094  16.924   6.047 -0.0573  0.6211 -0.3076
  682PSPI   C2A 9204   6.109  16.941   6.516 -0.3525 -0.0470 -0.2097
  682PSPI   C3A 9205   6.317  16.850   6.930  0.1133 -0.0904  0.1153
  682PSPI   C4A 9206   6.416  16.949   7.334 -0.0777  0.1091 -0.2053
  682PSPI   C1B 9207   5.879  17.550   6.206 -0.1407  0.0501 -0.4243
  682PSPI   C2B 9208   5.684  17.615   6.572 -0.0658 -0.1450 -0.0273
  682PSPI   C3B 9209   5.546  17.599   6.993  0.0051  0.0987 -0.2378
  682PSPI   C4B 9210   5.439  17.868   7.101 -0.1517  0.1277 -0.1352
  683PSPI    C1 9211  14.243   6.209   6.057 -0.0183 -0.1653  0.2634
  683PSPI    C2 9212  14.614   6.103   5.950  0.0509  0.2882  0.0293
  683PSPI    C3 9213  14.300   5.977   5.736  0.1024  0.2537 -0.0260
  683PSPI   PO4 9214  14.295   6.156   6.356  0.1473  0.1452 -0.0157
  683PSPI   GL1 9215  14.454   6.567   6.604  0.2282  0.4123 -0.1052
  683PSPI   GL2 9216  14.148   6.591   6.637  0.2151  0.2085 -0.0417
  683PSPI   C1A 9217  14.460   6.442   6.983  0.2126  0.0512 -0.2661
  683PSPI   C2A 9218  14.598   6.398   7.450 -0.2808 -0.1749  0.0745
  683PSPI   C3A 9219  14.742   6.219   7.715  0.5014 -0.2079 -0.1006
  683PSPI   C4A 9220  14.762   6.269   8.085 -0.0814  0.2101 -0.1816
  683PSPI   C1B 9221  13.978   6.698   6.935  0.1276 -0.1202  0.1422
  683PSPI   C2B 9222  13.780   6.893   7.355 -0.0022  0.1280  0.0488
  683PSPI   C3B 9223  13.915   6.882   7.806  0.0827 -0.1237 -0.1257
  683PSPI   C4B 9224  13.976   7.139   8.211 -0.1204  0.0429 -0.0049
  684PSPI    C1 9225  14.805   4.479   5.804  0.0658 -0.0943  0.0247
  684PSPI    C2 9226  14.484   4.505   5.566  0.1741  0.0199 -0.1105
  684PSPI    C3 9227  14.832   4.373   5.419  0.1962 -0.0798  0.0297
  684PSPI   PO4 9228  14.776   4.733   5.963 -0.3085  0.2362  0.0334
  684PSPI   GL1 9229  14.818   4.891   6.405 -0.1881 -0.1374  0.0494
  684PSPI   GL2 9230  15.148   4.935   6.508  0.0868 -0.0592 -0.0210
  684PSPI   C1A 9231  14.553   4.912   6.778  0.2733  0.0247 -0.1929
  684PSPI   C2A 9232  14.505   4.873   7.208  0.0293  0.1054 -0.1620
  684PSPI   C3A 9233  14.783   4.840   7.577 -0.3259  0.0842  0.3878
  684PSPI   C4A 9234  14.755   4.763   8.017 -0.0097  0.1527  0.0208
  684PSPI   C1B 9235  14.965   5.082   6.869 -0.0707  0.3078 -0.1298
  684PSPI   C2B 9236  15.017   5.004   7.165 -0.0338 -0.0716  0.3041
  684PSPI   C3B 9237  15.311   4.792   7.468 -0.1313 -0.3224  0.0664
  684PSPI   C4B 9238  15.779   4.810   7.585 -0.0866 -0.0549  0.4709
  685PSPI    C1 9239  15.977  13.813   6.006 -0.0813 -0.2692  0.0835
  685PSPI    C2 9240  15.727  13.918   5.712 -0.0903  0.0772  0.2104
  685PSPI    C3 9241  16.104  13.817   5.627 -0.0471  0.3308  0.0914
  685PSPI   PO4 9242  15.891  13.770   6.141 -0.1421 -0.2654  0.3096
  685PSPI   GL1 9243  15.589  13.886   6.395  0.4468  0.2120  0.0453
  685PSPI   GL2 9244  15.690  14.202   6.357 -0.2721 -0.0724 -0.1611
  685PSPI   C1A 9245  15.507  13.610   6.774  0.1950 -0.3797  0.0065
  685PSPI   C2A 9246  15.452  13.804   7.205  0.3164 -0.4148  0.0148
  685PSPI   C3A 9247  15.372  14.108   7.615  0.3865 -0.1221 -0.1579
  685PSPI   C4A 9248  15.179  14.372   7.837 -0.0234 -0.0993 -0.1489
  685PSPI   C1B 9249  15.644  14.166   6.799 -0.0457 -0.0694 -0.0830
  685PSPI   C2B 9250  15.656  14.250   7.204 -0.0609 -0.4136 -0.0841
  685PSPI   C3B 9251  15.472  14.605   7.457 -0.1030  0.0381 -0.0165
  685PSPI   C4B 9252  15.525  14.690   7.915 -0.0708  0.0904  0.1063
  686PSPI    C1 9253  11.275   7.063   5.646  0.0107 -0.0936 -0.1268
  686PSPI    C2 9254  11.469   7.315   5.404  0.0049 -0.0155 -0.0504
  686PSPI    C3 9255  11.238   7.028   5.249  0.1896 -0.1159 -0.1425
  686PSPI   PO4 9256  11.455   6.965   5.828  0.2625  0.2384  0.0819
  686PSPI   GL1 9257  11.387   6.840   6.290  0.2305 -0.0247 -0.2151
  686PSPI   GL2 9258  11.135   6.987   6.218 -0.1411  0.0830 -0.2329
  686PSPI   C1A 9259  11.573   6.870   6.702  0.0048  0.2726 -0.2420
  686PSPI   C2A 9260  11.694   6.908   7.216  0.2721 -0.0577 -0.1991
  686PSPI   C3A 9261  11.425   7.030   7.590 -0.2113 -0.3111 -0.0129
  686PSPI   C4A 9262  11.190   7.264   7.958  0.3087 -0.2327 -0.0883
  686PSPI   C1B 9263  11.081   6.926   6.717 -0.2660 -0.2029 -0.0220
  686PSPI   C2B 9264  11.130   6.920   7.178  0.1019 -0.4975  0.0636
  686PSPI   C3B 9265  10.871   6.970   7.632 -0.2952  0.0619 -0.1672
  686PSPI   C4B 9266  10.699   6.962   8.010  0.2147 -0.2084 -0.0771
  687PSPI    C1 9267   9.067   6.607   5.607 -0.0818  0.0979  0.0057
  687PSPI    C2 9268   8.806   6.828   5.398 -0.1115 -0.0377 -0.1024
  687PSPI    C3 9269   9.050   6.574   5.209 -0.1619 -0.1870  0.0310
  687PSPI   PO4 9270   8.977   6.412   5.754 -0.1730 -0.0594 -0.0580
  687PSPI   GL1 9271   9.062   6.277   6.232 -0.1288  0.2912  0.1341
  687PSPI   GL2 9272   8.892   6.566   6.225  0.2285  0.2032  0.0572
  687PSPI   C1A 9273   8.900   6.076   6.502 -0.1985  0.1200  0.1135
  687PSPI   C2A 9274   8.761   6.081   6.984 -0.0031 -0.2323  0.1460
  687PSPI   C3A 9275   8.793   6.066   7.352 -0.1653  0.0527  0.0896
  687PSPI   C4A 9276   8.656   5.896   7.792 -0.0859 -0.1793  0.0466
  687PSPI   C1B 9277   8.855   6.541   6.601 -0.0491  0.1923 -0.0457
  687PSPI   C2B 9278   8.946   6.578   7.002  0.2241  0.1434  0.2600
  687PSPI   C3B 9279   8.897   6.671   7.418 -0.5431  0.2627  0.3613
  687PSPI   C4B 9280   8.884   6.758   7.890  0.1391  0.1420 -0.0031
  688PSPI    C1 9281  11.468   8.439   5.836  0.0831 -0.0015 -0.2122
  688PSPI    C2 9282  11.557   8.519   5.454 -0.1040  0.0129 -0.2538
  688PSPI    C3 9283  11.240   8.291   5.542  0.0243 -0.1124 -0.1117
  688PSPI   PO4 9284  11.662   8.576   6.017 -0.2830  0.1003  0.0265
  688PSPI   GL1 9285  11.810   8.519   6.528  0.1814  0.2156  0.0087
  688PSPI   GL2 9286  11.618   8.843   6.498  0.0825 -0.0244 -0.0108
  688PSPI   C1A 9287  11.720   8.407   6.955 -0.0096  0.1542 -0.2297
  688PSPI   C2A 9288  11.473   8.355   7.329 -0.1050  0.0896 -0.1573
  688PSPI   C3A 9289  11.472   8.229   7.796 -0.0694  0.2331  0.1954
  688PSPI   C4A 9290  11.635   7.938   8.091  0.0039  0.1075  0.0364
  688PSPI   C1B 9291  11.569   8.836   6.932 -0.0196  0.0221  0.0031
  688PSPI   C2B 9292  11.530   8.830   7.391 -0.0696 -0.2624  0.0628
  688PSPI   C3B 9293  11.630   8.711   7.757 -0.0596  0.3185 -0.1360
  688PSPI   C4B 9294  11.690   8.616   8.193 -0.1318 -0.2340 -0.0765
  689PSPI    C1 9295  14.309   9.144   5.538  0.0143 -0.3322 -0.0267
  689PSPI    C2 9296  14.513   9.451   5.383 -0.1688 -0.1074  0.1694
  689PSPI    C3 9297  14.536   9.089   5.213 -0.2473  0.0969 -0.2903
  689PSPI   PO4 9298  14.365   9.221   5.852  0.1013 -0.1427 -0.0661
  689PSPI   GL1 9299  14.273   9.164   6.303 -0.0571  0.1430 -0.0663
  689PSPI   GL2 9300  14.297   9.494   6.335  0.0448  0.1505 -0.1133
  689PSPI   C1A 9301  14.227   9.225   6.742  0.0586  0.0507  0.3753
  689PSPI   C2A 9302  14.433   9.344   7.135 -0.1913  0.2328  0.2130
  689PSPI   C3A 9303  14.645   9.492   7.398 -0.1831  0.2517 -0.1776
  689PSPI   C4A 9304  14.969   9.420   7.775 -0.1243 -0.0087  0.1145
  689PSPI   C1B 9305  14.625   9.846   6.368  0.0476 -0.0328 -0.3700
  689PSPI   C2B 9306  14.888   9.953   6.729 -0.2017  0.1279  0.0677
  689PSPI   C3B 9307  15.004   9.736   7.051 -0.0423  0.2427  0.0958
  689PSPI   C4B 9308  15.116   9.828   7.423  0.1029 -0.3015  0.0197
  690PSPI    C1 9309   5.358   9.199   5.572  0.1037  0.0707 -0.0422
  690PSPI    C2 9310   5.480   9.417   5.260 -0.0840  0.1584 -0.0561
  690PSPI    C3 9311   5.620   9.046   5.312  0.2347  0.2784 -0.0343
  690PSPI   PO4 9312   5.401   9.352   5.791 -0.0992 -0.0384 -0.1343
  690PSPI   GL1 9313   5.459   9.256   6.208 -0.0233  0.0450  0.3050
  690PSPI   GL2 9314   5.644   8.953   6.275 -0.0051  0.3245 -0.0538
  690PSPI   C1A 9315   5.593   9.397   6.565 -0.1206  0.2376 -0.2296
  690PSPI   C2A 9316   5.726   9.419   6.976 -0.0531 -0.0884 -0.0548
  690PSPI   C3A 9317   5.892   9.471   7.381 -0.1471 -0.1081  0.2329
  690PSPI   C4A 9318   6.258   9.681   7.495 -0.0165  0.2166  0.1524
  690PSPI   C1B 9319   5.671   8.877   6.687  0.1595 -0.1798  0.1205
  690PSPI   C2B 9320   5.659   8.986   7.144 -0.1384  0.2230  0.1756
  690PSPI   C3B 9321   5.706   9.095   7.569  0.0317  0.1286 -0.2909
  690PSPI   C4B 9322   5.856   8.816   7.853  0.1610 -0.1407 -0.0912
  691PSPI    C1 9323   8.136  11.479   5.678  0.1854  0.1387 -0.0999
  691PSPI    C2 9324   7.873  11.471   5.376  0.0026  0.1738  0.0565
  691PSPI    C3 9325   7.894  11.163   5.631  0.0248  0.2263  0.1184
  691PSPI   PO4 9326   8.079  11.741   5.824 -0.3689 -0.2742 -0.2699
  691PSPI   GL1 9327   8.315  11.866   6.155 -0.1001  0.2863  0.0477
  691PSPI   GL2 9328   8.234  12.097   6.164 -0.2560 -0.0318  0.1515
  691PSPI   C1A 9329   8.353  11.700   6.621 -0.1690 -0.3157  0.1094
  691PSPI   C2A 9330   8.523  11.676   6.967  0.1563 -0.0794 -0.2875
  691PSPI   C3A 9331   8.840  11.946   7.191  0.1595  0.2698 -0.3215
  691PSPI   C4A 9332   8.698  12.112   7.591 -0.0455 -0.0644 -0.2888
  691PSPI   C1B 9333   8.426  12.189   6.526  0.1587  0.0140 -0.3424
  691PSPI   C2B 9334   8.499  12.392   6.914 -0.1841  0.0432  0.2392
  691PSPI   C3B 9335   8.809  12.496   7.277 -0.0525  0.2560 -0.2536
  691PSPI   C4B 9336   9.060  12.410   7.513 -0.5188 -0.0445 -0.0152
  692PSPI    C1 9337  16.257   7.253   6.239 -0.0843 -0.1976 -0.0095
  692PSPI    C2 9338  16.043   7.201   5.905 -0.0028  0.1118 -0.1133
  692PSPI    C3 9339  16.442   7.186   5.891  0.0043  0.2288 -0.0508
  692PSPI   PO4 9340  16.121   7.492   6.377 -0.0551  0.0613 -0.1117
  692PSPI   GL1 9341  15.972   7.531   6.783 -0.1326 -0.0042  0.0058
  692PSPI   GL2 9342  16.324   7.626   6.755 -0.0362 -0.0309 -0.1108
  692PSPI   C1A 9343  15.756   7.500   7.193 -0.2632 -0.3428 -0.0909
  692PSPI   C2A 9344  15.823   7.507   7.545  0.2318 -0.0025  0.3022
  692PSPI   C3A 9345  15.475   7.372   7.847 -0.1361  0.0840  0.0633
  692PSPI   C4A 9346  15.279   7.041   8.137  0.3877 -0.1604 -0.0754
  692PSPI   C1B 9347  16.247   7.678   7.260  0.2682 -0.3325  0.2770
  692PSPI   C2B 9348  16.487   7.669   7.600 -0.2385 -0.0609  0.2737
  692PSPI   C3B 9349  16.564   7.876   7.995  0.1433  0.1995 -0.2695
  692PSPI   C4B 9350  16.544   8.215   8.271 -0.3570 -0.4012 -0.1498
  693PSPI    C1 9351  17.161  15.158   5.624  0.0070 -0.0003  0.1440
  693PSPI    C2 9352  17.175  15.552   5.558  0.0182 -0.0547 -0.1973
  693PSPI    C3 9353  17.020  15.308   5.281  0.3534 -0.3271 -0.1510
  693PSPI   PO4 9354  17.113  15.133   5.905  0.1093  0.0487 -0.2203
  693PSPI   GL1 9355  17.028  15.466   6.137  0.1340 -0.0083  0.1090
  693PSPI   GL2 9356  17.131  15.852   6.128 -0.0173 -0.1141 -0.3105
  693PSPI   C1A 9357  17.171  15.238   6.568  0.1491  0.0374 -0.2280
  693PSPI   C2A 9358  17.405  14.825   6.741 -0.0303  0.0399  0.0774
  693PSPI   C3A 9359  17.802  14.691   6.913 -0.3414  0.0141  0.1229
  693PSPI   C4A 9360  18.215  14.656   6.893 -0.3861  0.2124 -0.1714
  693PSPI   C1B 9361  17.202  15.804   6.483 -0.0291 -0.3711  0.0450
  693PSPI   C2B 9362  17.154  15.629   6.873 -0.0347 -0.1912 -0.2089
  693PSPI   C3B 9363  17.486  15.403   6.921 -0.2842  0.3576 -0.1474
  693PSPI   C4B 9364  17.536  15.028   7.223  0.1580 -0.6426 -0.1196
  694PSPI    C1 9365  12.637  10.221   6.089 -0.0776  0.0708  0.1254
  694PSPI    C2 9366  12.385  10.324   5.797 -0.0222 -0.0459  0.0356
  694PSPI    C3 9367  12.612   9.997   5.758  0.1475  0.0615  0.1132
  694PSPI   PO4 9368  12.510  10.306   6.263  0.2388 -0.1632 -0.1367
  694PSPI   GL1 9369  12.217  10.462   6.508 -0.1513 -0.1017 -0.1154
  694PSPI   GL2 9370  11.993  10.198   6.583 -0.0300 -0.3056  0.2482
  694PSPI   C1A 9371  12.473  10.526   6.898 -0.0850 -0.2019 -0.1237
  694PSPI   C2A 9372  12.809  10.619   7.256  0.0607 -0.0344  0.0325
  694PSPI   C3A 9373  12.776  10.632   7.613  0.0877  0.0752 -0.0011
  694PSPI   C4A 9374  12.977  10.687   7.999 -0.1823 -0.1965 -0.0173
  694PSPI   C1B 9375  11.767  10.196   6.910 -0.2373 -0.2236 -0.0010
  694PSPI   C2B 9376  11.724  10.237   7.389  0.3562  0.1722 -0.1373
  694PSPI   C3B 9377  11.967  10.203   7.835  0.0423  0.2813  0.2253
  694PSPI   C4B 9378  11.909  10.500   8.143 -0.1748 -0.1172 -0.0282
  695POPI    C1 9379  18.396   2.777   5.896  0.0430 -0.0318 -0.2179
  695POPI    C2 9380  18.147   2.579   5.653  0.1628 -0.2049 -0.2016
  695POPI    C3 9381  18.538   2.494   5.651  0.2007 -0.0359 -0.1233
  695POPI   PO4 9382  18.188   2.839   6.175 -0.2921 -0.0243 -0.2377
  695POPI   GL1 9383  18.233   2.990   6.615 -0.0462 -0.1030  0.0011
  695POPI   GL2 9384  18.150   3.366   6.640  0.1561  0.2662 -0.1389
  695POPI   C1A 9385  17.967   2.959   7.067 -0.0427 -0.2484 -0.3149
  695POPI   D2A 9386  17.726   2.714   7.348  0.0379 -0.2520 -0.1591
  695POPI   C3A 9387  17.625   2.689   7.718  0.0179  0.0480  0.0366
  695POPI   C4A 9388  17.333   2.669   8.046 -0.1778  0.0671  0.1371
  695POPI   C1B 9389  17.964   3.492   7.003  0.1750 -0.2281 -0.1635
  695POPI   C2B 9390  17.892   3.721   7.358  0.1312 -0.0521 -0.0612
  695POPI   C3B 9391  17.955   3.841   7.720 -0.0219  0.0530 -0.1481
  695POPI   C4B 9392  17.761   4.114   8.106  0.1212  0.1265 -0.1679
  696POPI    C1 9393   1.559  15.902   5.481 -0.0507 -0.0646  0.1408
  696POPI    C2 9394   1.402  16.144   5.204  0.0496 -0.1980 -0.0345
  696POPI    C3 9395   1.206  15.813   5.316 -0.0600 -0.0682  0.1626
  696POPI   PO4 9396   1.748  16.146   5.640 -0.1360  0.2652 -0.0069
  696POPI   GL1 9397   1.815  16.522   5.951 -0.4470 -0.1481  0.2192
  696POPI   GL2 9398   1.707  16.289   6.110 -0.8429  0.1160  0.0596
  696POPI   C1A 9399   1.863  16.764   6.364  0.0338  0.1084  0.0582
  696POPI   D2A 9400   1.820  16.938   6.791  0.2810 -0.0971  0.0734
  696POPI   C3A 9401   1.972  16.692   7.149 -0.0977  0.0370 -0.2271
  696POPI   C4A 9402   2.014  16.343   7.512 -0.1881 -0.1768 -0.0451
  696POPI   C1B 9403   1.729  15.999   6.360 -0.2635 -0.0184 -0.0264
  696POPI   C2B 9404   1.737  15.949   6.652  0.0088 -0.1136 -0.1236
  696POPI   C3B 9405   1.953  16.131   6.981 -0.1392 -0.3322  0.2584
  696POPI   C4B 9406   2.144  15.837   7.288 -0.1312  0.1451 -0.1473
  697POPI    C1 9407   0.690  17.426   5.874 -0.1229  0.0818  0.2160
  697POPI    C2 9408   0.547  17.487   6.242 -0.0701  0.1452  0.2263
  697POPI    C3 9409   0.816  17.739   6.088  0.1796 -0.0824  0.2833
  697POPI   PO4 9410   0.735  17.246   5.839  0.0792 -0.2639 -0.3813
  697POPI   GL1 9411   0.798  16.995   6.231  0.3460  0.0943  0.5124
  697POPI   GL2 9412   0.821  16.714   6.240 -0.1700 -0.0189  0.0798
  697POPI   C1A 9413   0.707  17.135   6.614 -0.1835 -0.1276 -0.1094
  697POPI   D2A 9414   0.607  17.300   7.012  0.0112  0.0046  0.0518
  697POPI   C3A 9415   0.588  17.701   6.936 -0.1121 -0.4347  0.0804
  697POPI   C4A 9416   0.545  17.913   6.473  0.1064  0.0890  0.1025
  697POPI   C1B 9417   0.923  16.722   6.626 -0.0160 -0.0321 -0.2775
  697POPI   C2B 9418   0.892  16.898   7.014  0.2607 -0.1630  0.1164
  697POPI   C3B 9419   0.662  16.941   7.343  0.2154 -0.2027 -0.0018
  697POPI   C4B 9420   0.585  17.143   7.750 -0.1652  0.2205 -0.0292
  698POPI    C1 9421  12.776   9.467   6.031  0.4089  0.0976 -0.0121
  698POPI    C2 9422  12.919   9.600   5.682 -0.0378  0.0026 -0.2403
  698POPI    C3 9423  12.530   9.514   5.718  0.0212 -0.0863  0.2559
  698POPI   PO4 9424  12.852   9.641   6.186 -0.2681  0.2092 -0.1993
  698POPI   GL1 9425  12.771   9.857   6.469 -0.0941  0.2238  0.1499
  698POPI   GL2 9426  12.799  10.201   6.626  0.0597 -0.4183 -0.2096
  698POPI   C1A 9427  12.813   9.642   6.879 -0.1161  0.2391  0.1405
  698POPI   D2A 9428  12.926   9.318   7.163 -0.0363  0.1532 -0.1897
  698POPI   C3A 9429  13.252   9.392   7.327  0.1060 -0.0992 -0.2157
  698POPI   C4A 9430  13.573   9.251   7.506  0.2851 -0.0478 -0.0189
  698POPI   C1B 9431  12.966  10.116   7.021 -0.0676  0.0177 -0.0741
  698POPI   C2B 9432  12.984  10.141   7.530 -0.2095 -0.0361  0.2759
  698POPI   C3B 9433  13.023  10.201   7.992  0.0937  0.2661  0.0332
  698POPI   C4B 9434  12.762  10.333   8.324  0.0327 -0.0309 -0.0226
  699POPI    C1 9435  12.328  17.742   5.063  0.0487 -0.0139  0.0116
  699POPI    C2 9436  12.501  17.381   5.054 -0.0182 -0.0482  0.0904
  699POPI    C3 9437  12.707  17.705   4.939  0.1746 -0.0573  0.3975
  699POPI   PO4 9438  12.179  17.706   5.322  0.1191  0.0024 -0.1389
  699POPI   GL1 9439  12.170  17.506   5.685 -0.2274  0.3157 -0.0057
  699POPI   GL2 9440  12.408  17.682   5.880 -0.0634  0.1927 -0.1417
  699POPI   C1A 9441  12.477  17.190   6.075  0.3800  0.3202  0.3191
  699POPI   D2A 9442  12.577  16.922   6.483 -0.1588 -0.2587  0.0956
  699POPI   C3A 9443  12.724  16.994   6.913 -0.0619 -0.1804  0.2283
  699POPI   C4A 9444  12.859  17.070   7.306  0.1672 -0.1490 -0.0673
  699POPI   C1B 9445  12.090  17.619   6.163 -0.0119 -0.0288  0.0806
  699POPI   C2B 9446  11.794  17.476   6.451 -0.0771  0.1268 -0.0665
  699POPI   C3B 9447  11.600  17.100   6.634  0.2167  0.1676  0.0045
  699POPI   C4B 9448  11.220  16.776   6.792  0.3378  0.1937 -0.1303
  700POPI    C1 9449   7.319  11.880   5.645 -0.1622 -0.1959  0.0263
  700POPI    C2 9450   7.581  11.596   5.750  0.1625  0.1329  0.1267
  700POPI    C3 9451   7.702  11.909   5.530 -0.1904  0.1959  0.0163
  700POPI   PO4 9452   7.197  11.913   5.860 -0.2312  0.0521 -0.0320
  700POPI   GL1 9453   7.219  11.976   6.307 -0.1212 -0.0605  0.0233
  700POPI   GL2 9454   7.485  11.742   6.406  0.2146 -0.1365 -0.1201
  700POPI   C1A 9455   7.228  12.189   6.795  0.0784  0.3267 -0.0513
  700POPI   D2A 9456   7.485  12.440   6.999 -0.0702  0.3163  0.2212
  700POPI   C3A 9457   7.360  12.640   7.416  0.0199 -0.1774 -0.0822
  700POPI   C4A 9458   7.270  12.555   7.866  0.1029  0.1174  0.0551
  700POPI   C1B 9459   7.458  11.746   6.892 -0.1163 -0.5187  0.0894
  700POPI   C2B 9460   7.669  11.944   7.084  0.0551  0.2206  0.1787
  700POPI   C3B 9461   7.901  12.053   7.471  0.0602  0.0661  0.1022
  700POPI   C4B 9462   8.294  12.326   7.325  0.1599 -0.2339 -0.3889
  701POPI    C1 9463   4.704  15.156   5.031 -0.3293  0.2625  0.1086
  701POPI    C2 9464   4.620  15.538   4.948 -0.2162  0.2141 -0.2443
  701POPI    C3 9465   4.685  15.278   4.651 -0.1917 -0.0586 -0.0049
  701POPI   PO4 9466   4.765  15.122   5.318 -0.1880  0.1468 -0.0784
  701POPI   GL1 9467   4.930  15.347   5.856  0.1735  0.0314  0.3240
  701POPI   GL2 9468   4.788  15.041   5.934 -0.1651 -0.2336  0.4984
  701POPI   C1A 9469   4.846  15.533   6.201 -0.0936  0.0097 -0.0659
  701POPI   D2A 9470   4.743  15.557   6.565 -0.0661 -0.3123 -0.0990
  701POPI   C3A 9471   4.569  15.905   6.785  0.0784 -0.0117  0.0385
  701POPI   C4A 9472   4.547  16.269   6.999 -0.5236 -0.1428 -0.1263
  701POPI   C1B 9473   4.676  14.784   6.274 -0.0747 -0.4136  0.2711
  701POPI   C2B 9474   4.706  14.573   6.625 -0.0490 -0.0631 -0.0100
  701POPI   C3B 9475   4.888  14.608   7.090  0.4351 -0.0098  0.2137
  701POPI   C4B 9476   4.728  14.708   7.471  0.0077  0.0609 -0.0850
  702POPI    C1 9477   5.026   1.244   5.658  0.0072  0.0558 -0.0180
  702POPI    C2 9478   4.909   1.126   5.294  0.0388  0.0554 -0.0281
  702POPI    C3 9479   4.963   1.515   5.370 -0.0604  0.0632  0.0037
  702POPI   PO4 9480   5.286   1.233   5.736  0.0808 -0.0848  0.1076
  702POPI   GL1 9481   5.398   1.085   6.120  0.1228  0.0442  0.4457
  702POPI   GL2 9482   5.065   1.008   6.135 -0.2029  0.1487 -0.2884
  702POPI   C1A 9483   5.648   1.098   6.496  0.0123  0.2093 -0.0498
  702POPI   D2A 9484   5.808   1.114   6.937  0.4117 -0.0359 -0.1959
  702POPI   C3A 9485   5.814   1.414   7.205  0.1971  0.0384 -0.1149
  702POPI   C4A 9486   6.061   1.677   7.431 -0.1061  0.0914 -0.0748
  702POPI   C1B 9487   5.076   0.605   6.374 -0.2240 -0.1119  0.2362
  702POPI   C2B 9488   5.251   0.316   6.734 -0.0162  0.0045 -0.1551
  702POPI   C3B 9489   5.113   0.267   7.180  0.1282 -0.1300  0.0547
  702POPI   C4B 9490   5.061   0.168   7.641 -0.1293 -0.2092 -0.0148
  703POPI    C1 9491   5.517  11.589   4.969 -0.0703 -0.0731 -0.0280
  703POPI    C2 9492   5.446  11.979   4.914  0.1982 -0.0015  0.1140
  703POPI    C3 9493   5.305  11.711   4.653  0.0655  0.1952 -0.0189
  703POPI   PO4 9494   5.415  11.607   5.339  0.0838 -0.0516 -0.0307
  703POPI   GL1 9495   5.130  11.385   5.615 -0.1066 -0.1104  0.0361
  703POPI   GL2 9496   5.367  11.356   5.831  0.0520 -0.5985  0.0138
  703POPI   C1A 9497   4.849  11.350   5.960  0.0486  0.2544  0.0401
  703POPI   D2A 9498   4.752  11.514   6.348  0.1651  0.1973  0.3925
  703POPI   C3A 9499   4.494  11.789   6.427  0.1548 -0.4500  0.1745
  703POPI   C4A 9500   4.013  11.877   6.259  0.0351  0.2373 -0.0451
  703POPI   C1B 9501   5.286  11.279   6.252  0.1449 -0.3889 -0.1225
  703POPI   C2B 9502   5.292  11.257   6.731  0.0289  0.1575 -0.2345
  703POPI   C3B 9503   5.199  11.397   7.177 -0.2809  0.0447 -0.0345
  703POPI   C4B 9504   5.089  11.447   7.600 -0.0249  0.0981 -0.1363
  704POPI    C1 9505   9.198  10.004   5.739  0.0110 -0.0606 -0.1526
  704POPI    C2 9506   9.057   9.653   5.869  0.0701 -0.0852 -0.1550
  704POPI    C3 9507   9.243   9.675   5.516  0.3310 -0.1088 -0.0214
  704POPI   PO4 9508   8.863  10.180   5.876 -0.2890  0.0163  0.0587
  704POPI   GL1 9509   8.853  10.456   6.242 -0.0613  0.1170 -0.1719
  704POPI   GL2 9510   8.492  10.417   6.253  0.1209 -0.2296 -0.2284
  704POPI   C1A 9511   9.031  10.538   6.636  0.0470  0.1681 -0.3470
  704POPI   D2A 9512   8.948  10.485   7.004  0.1306  0.2260  0.0709
  704POPI   C3A 9513   8.860  10.520   7.372 -0.1143  0.0471  0.0010
  704POPI   C4A 9514   8.700  10.674   7.715  0.0726 -0.3634 -0.1522
  704POPI   C1B 9515   8.545  10.588   6.730  0.1707  0.1695 -0.2451
  704POPI   C2B 9516   8.508  10.754   7.102  0.0307  0.0603  0.1229
  704POPI   C3B 9517   8.307  10.980   7.332 -0.2815 -0.1348 -0.1153
  704POPI   C4B 9518   7.938  10.928   7.447 -0.3155  0.2567 -0.1150
  705POPI    C1 9519   7.253  11.238   5.148  0.0840  0.2082 -0.0206
  705POPI    C2 9520   7.402  11.603   5.215 -0.1744  0.3092  0.0147
  705POPI    C3 9521   7.182  11.534   4.888 -0.0622  0.1647 -0.0313
  705POPI   PO4 9522   7.465  11.171   5.459  0.0506 -0.2674  0.1938
  705POPI   GL1 9523   7.294  11.191   5.843 -0.1072 -0.3636 -0.0224
  705POPI   GL2 9524   7.335  10.877   5.892  0.2004  0.2542 -0.0424
  705POPI   C1A 9525   7.133  11.289   6.225  0.5246  0.0102 -0.1149
  705POPI   D2A 9526   6.941  11.241   6.708 -0.3598  0.0991  0.1310
  705POPI   C3A 9527   7.101  11.385   7.213 -0.0433 -0.3944 -0.2228
  705POPI   C4A 9528   7.412  11.603   7.355 -0.0575 -0.2902 -0.0742
  705POPI   C1B 9529   7.626  10.642   6.168 -0.0369 -0.0103 -0.2749
  705POPI   C2B 9530   7.636  10.655   6.534 -0.0826 -0.0770 -0.1542
  705POPI   C3B 9531   7.470  11.082   6.859 -0.0722  0.6020  0.0616
  705POPI   C4B 9532   7.490  11.103   7.294 -0.2845  0.0137 -0.3048
  706POPI    C1 9533   3.359  16.812   5.093  0.0592 -0.1829  0.1392
  706POPI    C2 9534   2.979  16.896   5.183  0.1310  0.2028  0.0981
  706POPI    C3 9535   3.062  16.618   4.908 -0.1263  0.2560 -0.0371
  706POPI   PO4 9536   3.582  16.954   5.182  0.2321 -0.1558  0.2999
  706POPI   GL1 9537   3.955  17.088   5.327  0.1600  0.1298  0.0821
  706POPI   GL2 9538   3.987  17.364   5.217  0.1036  0.1403 -0.1273
  706POPI   C1A 9539   3.831  17.198   5.854 -0.3476 -0.3325 -0.1624
  706POPI   D2A 9540   3.911  17.517   6.174  0.1007 -0.0406  0.0601
  706POPI   C3A 9541   3.757  17.384   6.532  0.2667  0.0085 -0.0966
  706POPI   C4A 9542   3.894  17.125   6.977 -0.0536 -0.1720  0.0234
  706POPI   C1B 9543   4.193  17.469   5.560  0.4812 -0.0882  0.0152
  706POPI   C2B 9544   4.341  17.454   5.985 -0.1433  0.0235  0.2782
  706POPI   C3B 9545   4.261  17.319   6.482  0.0937  0.0848 -0.4055
  706POPI   C4B 9546   4.355  17.061   6.816 -0.3586  0.1036  0.1149
  707POPI    C1 9547  15.848   2.328   6.009 -0.0018  0.2516 -0.3305
  707POPI    C2 9548  15.579   2.032   5.991  0.2606  0.0082 -0.3185
  707POPI    C3 9549  15.524   2.365   5.777 -0.2383  0.1227 -0.0280
  707POPI   PO4 9550  15.951   2.346   6.243 -0.0193 -0.2093 -0.1341
  707POPI   GL1 9551  16.193   2.471   6.619 -0.0036  0.1695 -0.1943
  707POPI   GL2 9552  16.101   2.691   6.676  0.4943 -0.0348  0.3183
  707POPI   C1A 9553  16.510   2.541   6.890 -0.1892 -0.0348 -0.0688
  707POPI   D2A 9554  16.848   2.782   6.854 -0.0769 -0.2270 -0.0141
  707POPI   C3A 9555  16.868   2.630   7.235  0.0121  0.2429 -0.3286
  707POPI   C4A 9556  16.381   2.612   7.422 -0.1682  0.1497  0.3887
  707POPI   C1B 9557  16.007   2.855   7.154  0.0859  0.0460 -0.0402
  707POPI   C2B 9558  16.149   2.984   7.639  0.2638  0.2061 -0.0318
  707POPI   C3B 9559  15.918   2.836   7.990 -0.3862 -0.0456 -0.1046
  707POPI   C4B 9560  15.764   2.943   8.361 -0.0475 -0.1360 -0.0872
  708POPI    C1 9561   8.795  11.032   5.870 -0.1651 -0.0374 -0.0458
  708POPI    C2 9562   8.851  11.105   5.481  0.0378 -0.0197 -0.0146
  708POPI    C3 9563   8.483  11.121   5.637 -0.0511 -0.0756 -0.2151
  708POPI   PO4 9564   9.005  10.883   5.927 -0.1209 -0.4421  0.3674
  708POPI   GL1 9565   9.081  10.875   6.303 -0.3220  0.0776  0.3485
  708POPI   GL2 9566   8.786  10.941   6.410  0.1567  0.0833 -0.0202
  708POPI   C1A 9567   9.346  11.006   6.694  0.3334  0.0428  0.1574
  708POPI   D2A 9568   9.890  11.070   6.783 -0.2409  0.0418  0.2665
  708POPI   C3A 9569   9.981  10.790   7.108  0.0490 -0.1927  0.3310
  708POPI   C4A 9570  10.149  10.619   7.556  0.0379 -0.0271 -0.0552
  708POPI   C1B 9571   8.851  10.961   6.826 -0.1109  0.0871 -0.0693
  708POPI   C2B 9572   8.952  10.944   7.194 -0.2323 -0.1639 -0.4309
  708POPI   C3B 9573   9.228  10.828   7.540  0.0016  0.1504  0.0778
  708POPI   C4B 9574   9.261  10.654   7.878 -0.0391  0.3705  0.0170
  709POPI    C1 9575   4.361  15.325   5.605  0.0292  0.1054 -0.1898
  709POPI    C2 9576   4.229  15.215   5.244  0.0315  0.0613 -0.1771
  709POPI    C3 9577   3.979  15.216   5.557  0.0371  0.0704 -0.1728
  709POPI   PO4 9578   4.488  15.611   5.533  0.1409  0.0165 -0.1745
  709POPI   GL1 9579   4.539  15.987   5.715 -0.3136  0.0471 -0.2499
  709POPI   GL2 9580   4.249  16.164   5.752 -0.1117 -0.0389 -0.0662
  709POPI   C1A 9581   4.733  16.006   6.087 -0.3825  0.1643  0.1490
  709POPI   D2A 9582   4.763  16.284   6.514 -0.1266  0.3056 -0.2500
  709POPI   C3A 9583   4.423  16.602   6.576 -0.1344  0.3012  0.0097
  709POPI   C4A 9584   3.990  16.666   6.761  0.0385 -0.1830  0.4914
  709POPI   C1B 9585   4.295  16.129   6.281  0.1657  0.0063 -0.0335
  709POPI   C2B 9586   4.111  16.112   6.711  0.0612 -0.3101 -0.0916
  709POPI   C3B 9587   4.178  15.918   7.089  0.0878 -0.0621 -0.0765
  709POPI   C4B 9588   4.491  15.807   7.249  0.1788 -0.1817 -0.0350
  710POPI    C1 9589  15.949  14.321   5.926  0.1384  0.0897 -0.1451
  710POPI    C2 9590  16.221  14.354   5.635 -0.1023  0.0650 -0.3763
  710POPI    C3 9591  15.839  14.451   5.564 -0.1692  0.0303 -0.0761
  710POPI   PO4 9592  16.036  14.426   6.110 -0.3023  0.3916  0.4718
  710POPI   GL1 9593  16.148  14.306   6.641 -0.0305 -0.2497  0.2972
  710POPI   GL2 9594  16.090  13.944   6.552 -0.1371  0.1919 -0.0226
  710POPI   C1A 9595  15.828  14.626   6.584 -0.1814 -0.0891 -0.1686
  710POPI   D2A 9596  15.497  14.588   6.830  0.1514 -0.0448  0.2089
  710POPI   C3A 9597  15.284  14.911   6.965  0.2875 -0.1300  0.0139
  710POPI   C4A 9598  15.230  15.307   6.770 -0.0883  0.2102 -0.0754
  710POPI   C1B 9599  16.021  13.732   6.948 -0.0820 -0.0255  0.0921
  710POPI   C2B 9600  15.938  13.815   7.387  0.1106  0.1649  0.2576
  710POPI   C3B 9601  15.919  14.132   7.659  0.1290  0.0484  0.3279
  710POPI   C4B 9602  15.638  14.199   8.061 -0.1919  0.1825  0.0326
  711POPI    C1 9603  16.230   5.884   5.842  0.1805  0.0833  0.1485
  711POPI    C2 9604  16.613   5.970   5.920  0.2385 -0.3273  0.3407
  711POPI    C3 9605  16.488   5.590   5.923 -0.0935 -0.2303 -0.0899
  711POPI   PO4 9606  16.080   6.137   6.002  0.1598  0.2040 -0.0293
  711POPI   GL1 9607  15.989   6.354   6.353  0.4221  0.2756 -0.3052
  711POPI   GL2 9608  15.859   6.520   6.564 -0.0522  0.1315 -0.0001
  711POPI   C1A 9609  16.288   6.235   6.627  0.0124  0.4726 -0.2322
  711POPI   D2A 9610  16.706   6.129   6.623  0.2738 -0.1452 -0.0686
  711POPI   C3A 9611  16.858   5.850   7.040  0.2319 -0.2458 -0.0503
  711POPI   C4A 9612  17.204   5.667   7.248 -0.0109  0.0721  0.0725
  711POPI   C1B 9613  16.166   6.643   6.935 -0.0299 -0.0728 -0.1386
  711POPI   C2B 9614  16.367   6.688   7.349  0.1791 -0.2540 -0.0370
  711POPI   C3B 9615  16.145   6.715   7.826  0.0621 -0.1480  0.1925
  711POPI   C4B 9616  16.171   6.763   8.351  0.0563 -0.0961  0.1776
  712POPI    C1 9617  17.434  14.418   6.083  0.0063 -0.1360 -0.0199
  712POPI    C2 9618  17.467  14.379   5.686  0.3333  0.1247 -0.0228
  712POPI    C3 9619  17.271  14.692   5.841  0.2023  0.0207  0.0237
  712POPI   PO4 9620  17.389  14.138   6.152 -0.0041  0.1698  0.3102
  712POPI   GL1 9621  17.318  13.873   6.585  0.1043 -0.0508  0.0005
  712POPI   GL2 9622  17.094  13.933   6.765 -0.1473 -0.0555 -0.0938
  712POPI   C1A 9623  17.754  13.756   6.906 -0.4359 -0.0097 -0.1145
  712POPI   D2A 9624  18.005  13.762   7.257 -0.0223  0.0381 -0.2871
  712POPI   C3A 9625  18.086  14.082   7.687  0.0214  0.1781  0.2993
  712POPI   C4A 9626  17.966  14.490   7.728  0.0071  0.3373 -0.6092
  712POPI   C1B 9627  17.387  13.999   7.095 -0.1146  0.1869  0.1673
  712POPI   C2B 9628  17.551  14.050   7.515 -0.1654  0.0908 -0.2419
  712POPI   C3B 9629  17.637  14.074   7.890  0.0868  0.2137  0.4012
  712POPI   C4B 9630  17.671  14.385   8.190  0.0031  0.0987  0.1945
  713POPI    C1 9631  14.064  18.307   5.282 -0.1416 -0.0782 -0.1282
  713POPI    C2 9632  13.770  18.513   5.105  0.0291  0.0905 -0.2192
  713POPI    C3 9633  13.913  18.181   4.933 -0.1188 -0.0017 -0.1659
  713POPI   PO4 9634  14.008  18.302   5.625  0.1976  0.0719  0.2603
  713POPI   GL1 9635  13.714  18.126   5.952  0.0036  0.3340  0.0242
  713POPI   GL2 9636  14.002  18.189   6.131  0.1105  0.3733  0.0529
  713POPI   C1A 9637  13.584  18.096   6.376  0.1021  0.0041  0.2463
  713POPI   D2A 9638  13.681  17.922   6.731 -0.3706 -0.3424  0.2818
  713POPI   C3A 9639  14.016  17.745   6.722  0.3180 -0.1433  0.2044
  713POPI   C4A 9640  14.140  17.523   7.115 -0.0266 -0.0102  0.2182
  713POPI   C1B 9641  14.426  18.134   6.493  0.1127  0.3342  0.1356
  713POPI   C2B 9642  14.710  18.150   6.838 -0.2137 -0.0991 -0.4176
  713POPI   C3B 9643  14.648  18.251   7.228  0.0278 -0.0091  0.0711
  713POPI   C4B 9644  14.633  18.515   7.592  0.0683  0.1998 -0.1606
  714POPI    C1 9645  14.366  10.766   5.751  0.1309 -0.1005 -0.1061
  714POPI    C2 9646  14.327  11.164   5.763  0.0227 -0.1135  0.0016
  714POPI    C3 9647  14.154  10.955   5.470 -0.0518 -0.0957  0.0328
  714POPI   PO4 9648  14.218  10.658   5.916 -0.1891 -0.4132  0.0169
  714POPI   GL1 9649  14.006  10.358   6.310 -0.2978  0.2543  0.2008
  714POPI   GL2 9650  14.125  10.562   6.436  0.1115 -0.0568 -0.2077
  714POPI   C1A 9651  13.507  10.477   6.520  0.1311  0.0563 -0.0491
  714POPI   D2A 9652  13.330  10.460   6.811  0.0125 -0.1592  0.1858
  714POPI   C3A 9653  13.303  10.523   7.242  0.1382 -0.1024 -0.0669
  714POPI   C4A 9654  13.364  10.591   7.670 -0.1614 -0.4332 -0.0232
  714POPI   C1B 9655  13.917  10.628   6.835  0.0236  0.0845  0.0772
  714POPI   C2B 9656  13.684  10.876   7.029  0.3503 -0.0680  0.0910
  714POPI   C3B 9657  13.516  11.139   7.394  0.0300  0.0363 -0.0537
  714POPI   C4B 9658  13.315  11.400   7.713  0.0193 -0.4892 -0.2514
  715POPI    C1 9659  13.362   8.992   5.964 -0.1267 -0.2194  0.0807
  715POPI    C2 9660  13.431   9.262   5.677 -0.0488 -0.2953  0.0273
  715POPI    C3 9661  13.055   9.156   5.767 -0.0976  0.0566  0.2590
  715POPI   PO4 9662  13.510   9.021   6.248  0.0215  0.1235  0.0495
  715POPI   GL1 9663  13.593   8.826   6.648 -0.2480  0.0730  0.2970
  715POPI   GL2 9664  13.545   8.640   6.850  0.2114  0.1102 -0.2601
  715POPI   C1A 9665  13.790   9.041   7.052 -0.3845 -0.3514  0.0120
  715POPI   D2A 9666  14.069   9.222   7.444  0.3567 -0.2032  0.3216
  715POPI   C3A 9667  13.880   9.481   7.780 -0.1636 -0.0224  0.0838
  715POPI   C4A 9668  13.643   9.808   7.821  0.0539 -0.2000  0.2158
  715POPI   C1B 9669  13.824   8.582   7.266 -0.0215  0.1032 -0.1679
  715POPI   C2B 9670  13.862   8.807   7.591 -0.2791 -0.2089 -0.1690
  715POPI   C3B 9671  14.223   8.939   7.881  0.2631  0.1017  0.0350
  715POPI   C4B 9672  14.468   8.744   8.175 -0.0180 -0.0935  0.1340
  716POPI    C1 9673   1.010  12.004   5.903  0.0125  0.0547 -0.2634
  716POPI    C2 9674   1.231  11.703   6.047 -0.1280 -0.0234 -0.2083
  716POPI    C3 9675   1.401  12.057   5.968 -0.0573  0.0404  0.2046
  716POPI   PO4 9676   0.799  12.107   6.061  0.4567 -0.1555 -0.0726
  716POPI   GL1 9677   0.928  12.054   6.473 -0.0976  0.0219 -0.2668
  716POPI   GL2 9678   1.004  11.808   6.619  0.0066 -0.0821 -0.0265
  716POPI   C1A 9679   1.102  12.486   6.540 -0.1656 -0.0560 -0.2303
  716POPI   D2A 9680   1.417  12.752   6.590  0.0249 -0.2898  0.0277
  716POPI   C3A 9681   1.582  12.532   6.922 -0.1521 -0.0584 -0.0678
  716POPI   C4A 9682   1.601  12.725   7.334 -0.2783  0.1953  0.0092
  716POPI   C1B 9683   0.984  11.615   7.044  0.2658 -0.3097  0.0833
  716POPI   C2B 9684   1.253  11.781   7.299 -0.1221  0.0867  0.1332
  716POPI   C3B 9685   1.170  11.953   7.754 -0.3642  0.2557 -0.2565
  716POPI   C4B 9686   1.324  12.089   8.226 -0.0425 -0.5047  0.1047
  717POPI    C1 9687   1.165   7.697   5.807  0.0595  0.1850 -0.0195
  717POPI    C2 9688   1.436   7.411   5.876 -0.0178  0.0926 -0.0963
  717POPI    C3 9689   1.263   7.441   5.516 -0.0896  0.1683 -0.0558
  717POPI   PO4 9690   1.156   7.816   6.076 -0.1934  0.0410  0.0608
  717POPI   GL1 9691   1.371   7.893   6.505 -0.2227 -0.1813  0.0220
  717POPI   GL2 9692   1.256   8.087   6.729 -0.1926  0.4242 -0.1059
  717POPI   C1A 9693   1.751   8.178   6.645 -0.1765  0.2409  0.1024
  717POPI   D2A 9694   1.910   8.268   7.068 -0.0954 -0.1125 -0.3091
  717POPI   C3A 9695   2.250   8.018   7.398  0.0582 -0.0601 -0.3167
  717POPI   C4A 9696   2.575   7.983   7.842  0.0669 -0.1823  0.0185
  717POPI   C1B 9697   0.989   8.026   6.998  0.0322 -0.1090  0.1358
  717POPI   C2B 9698   1.150   7.937   7.417  0.0771 -0.0500  0.4338
  717POPI   C3B 9699   1.155   7.955   7.723  0.3231 -0.1927 -0.1835
  717POPI   C4B 9700   0.758   7.977   7.852  0.1245 -0.1486  0.0522
  718POPI    C1 9701   2.192  14.713   5.692 -0.0375  0.0123 -0.0468
  718POPI    C2 9702   1.802  14.696   5.778 -0.0682 -0.1452 -0.2108
  718POPI    C3 9703   1.980  14.388   5.596  0.1104 -0.0317 -0.2302
  718POPI   PO4 9704   2.236  14.902   5.920 -0.1931 -0.0093 -0.0631
  718POPI   GL1 9705   2.145  15.007   6.321  0.0815  0.0446 -0.1096
  718POPI   GL2 9706   2.126  14.808   6.558  0.1366 -0.0397  0.3189
  718POPI   C1A 9707   2.141  15.328   6.628 -0.2524 -0.0495 -0.2543
  718POPI   D2A 9708   1.963  15.619   6.920 -0.0503  0.0583  0.0907
  718POPI   C3A 9709   1.651  15.568   7.118 -0.1160 -0.2434 -0.1957
  718POPI   C4A 9710   1.368  15.352   7.108 -0.1219 -0.0381 -0.1909
  718POPI   C1B 9711   2.272  14.702   6.939 -0.0432  0.1683  0.1542
  718POPI   C2B 9712   2.332  14.581   7.334 -0.1359 -0.0664 -0.0568
  718POPI   C3B 9713   2.451  14.845   7.689  0.1250  0.0100  0.2348
  718POPI   C4B 9714   2.886  14.837   7.740  0.0351  0.3125 -0.1825
  719POPI    C1 9715   2.193   9.770   5.745  0.0512  0.1030  0.0571
  719POPI    C2 9716   2.102   9.905   5.380  0.0152 -0.0336  0.0148
  719POPI    C3 9717   2.295   9.557   5.422 -0.0527 -0.0580  0.1290
  719POPI   PO4 9718   1.965   9.782   5.906 -0.1422  0.3212  0.1430
  719POPI   GL1 9719   2.175   9.939   6.286 -0.0270 -0.0963 -0.0908
  719POPI   GL2 9720   2.296  10.190   6.080  0.1583  0.0256  0.5263
  719POPI   C1A 9721   1.991   9.846   6.545 -0.3426  0.0286 -0.0186
  719POPI   D2A 9722   1.552   9.760   6.519  0.1000  0.0169 -0.3421
  719POPI   C3A 9723   1.402   9.686   6.846 -0.1532 -0.0606  0.0245
  719POPI   C4A 9724   1.516   9.512   7.191  0.0634  0.1445  0.2993
  719POPI   C1B 9725   2.305  10.460   6.382  0.1933 -0.1068  0.4302
  719POPI   C2B 9726   2.640  10.530   6.685  0.3981  0.1299  0.2381
  719POPI   C3B 9727   2.899  10.713   6.986 -0.0622  0.1635 -0.1928
  719POPI   C4B 9728   3.187  10.934   7.229 -0.1714  0.2421  0.1530
  720POPI    C1 9729   9.978   7.043   5.883 -0.0423 -0.0475 -0.0722
  720POPI    C2 9730  10.349   6.906   5.823  0.0217 -0.0321  0.2694
  720POPI    C3 9731  10.251   7.275   5.705  0.1007 -0.0531  0.1361
  720POPI   PO4 9732   9.750   6.838   5.788  0.2070  0.0653  0.0780
  720POPI   GL1 9733   9.384   6.704   6.020  0.1890  0.2051 -0.2573
  720POPI   GL2 9734   9.618   6.590   6.323 -0.0655 -0.0923  0.1433
  720POPI   C1A 9735   9.173   6.887   6.414  0.1478  0.2385  0.1302
  720POPI   D2A 9736   9.054   7.097   6.603 -0.1318  0.0944  0.1527
  720POPI   C3A 9737   9.094   7.141   7.029  0.2447 -0.0797 -0.2740
  720POPI   C4A 9738   9.041   7.182   7.494 -0.1841  0.1501 -0.2997
  720POPI   C1B 9739   9.394   6.667   6.781  0.0192  0.1293 -0.1736
  720POPI   C2B 9740   9.391   6.787   7.190 -0.0361 -0.2024 -0.2506
  720POPI   C3B 9741   9.311   6.736   7.661 -0.0219  0.2430  0.1669
  720POPI   C4B 9742   9.347   6.650   8.060  0.0800 -0.3204 -0.0637
  721POPI    C1 9743   6.902   8.717   5.730 -0.1495 -0.0233  0.1348
  721POPI    C2 9744   7.173   8.906   5.955 -0.1148  0.1132 -0.0196
  721POPI    C3 9745   7.285   8.600   5.723 -0.1290  0.0477  0.0594
  721POPI   PO4 9746   6.648   8.611   5.987  0.2125 -0.1695 -0.0666
  721POPI   GL1 9747   6.292   8.495   6.240 -0.2146  0.2304 -0.0579
  721POPI   GL2 9748   6.614   8.343   6.376 -0.1712 -0.1888  0.1444
  721POPI   C1A 9749   6.189   8.659   6.607 -0.2910  0.4901  0.0847
  721POPI   D2A 9750   6.036   8.767   6.963  0.2739 -0.2452 -0.0096
  721POPI   C3A 9751   6.082   8.811   7.361  0.0915  0.1971  0.0081
  721POPI   C4A 9752   6.271   9.165   7.690 -0.0297  0.2157  0.0146
  721POPI   C1B 9753   6.759   8.390   6.761 -0.1301  0.2588 -0.0861
  721POPI   C2B 9754   6.875   8.418   7.101  0.0157 -0.0846 -0.0533
  721POPI   C3B 9755   6.929   8.250   7.484 -0.0919  0.0622  0.0481
  721POPI   C4B 9756   6.978   8.549   7.858  0.3549  0.1561  0.2451
  722POPI    C1 9757   2.033  13.103   5.513  0.0271 -0.0729 -0.1007
  722POPI    C2 9758   2.313  13.387   5.482 -0.3020  0.3108  0.3100
  722POPI    C3 9759   2.032  13.352   5.200  0.1538 -0.0868 -0.1128
  722POPI   PO4 9760   1.925  13.022   5.771 -0.1128 -0.0467  0.0089
  722POPI   GL1 9761   1.931  12.984   6.180  0.0903 -0.0380 -0.1148
  722POPI   GL2 9762   1.774  13.206   6.501 -0.1093 -0.0545  0.1772
  722POPI   C1A 9763   2.398  12.731   6.324  0.1171 -0.1494  0.2032
  722POPI   D2A 9764   2.690  12.555   6.536 -0.1366 -0.2691 -0.2306
  722POPI   C3A 9765   2.996  12.193   6.587 -0.1405  0.1405 -0.3235
  722POPI   C4A 9766   2.948  11.799   6.824  0.2805  0.2212 -0.0057
  722POPI   C1B 9767   1.826  13.180   6.991 -0.0406 -0.1604 -0.2963
  722POPI   C2B 9768   2.051  12.917   7.360 -0.1339  0.2296 -0.1475
  722POPI   C3B 9769   2.113  12.543   7.565 -0.1635 -0.1078  0.0515
  722POPI   C4B 9770   2.257  12.299   7.910  0.2454  0.3939 -0.1235
  723POPI    C1 9771   2.310  15.940   5.259 -0.1172 -0.1943 -0.2589
  723POPI    C2 9772   2.028  15.758   5.476 -0.0901  0.1980  0.1185
  723POPI    C3 9773   1.924  15.991   5.169 -0.1362 -0.2258 -0.1965
  723POPI   PO4 9774   2.430  16.092   5.481 -0.1059  0.0282  0.0718
  723POPI   GL1 9775   2.642  16.290   5.827 -0.0313 -0.2976 -0.2492
  723POPI   GL2 9776   2.910  16.428   6.130 -0.1490 -0.2449 -0.0995
  723POPI   C1A 9777   2.323  16.292   6.190 -0.0274 -0.4585  0.0805
  723POPI   D2A 9778   2.222  16.183   6.567 -0.1708  0.3312  0.2300
  723POPI   C3A 9779   2.424  16.052   6.965 -0.1569 -0.0076 -0.0531
  723POPI   C4A 9780   2.755  16.220   7.147 -0.0927 -0.1486 -0.0157
  723POPI   C1B 9781   2.878  16.862   6.222  0.1803  0.2453  0.0266
  723POPI   C2B 9782   2.895  16.963   6.638  0.2871  0.2922 -0.1178
  723POPI   C3B 9783   2.912  17.116   7.022 -0.0616 -0.0118  0.1238
  723POPI   C4B 9784   3.139  17.419   7.393  0.0403 -0.1100  0.0568
  724POPI    C1 9785   1.571  18.407   5.164 -0.0190 -0.1236 -0.3038
  724POPI    C2 9786   1.289  18.664   5.042 -0.2583 -0.1990  0.0757
  724POPI    C3 9787   1.299  18.292   4.894 -0.1244 -0.0825 -0.2156
  724POPI   PO4 9788   1.485  18.551   5.511  0.1386 -0.0077 -0.0886
  724POPI   GL1 9789   1.599  18.438   5.956 -0.1918  0.0755 -0.1167
  724POPI   GL2 9790   1.666  18.204   6.156 -0.0090  0.1575 -0.1565
  724POPI   C1A 9791   1.327  18.593   6.283  0.2457  0.1843 -0.1762
  724POPI   D2A 9792   1.115  18.645   6.736  0.0041 -0.0302 -0.1597
  724POPI   C3A 9793   0.826  18.654   7.124  0.0809  0.3279 -0.2263
  724POPI   C4A 9794   0.380  18.686   7.159 -0.1600 -0.3625  0.4781
  724POPI   C1B 9795   1.567  18.319   6.612 -0.4281 -0.1418  0.3130
  724POPI   C2B 9796   1.663  18.377   7.129 -0.0819 -0.1726  0.2532
  724POPI   C3B 9797   1.679  18.133   7.569  0.0441  0.2222  0.0634
  724POPI   C4B 9798   1.469  18.135   7.966 -0.2082  0.1199 -0.0842
  725POPI    C1 9799  17.972  11.172   6.087  0.0913  0.1001 -0.1532
  725POPI    C2 9800  17.585  11.084   6.041  0.0491  0.1550  0.0859
  725POPI    C3 9801  17.836  11.045   5.733 -0.1504  0.1421 -0.0771
  725POPI   PO4 9802  18.019  11.003   6.249  0.1066 -0.2086 -0.1537
  725POPI   GL1 9803  17.821  11.205   6.568 -0.3040  0.1700 -0.2660
  725POPI   GL2 9804  17.931  11.441   6.703  0.1166 -0.3012 -0.0085
  725POPI   C1A 9805  17.705  10.855   6.863 -0.1940 -0.3076  0.0333
  725POPI   D2A 9806  17.673  10.835   7.246 -0.2592  0.1309 -0.2417
  725POPI   C3A 9807  17.597  11.183   7.515  0.0764  0.0589 -0.0773
  725POPI   C4A 9808  17.864  11.573   7.759 -0.1687  0.0926  0.1384
  725POPI   C1B 9809  18.075  11.114   7.081  0.0492 -0.2409 -0.0267
  725POPI   C2B 9810  18.206  10.993   7.413  0.0415 -0.0152 -0.1197
  725POPI   C3B 9811  17.995  10.915   7.810 -0.0237  0.3883 -0.0448
  725POPI   C4B 9812  17.924  11.242   8.104  0.2694  0.0997  0.0805
  726POPI    C1 9813   0.902   2.046   5.854 -0.3680  0.0027  0.2095
  726POPI    C2 9814   0.704   1.705   5.787 -0.3079  0.0163 -0.0484
  726POPI    C3 9815   0.787   1.951   5.482 -0.1274  0.1391  0.0980
  726POPI   PO4 9816   1.055   1.835   6.103 -0.1214 -0.2588 -0.1467
  726POPI   GL1 9817   1.070   1.884   6.503  0.1900 -0.1857  0.1587
  726POPI   GL2 9818   0.792   1.650   6.628  0.0326  0.1014  0.0845
  726POPI   C1A 9819   1.258   1.614   6.820 -0.1943  0.4525 -0.2934
  726POPI   D2A 9820   1.608   1.574   7.052 -0.1501 -0.2553 -0.1372
  726POPI   C3A 9821   1.547   1.442   7.481 -0.0481  0.1383 -0.3475
  726POPI   C4A 9822   1.325   1.518   7.700  0.3109 -0.0226 -0.0955
  726POPI   C1B 9823   0.703   1.499   7.060  0.0628  0.0020 -0.0429
  726POPI   C2B 9824   0.846   1.511   7.571  0.1731 -0.0638 -0.0048
  726POPI   C3B 9825   0.808   1.365   8.083 -0.3290 -0.3719 -0.0783
  726POPI   C4B 9826   0.537   1.078   8.255 -0.3511  0.3239  0.2339
  727POPI    C1 9827   6.980  17.138   5.005  0.1640 -0.0160  0.1233
  727POPI    C2 9828   6.852  16.820   4.798 -0.3235  0.3128 -0.0988
  727POPI    C3 9829   6.871  17.179   4.622  0.2715  0.4064  0.1332
  727POPI   PO4 9830   7.240  17.088   5.197  0.0487  0.0050  0.3524
  727POPI   GL1 9831   7.226  16.965   5.737 -0.1249 -0.3632 -0.1175
  727POPI   GL2 9832   7.572  17.000   5.672 -0.1303  0.1376  0.1979
  727POPI   C1A 9833   7.117  16.655   5.946  0.1450  0.3392 -0.1909
  727POPI   D2A 9834   7.207  16.173   5.896 -0.4636  0.2783 -0.3433
  727POPI   C3A 9835   7.222  15.997   6.209  0.0795 -0.2196 -0.2669
  727POPI   C4A 9836   7.389  15.677   6.441  0.1744 -0.1021  0.0308
  727POPI   C1B 9837   7.495  17.129   6.101  0.1367  0.2754 -0.0332
  727POPI   C2B 9838   7.374  16.960   6.399 -0.3371 -0.0841  0.1237
  727POPI   C3B 9839   7.130  16.919   6.720 -0.0328  0.1125 -0.1081
  727POPI   C4B 9840   7.167  16.830   7.140 -0.2861  0.0983 -0.0732
  728POPI    C1 9841   3.477   0.634   5.303  0.0140  0.0201 -0.1473
  728POPI    C2 9842   3.639   0.269   5.328  0.2291  0.1381  0.2884
  728POPI    C3 9843   3.300   0.324   5.122  0.3080 -0.2635  0.0400
  728POPI   PO4 9844   3.525   0.726   5.578 -0.2421 -0.0289 -0.0858
  728POPI   GL1 9845   3.529   0.574   6.010 -0.2911  0.1293  0.0163
  728POPI   GL2 9846   3.764   0.247   5.974  0.4441  0.0705  0.0428
  728POPI   C1A 9847   3.473   0.530   6.412 -0.0990  0.0986  0.1615
  728POPI   D2A 9848   3.506   0.344   6.768  0.2824 -0.2520  0.2330
  728POPI   C3A 9849   3.786   0.591   7.062  0.0605  0.1958  0.1430
  728POPI   C4A 9850   3.918   0.941   7.296 -0.1489  0.0634 -0.0639
  728POPI   C1B 9851   3.882  -0.229   6.044  0.1494 -0.0129 -0.1004
  728POPI   C2B 9852   3.695  -0.542   6.201  0.1895 -0.2993 -0.1218
  728POPI   C3B 9853   3.693  -0.738   6.616 -0.3279  0.3293  0.1725
  728POPI   C4B 9854   3.556  -0.922   7.030 -0.2588  0.1133 -0.0062
  729POPI    C1 9855  10.131  14.917   5.402 -0.1773  0.1822  0.0563
  729POPI    C2 9856  10.427  14.887   5.135 -0.1080  0.1686  0.1343
  729POPI    C3 9857  10.076  14.709   5.065  0.0426 -0.1770  0.2356
  729POPI   PO4 9858  10.198  14.881   5.639  0.2776  0.1695  0.4455
  729POPI   GL1 9859  10.301  14.864   6.072 -0.0051 -0.2846 -0.2060
  729POPI   GL2 9860  10.261  14.555   6.090 -0.0657  0.1223 -0.1172
  729POPI   C1A 9861  10.133  14.847   6.483  0.0295 -0.0500  0.2296
  729POPI   D2A 9862  10.170  14.936   6.950 -0.4466 -0.1221 -0.1858
  729POPI   C3A 9863  10.054  14.621   7.243  0.1036  0.0986  0.1528
  729POPI   C4A 9864   9.989  14.168   7.496 -0.0406  0.1649  0.1972
  729POPI   C1B 9865  10.305  14.348   6.444  0.1156 -0.4015 -0.2739
  729POPI   C2B 9866  10.138  14.469   6.725 -0.1380 -0.1071  0.1473
  729POPI   C3B 9867   9.719  14.649   6.896  0.0163 -0.1718  0.3211
  729POPI   C4B 9868   9.342  14.670   6.706  0.0374 -0.0454  0.1238
  730POPI    C1 9869  15.841  18.373   5.952  0.2001 -0.0272  0.2150
  730POPI    C2 9870  16.177  18.539   5.809  0.0078  0.2095  0.0287
  730POPI    C3 9871  16.130  18.142   5.799  0.1883  0.1912 -0.1502
  730POPI   PO4 9872  15.810  18.461   6.232  0.1033 -0.3706 -0.0078
  730POPI   GL1 9873  15.719  18.304   6.635 -0.1339 -0.0868  0.1649
  730POPI   GL2 9874  15.419  18.315   6.525  0.1504 -0.0964 -0.1350
  730POPI   C1A 9875  15.552  18.543   6.996 -0.2567  0.2927 -0.1383
  730POPI   D2A 9876  15.543  18.469   7.362 -0.0492  0.2568  0.0011
  730POPI   C3A 9877  15.454  18.692   7.662 -0.0783 -0.0200  0.1160
  730POPI   C4A 9878  15.488  18.689   8.044 -0.0318  0.2278 -0.0818
  730POPI   C1B 9879  15.243  18.238   6.896 -0.2072  0.0199  0.2725
  730POPI   C2B 9880  15.521  18.055   7.173  0.0719 -0.3131  0.3286
  730POPI   C3B 9881  15.553  17.763   7.617  0.0048  0.0600 -0.1488
  730POPI   C4B 9882  15.363  17.601   8.017 -0.0582 -0.0080  0.2714
  731POPI    C1 9883   3.443  14.628   5.677  0.2632  0.3668  0.0109
  731POPI    C2 9884   3.136  14.446   5.497  0.2288 -0.0434  0.4636
  731POPI    C3 9885   3.108  14.832   5.600  0.0507  0.0506  0.0805
  731POPI   PO4 9886   3.677  14.451   5.680 -0.0053 -0.1109 -0.1565
  731POPI   GL1 9887   3.986  14.391   6.025  0.3990 -0.1265  0.4069
  731POPI   GL2 9888   3.770  14.528   6.221 -0.1034  0.0771  0.0564
  731POPI   C1A 9889   4.252  14.188   6.358 -0.2196 -0.2614 -0.0259
  731POPI   D2A 9890   4.646  14.102   6.362  0.0640 -0.0922 -0.0124
  731POPI   C3A 9891   4.691  14.014   6.707 -0.0110  0.3717 -0.1666
  731POPI   C4A 9892   4.662  14.196   7.043 -0.1011 -0.2143 -0.1301
  731POPI   C1B 9893   3.803  14.365   6.637  0.3311 -0.0176  0.0082
  731POPI   C2B 9894   3.861  14.333   7.080  0.4274 -0.0833 -0.0452
  731POPI   C3B 9895   3.755  14.526   7.519  0.2834  0.0286  0.1241
  731POPI   C4B 9896   3.356  14.722   7.801 -0.2423 -0.4041 -0.1711
  732POPI    C1 9897   8.068  13.233   5.391 -0.1234 -0.4126  0.0493
  732POPI    C2 9898   7.826  13.290   5.078  0.0615 -0.0127 -0.0272
  732POPI    C3 9899   8.220  13.255   5.022  0.0552 -0.3698  0.1245
  732POPI   PO4 9900   7.966  13.337   5.687 -0.0609  0.0475  0.0997
  732POPI   GL1 9901   7.643  13.456   5.959  0.1017 -0.3224 -0.2145
  732POPI   GL2 9902   7.902  13.630   6.064  0.0171 -0.0722  0.2391
  732POPI   C1A 9903   7.324  13.271   6.263  0.0828 -0.0505  0.0483
  732POPI   D2A 9904   7.372  13.248   6.651 -0.1670 -0.0572 -0.0553
  732POPI   C3A 9905   7.161  13.425   6.933  0.1867 -0.2039 -0.0610
  732POPI   C4A 9906   6.888  13.860   7.025 -0.2153  0.1830 -0.2989
  732POPI   C1B 9907   7.890  13.482   6.489  0.0156 -0.0238 -0.1172
  732POPI   C2B 9908   7.738  13.520   6.837 -0.1786 -0.2484  0.1000
  732POPI   C3B 9909   7.617  13.484   7.154 -0.0367  0.1032 -0.0679
  732POPI   C4B 9910   7.703  13.481   7.612 -0.1774 -0.3716  0.1110
  733POPI    C1 9911  17.919   9.080   6.038 -0.0195 -0.1606  0.1809
  733POPI    C2 9912  18.075   9.422   5.902 -0.0458 -0.1328  0.2205
  733POPI    C3 9913  17.695   9.411   6.027 -0.1189 -0.2323 -0.0043
  733POPI   PO4 9914  18.140   8.908   6.255  0.2250 -0.0246  0.0482
  733POPI   GL1 9915  18.002   8.984   6.737  0.0102 -0.1953 -0.1057
  733POPI   GL2 9916  18.347   9.246   6.853  0.0672 -0.2011  0.0911
  733POPI   C1A 9917  17.889   8.723   7.063  0.0644 -0.1952 -0.2337
  733POPI   D2A 9918  18.027   8.449   7.465 -0.3712 -0.1812  0.0986
  733POPI   C3A 9919  17.842   8.562   7.797 -0.0201 -0.1306 -0.1659
  733POPI   C4A 9920  17.837   8.866   8.182  0.2864  0.2114  0.1699
  733POPI   C1B 9921  18.813   9.295   7.040 -0.0578  0.0365 -0.2274
  733POPI   C2B 9922  19.214   9.209   7.227  0.4059 -0.3353 -0.0891
  733POPI   C3B 9923  19.543   8.849   7.345  0.3936 -0.1155 -0.0021
  733POPI   C4B 9924  19.876   9.077   7.452 -0.0513 -0.1815 -0.2619
  734POPI    C1 9925   8.235   2.532   5.139 -0.0100 -0.0415  0.2361
  734POPI    C2 9926   8.486   2.842   5.116  0.0447 -0.0849  0.2485
  734POPI    C3 9927   8.127   2.888   5.285 -0.0832  0.0581 -0.0544
  734POPI   PO4 9928   8.366   2.376   5.311 -0.0960  0.1433 -0.1538
  734POPI   GL1 9929   8.629   2.430   5.519 -0.2293  0.1353 -0.0557
  734POPI   GL2 9930   8.726   2.762   5.575 -0.3627  0.3621 -0.1670
  734POPI   C1A 9931   8.604   2.337   5.928  0.2095 -0.1884  0.0300
  734POPI   D2A 9932   8.549   2.653   6.206  0.0153  0.1763 -0.1419
  734POPI   C3A 9933   8.543   2.653   6.550 -0.0292 -0.2017  0.1609
  734POPI   C4A 9934   8.607   2.648   7.029 -0.0785  0.1724  0.1294
  734POPI   C1B 9935   9.031   2.599   5.933  0.0191 -0.0351 -0.2356
  734POPI   C2B 9936   9.067   2.431   6.424  0.0250  0.0373  0.0851
  734POPI   C3B 9937   8.812   2.268   6.731  0.2902  0.1443  0.0308
  734POPI   C4B 9938   8.912   2.032   7.015  0.2739  0.1531  0.1845
  735POPI    C1 9939   8.629  13.949   5.430 -0.1556  0.0730  0.0193
  735POPI    C2 9940   8.327  14.211   5.434 -0.1544  0.0762 -0.0882
  735POPI    C3 9941   8.592  14.216   5.134  0.0392  0.1715  0.0822
  735POPI   PO4 9942   8.888  13.989   5.571 -0.0916  0.2307 -0.0470
  735POPI   GL1 9943   8.992  14.170   5.845 -0.0194 -0.0858 -0.0555
  735POPI   GL2 9944   9.253  14.341   5.799 -0.1531  0.0924  0.0532
  735POPI   C1A 9945   8.779  14.097   6.250  0.1999 -0.1718 -0.0497
  735POPI   D2A 9946   8.692  13.977   6.662  0.0825 -0.0580  0.0962
  735POPI   C3A 9947   8.458  14.300   6.969  0.0334  0.2094 -0.0871
  735POPI   C4A 9948   8.424  14.516   7.334 -0.4545 -0.0422 -0.0888
  735POPI   C1B 9949   9.183  14.375   6.299  0.1086 -0.0889  0.2478
  735POPI   C2B 9950   8.910  14.430   6.702 -0.0948  0.0541 -0.0806
  735POPI   C3B 9951   8.882  14.536   7.164  0.0819 -0.1396  0.1271
  735POPI   C4B 9952   8.908  14.397   7.619  0.5960 -0.2267 -0.1667
  736POPI    C1 9953  18.392   4.390   6.075 -0.1242 -0.0427 -0.0463
  736POPI    C2 9954  18.292   4.227   5.723  0.0863  0.0204 -0.1371
  736POPI    C3 9955  18.655   4.162   5.877 -0.0410 -0.0936  0.1211
  736POPI   PO4 9956  18.365   4.629   6.057 -0.0214  0.1939  0.0891
  736POPI   GL1 9957  18.422   4.932   6.397  0.0034 -0.2998  0.0072
  736POPI   GL2 9958  18.133   4.730   6.574  0.1757  0.0052 -0.0101
  736POPI   C1A 9959  18.639   4.768   6.734  0.1086 -0.1065 -0.3732
  736POPI   D2A 9960  18.682   4.763   7.114 -0.0419 -0.1154 -0.4258
  736POPI   C3A 9961  18.345   4.838   7.363 -0.1155 -0.0005 -0.1512
  736POPI   C4A 9962  18.309   4.679   7.680 -0.2350  0.5240  0.3413
  736POPI   C1B 9963  18.135   4.503   6.985 -0.0560  0.0084 -0.0511
  736POPI   C2B 9964  18.090   4.303   7.403  0.0103 -0.1615  0.3035
  736POPI   C3B 9965  18.174   4.240   7.818 -0.1442  0.0796  0.1369
  736POPI   C4B 9966  18.389   4.303   8.262 -0.1649  0.2635 -0.1109
  737POPI    C1 9967   1.782   8.406   6.002 -0.0442 -0.3388 -0.1055
  737POPI    C2 9968   1.657   8.504   5.634  0.2733  0.2114 -0.0771
  737POPI    C3 9969   1.517   8.702   5.953 -0.0137 -0.2745  0.1097
  737POPI   PO4 9970   2.125   8.353   5.849  0.0775 -0.1958 -0.2569
  737POPI   GL1 9971   2.511   8.536   6.194 -0.0729  0.1207 -0.1149
  737POPI   GL2 9972   2.831   8.629   6.210  0.2224 -0.1121 -0.1897
  737POPI   C1A 9973   2.255   8.372   6.485  0.2186 -0.0402  0.2668
  737POPI   D2A 9974   2.182   7.904   6.767  0.0004  0.6382  0.0144
  737POPI   C3A 9975   2.515   7.718   6.980  0.2070  0.1729  0.0033
  737POPI   C4A 9976   2.568   7.584   7.366  0.0254 -0.2421 -0.1529
  737POPI   C1B 9977   2.712   8.612   6.657  0.0088 -0.0304  0.2819
  737POPI   C2B 9978   2.704   8.681   7.083 -0.1170  0.0654 -0.1782
  737POPI   C3B 9979   2.964   8.865   7.446 -0.1347  0.2146  0.0327
  737POPI   C4B 9980   2.844   8.616   7.866 -0.0401 -0.0050 -0.1999
  738POPI    C1 9981   5.388  15.356   5.574 -0.2163 -0.0986  0.0954
  738POPI    C2 9982   5.267  15.239   5.211 -0.2517  0.0093  0.0719
  738POPI    C3 9983   5.222  14.996   5.526 -0.2005 -0.0935  0.0004
  738POPI   PO4 9984   5.518  15.589   5.521  0.0533 -0.1343  0.0896
  738POPI   GL1 9985   5.390  15.869   5.784  0.0367 -0.2053 -0.0484
  738POPI   GL2 9986   5.227  16.135   5.646  0.1568  0.2163  0.1844
  738POPI   C1A 9987   5.228  15.941   6.120 -0.2272 -0.0564  0.4229
  738POPI   D2A 9988   5.129  15.878   6.509 -0.2723  0.1541 -0.0629
  738POPI   C3A 9989   5.427  16.085   6.877 -0.1663 -0.4213  0.0472
  738POPI   C4A 9990   5.664  16.194   7.170  0.0230  0.2447 -0.0314
  738POPI   C1B 9991   5.345  16.380   5.947 -0.0545 -0.0141  0.3439
  738POPI   C2B 9992   5.230  16.395   6.287 -0.1157  0.0175  0.3744
  738POPI   C3B 9993   5.098  16.530   6.775  0.0199 -0.1252  0.3223
  738POPI   C4B 9994   5.241  16.528   7.160 -0.0335  0.2214 -0.3187
  739POPI    C1 9995   7.482  13.218   5.434 -0.1404 -0.1504 -0.0745
  739POPI    C2 9996   7.122  13.094   5.308 -0.1993 -0.0147 -0.0415
  739POPI    C3 9997   7.330  13.358   5.091 -0.1401 -0.0571 -0.0367
  739POPI   PO4 9998   7.635  13.018   5.488  0.1559 -0.0452 -0.0305
  739POPI   GL1 9999   7.591  12.904   5.906  0.2447  0.3600 -0.2487
  739POPI   GL210000   7.832  13.019   6.136  0.1807  0.0386 -0.2315
  739POPI   C1A10001   7.529  12.628   6.187  0.2791  0.1981  0.0117
  739POPI   D2A10002   7.550  12.349   6.438  0.1993  0.0111 -0.1197
  739POPI   C3A10003   7.803  12.117   6.655 -0.1586 -0.0658  0.0313
  739POPI   C4A10004   8.107  12.007   6.980  0.2137  0.0140  0.0396
  739POPI   C1B10005   7.757  12.976   6.500  0.2703  0.0734  0.4054
  739POPI   C2B10006   7.664  12.967   6.862  0.1430  0.1613  0.2433
  739POPI   C3B10007   7.455  13.038   7.187  0.0762  0.0728 -0.2114
  739POPI   C4B10008   7.560  12.986   7.654  0.0773  0.2094 -0.1942
  740POPI    C110009   7.722   5.630   5.402 -0.1305  0.0622 -0.0518
  740POPI    C210010   7.736   5.450   5.045 -0.1710 -0.0675  0.0113
  740POPI    C310011   8.053   5.652   5.180 -0.1275 -0.0859 -0.0632
  740POPI   PO410012   7.740   5.444   5.758  0.2477  0.1983  0.1769
  740POPI   GL110013   7.802   5.340   6.194  0.0261 -0.0864  0.0706
  740POPI   GL210014   8.131   5.204   6.221  0.2408 -0.1066  0.0520
  740POPI   C1A10015   7.694   5.500   6.583 -0.0992  0.2923  0.0547
  740POPI   D2A10016   7.543   5.372   6.959 -0.1771  0.0084  0.0645
  740POPI   C3A10017   7.516   5.662   7.273  0.0789 -0.3334  0.1668
  740POPI   C4A10018   7.768   5.954   7.323 -0.1312 -0.0314 -0.1620
  740POPI   C1B10019   8.254   5.019   6.664  0.2144 -0.2557  0.3364
  740POPI   C2B10020   7.921   5.081   6.987 -0.1714  0.1074  0.2972
  740POPI   C3B10021   8.043   4.957   7.407 -0.0964  0.5818  0.0972
  740POPI   C4B10022   8.017   4.808   7.897 -0.1120  0.1526 -0.3287
  741POPI    C110023   4.837  10.568   5.508  0.1786  0.1904  0.2090
  741POPI    C210024   4.625  10.752   5.223 -0.1337 -0.0211  0.2985
  741POPI    C310025   5.013  10.836   5.270 -0.0691 -0.0055 -0.2072
  741POPI   PO410026   4.598  10.562   5.734 -0.2290 -0.3316 -0.1831
  741POPI   GL110027   4.511  10.892   5.993 -0.0306  0.3441 -0.1988
  741POPI   GL210028   4.190  10.906   6.053  0.3847 -0.1480 -0.1875
  741POPI   C1A10029   4.725  11.001   6.344 -0.2504 -0.0527  0.0001
  741POPI   D2A10030   4.808  11.223   6.789 -0.2701 -0.0013  0.1120
  741POPI   C3A10031   4.787  11.607   6.866  0.0465 -0.1216  0.1805
  741POPI   C4A10032   4.878  12.041   6.672  0.0307 -0.1831  0.0342
  741POPI   C1B10033   4.257  11.180   6.420  0.1612  0.1421 -0.0128
  741POPI   C2B10034   4.256  11.287   6.877  0.1493  0.2353 -0.0469
  741POPI   C3B10035   4.171  11.131   7.262 -0.0268  0.1398 -0.3435
  741POPI   C4B10036   4.022  11.053   7.643  0.0073 -0.1259 -0.0283
  742POPS   CNO10037  14.573   7.042   6.210  0.1398  0.2264 -0.0023
  742POPS   PO410038  15.099   7.171   6.298 -0.0984 -0.3372  0.0396
  742POPS   GL110039  15.008   7.027   6.690 -0.1818  0.5125 -0.0265
  742POPS   GL210040  15.167   6.865   6.917 -0.0223 -0.1339  0.3829
  742POPS   C1A10041  15.003   7.281   7.086 -0.2652  0.0135 -0.2701
  742POPS   D2A10042  15.007   7.255   7.493  0.1376  0.0681 -0.0808
  742POPS   C3A10043  14.716   7.290   7.778 -0.1782 -0.0515  0.0174
  742POPS   C4A10044  14.848   7.332   8.177 -0.2607  0.0632  0.1738
  742POPS   C1B10045  14.986   6.804   7.368 -0.0254 -0.1086 -0.2019
  742POPS   C2B10046  15.013   6.667   7.870  0.1166  0.2179  0.0445
  742POPS   C3B10047  15.357   6.426   8.195 -0.3047  0.0619 -0.3242
  742POPS   C4B10048  15.757   6.484   8.346 -0.3024 -0.1088  0.0772
  743POPS   CNO10049   3.322   2.790   5.943  0.1321  0.1546  0.2541
  743POPS   PO410050   3.752   2.932   5.915  0.1273  0.0169 -0.1911
  743POPS   GL110051   3.697   2.829   6.324  0.3227  0.0537  0.1070
  743POPS   GL210052   3.839   3.070   6.481  0.2104 -0.1386 -0.1459
  743POPS   C1A10053   3.532   2.663   6.805  0.0218  0.0060  0.1659
  743POPS   D2A10054   3.180   2.604   7.127 -0.3629 -0.2290  0.0624
  743POPS   C3A10055   3.254   2.504   7.504 -0.1621  0.2331  0.3255
  743POPS   C4A10056   3.157   2.389   7.955 -0.1611  0.2291 -0.0989
  743POPS   C1B10057   4.054   2.976   6.847 -0.1399 -0.0295  0.1678
  743POPS   C2B10058   4.268   2.973   7.293  0.2850 -0.2380  0.1186
  743POPS   C3B10059   4.503   2.844   7.610  0.1129  0.4855 -0.1017
  743POPS   C4B10060   4.355   2.419   7.810  0.2372  0.0051 -0.3173
  744POPS   CNO10061  12.562  15.370   5.490 -0.1274  0.0045  0.2903
  744POPS   PO410062  12.792  14.996   5.414 -0.1746  0.0487 -0.1404
  744POPS   GL110063  12.938  14.980   5.838  0.1974 -0.1717  0.0229
  744POPS   GL210064  12.747  15.227   5.911 -0.0413 -0.0571 -0.1640
  744POPS   C1A10065  13.141  15.009   6.162  0.0794 -0.3184  0.0510
  744POPS   D2A10066  12.920  15.228   6.522  0.1278  0.1939 -0.1702
  744POPS   C3A10067  12.698  14.989   6.908  0.1009  0.1432  0.3141
  744POPS   C4A10068  12.483  15.106   7.213 -0.1771  0.2510 -0.0618
  744POPS   C1B10069  12.623  15.532   6.256 -0.0622  0.1259  0.2291
  744POPS   C2B10070  12.874  15.820   6.399  0.1888 -0.1162 -0.2212
  744POPS   C3B10071  12.847  15.968   6.796 -0.1632 -0.0939  0.0044
  744POPS   C4B10072  12.901  16.204   7.105 -0.1157  0.2334 -0.0530
  745POPS   CNO10073   0.981  11.134   5.913  0.3776 -0.2190  0.1334
  745POPS   PO410074   1.120  11.292   6.352 -0.0748 -0.0201 -0.2193
  745POPS   GL110075   1.412  11.073   6.546  0.2341 -0.0202 -0.2240
  745POPS   GL210076   1.301  10.788   6.664  0.1262  0.0730  0.0585
  745POPS   C1A10077   1.356  11.112   7.015  0.2050  0.2078  0.0141
  745POPS   D2A10078   1.212  11.287   7.387 -0.1707  0.2704  0.0075
  745POPS   C3A10079   1.483  11.591   7.667 -0.2526 -0.1266 -0.2354
  745POPS   C4A10080   1.859  11.564   7.852 -0.1412 -0.0317 -0.1070
  745POPS   C1B10081   0.989  10.569   7.026 -0.2511 -0.0004 -0.0438
  745POPS   C2B10082   1.065  10.726   7.364 -0.5014 -0.0919  0.1862
  745POPS   C3B10083   0.874  10.774   7.773  0.0771 -0.1719  0.2747
  745POPS   C4B10084   0.730  11.058   8.008  0.0244  0.1794 -0.0818
  746POPS   CNO10085   1.077   4.799   5.800 -0.2128 -0.1054 -0.2805
  746POPS   PO410086   1.081   4.535   6.229  0.2958  0.1847  0.2023
  746POPS   GL110087   1.008   4.478   6.702 -0.1969  0.0078 -0.0436
  746POPS   GL210088   1.298   4.365   6.838  0.0807 -0.3548 -0.1132
  746POPS   C1A10089   1.008   4.375   7.194 -0.1855  0.1218  0.1139
  746POPS   D2A10090   1.002   4.415   7.629  0.2586  0.1779 -0.0899
  746POPS   C3A10091   0.646   4.183   7.609  0.3438  0.0834  0.3579
  746POPS   C4A10092   0.378   4.063   7.296 -0.0573  0.0929 -0.3152
  746POPS   C1B10093   1.501   4.440   7.223 -0.0899  0.0617  0.0448
  746POPS   C2B10094   1.490   4.426   7.689 -0.0027  0.1059 -0.0641
  746POPS   C3B10095   1.262   4.521   8.113 -0.0293  0.1006  0.0736
  746POPS   C4B10096   1.166   4.331   8.475 -0.0143  0.1256  0.0823
  747POPS   CNO10097  12.774   3.990   5.495 -0.1376  0.1100 -0.2065
  747POPS   PO410098  12.544   3.590   5.446 -0.1951 -0.4995 -0.0846
  747POPS   GL110099  12.686   3.583   5.886 -0.1070  0.2137  0.3173
  747POPS   GL210100  12.457   3.543   6.139  0.1753  0.0641  0.0338
  747POPS   C1A10101  12.836   3.351   6.304  0.0813  0.1356 -0.4636
  747POPS   D2A10102  13.036   3.314   6.803 -0.3387  0.2688  0.1761
  747POPS   C3A10103  12.979   3.057   7.143 -0.0489  0.2368 -0.2959
  747POPS   C4A10104  13.139   2.955   7.534 -0.0666  0.0665 -0.0887
  747POPS   C1B10105  12.449   3.459   6.594 -0.0936  0.2478  0.2521
  747POPS   C2B10106  12.505   3.305   6.950 -0.1837  0.1515  0.0537
  747POPS   C3B10107  12.576   3.367   7.385  0.1198 -0.2011 -0.1359
  747POPS   C4B10108  12.458   3.693   7.776 -0.2292 -0.2281 -0.0410
  748POPS   CNO10109  10.516  18.510   4.589 -0.0751  0.1263 -0.0524
  748POPS   PO410110  10.680  18.344   4.969  0.1495 -0.3838 -0.2743
  748POPS   GL110111  10.920  18.177   5.411  0.0580  0.0783  0.2755
  748POPS   GL210112  10.820  18.394   5.739  0.1197  0.1743  0.0384
  748POPS   C1A10113  10.824  17.964   5.874  0.2037  0.4091 -0.1309
  748POPS   D2A10114  10.873  17.909   6.305 -0.0186  0.0521 -0.1047
  748POPS   C3A10115  11.213  18.191   6.422 -0.2540 -0.0709  0.0998
  748POPS   C4A10116  11.514  18.394   6.141 -0.0169 -0.0921  0.0908
  748POPS   C1B10117  10.948  18.433   6.107 -0.2050 -0.0646  0.0169
  748POPS   C2B10118  10.758  18.363   6.437 -0.2224  0.0236 -0.1290
  748POPS   C3B10119  10.803  18.172   6.741 -0.2417  0.2696 -0.1508
  748POPS   C4B10120  11.130  18.012   6.939  0.3000  0.0356 -0.2202
  749POPS   CNO10121  13.062  12.600   5.520 -0.1343  0.0574 -0.2048
  749POPS   PO410122  12.703  12.385   5.629  0.4265 -0.1019 -0.1196
  749POPS   GL110123  12.855  12.637   5.990  0.1466  0.0984 -0.1025
  749POPS   GL210124  12.689  12.833   5.985  0.2498  0.1455 -0.2342
  749POPS   C1A10125  12.667  12.619   6.500 -0.0398 -0.0545  0.2310
  749POPS   D2A10126  12.260  12.569   6.694  0.0553 -0.1545  0.0938
  749POPS   C3A10127  12.369  12.477   7.161  0.0599  0.1043 -0.1878
  749POPS   C4A10128  12.544  12.474   7.581 -0.0269 -0.0590 -0.0968
  749POPS   C1B10129  12.341  12.907   6.231  0.4071 -0.0986  0.0922
  749POPS   C2B10130  12.219  13.064   6.576  0.2261  0.1331 -0.5070
  749POPS   C3B10131  12.123  13.114   7.056  0.2163 -0.2152  0.1136
  749POPS   C4B10132  12.170  13.420   7.367  0.3234  0.0752 -0.2469
  750POPS   CNO10133  11.059   5.739   5.459 -0.0368 -0.0546 -0.2476
  750POPS   PO410134  11.125   5.455   5.918 -0.4892  0.3505 -0.2184
  750POPS   GL110135  11.177   5.788   6.255  0.1584  0.1941  0.0622
  750POPS   GL210136  11.144   6.033   6.389  0.0271 -0.1086 -0.2627
  750POPS   C1A10137  10.936   5.581   6.644 -0.0255  0.0227  0.1704
  750POPS   D2A10138  10.882   5.591   7.161  0.0703 -0.2014  0.0876
  750POPS   C3A10139  11.326   5.690   7.404 -0.1959 -0.1162 -0.0853
  750POPS   C4A10140  11.546   5.596   7.778  0.1001  0.0318 -0.4421
  750POPS   C1B10141  10.924   6.325   6.647 -0.0290 -0.1812 -0.2019
  750POPS   C2B10142  10.962   6.485   7.156  0.1337 -0.1640  0.1187
  750POPS   C3B10143  11.092   6.422   7.572  0.0318 -0.1851 -0.1242
  750POPS   C4B10144  11.333   6.050   7.771 -0.2222  0.3138  0.0204
  751POPS   CNO10145   7.995  18.161   5.275  0.3538  0.1706 -0.0292
  751POPS   PO410146   7.866  18.613   5.139  0.2208 -0.2137 -0.1362
  751POPS   GL110147   7.826  18.722   5.614 -0.0188  0.3234 -0.0569
  751POPS   GL210148   7.905  18.361   5.705 -0.1168 -0.2670  0.1597
  751POPS   C1A10149   7.835  18.873   6.057  0.2458  0.1682  0.3657
  751POPS   D2A10150   8.064  18.821   6.396 -0.2217 -0.1840  0.0115
  751POPS   C3A10151   7.893  18.779   6.769  0.2208 -0.0002 -0.1005
  751POPS   C4A10152   7.831  18.707   7.168 -0.1706  0.0132 -0.1585
  751POPS   C1B10153   8.005  18.369   6.082  0.0009 -0.1804  0.2059
  751POPS   C2B10154   8.048  18.355   6.518 -0.0911 -0.2477 -0.1761
  751POPS   C3B10155   8.045  18.294   6.922  0.0813  0.0699 -0.0453
  751POPS   C4B10156   7.801  18.264   7.322 -0.0406 -0.1486  0.1802
  752POPS   CNO10157  12.893  10.455   5.748 -0.0410  0.2839 -0.1551
  752POPS   PO410158  12.748  10.839   5.896 -0.0366 -0.0438  0.0322
  752POPS   GL110159  12.891  10.901   6.225 -0.2880 -0.1888 -0.1609
  752POPS   GL210160  12.671  10.789   6.443 -0.0468 -0.0466  0.0991
  752POPS   C1A10161  13.292  10.926   6.442  0.3719  0.1689 -0.1243
  752POPS   D2A10162  13.731  11.072   6.564 -0.1610 -0.1308 -0.2360
  752POPS   C3A10163  14.063  11.144   6.946 -0.0655 -0.0051 -0.1981
  752POPS   C4A10164  14.022  11.065   7.309 -0.1900 -0.1343 -0.3043
  752POPS   C1B10165  12.909  10.744   6.712 -0.4349  0.2027  0.0805
  752POPS   C2B10166  13.147  10.937   7.034 -0.0972  0.1886  0.2078
  752POPS   C3B10167  13.000  11.115   7.408  0.0992 -0.1756 -0.4625
  752POPS   C4B10168  12.842  11.264   7.840 -0.0603 -0.0453 -0.1174
  753POPS   CNO10169  15.078   2.167   5.906  0.0059  0.0133  0.2440
  753POPS   PO410170  14.794   1.946   6.053 -0.1204  0.0762  0.0071
  753POPS   GL110171  14.707   2.049   6.523  0.0048  0.2030  0.1409
  753POPS   GL210172  14.389   1.945   6.624  0.0060  0.1785 -0.1080
  753POPS   C1A10173  14.732   1.889   6.943 -0.2879 -0.4206 -0.0416
  753POPS   D2A10174  15.064   1.628   7.165 -0.3301 -0.0337  0.1521
  753POPS   C3A10175  15.310   1.471   7.467 -0.3318  0.1172  0.4658
  753POPS   C4A10176  15.243   1.443   7.919 -0.2736  0.3611  0.0459
  753POPS   C1B10177  14.213   1.940   6.965  0.0593  0.4011 -0.2516
  753POPS   C2B10178  13.938   1.750   7.368 -0.0582 -0.3807 -0.0142
  753POPS   C3B10179  13.927   1.399   7.722 -0.0921 -0.2077 -0.2103
  753POPS   C4B10180  13.776   1.073   8.068  0.3528 -0.3084 -0.0214
  754POPS   CNO10181   2.316   0.248   5.306 -0.2249  0.5775  0.1228
  754POPS   PO410182   2.492  -0.163   5.340  0.0796  0.1828  0.2155
  754POPS   GL110183   2.526  -0.146   5.820  0.2973  0.0311 -0.2642
  754POPS   GL210184   2.246  -0.083   5.939 -0.1004 -0.2160  0.0991
  754POPS   C1A10185   2.657  -0.437   6.009  0.3335  0.1254  0.1263
  754POPS   D2A10186   2.850  -0.800   6.060 -0.0633 -0.1471 -0.1595
  754POPS   C3A10187   2.518  -0.848   6.349 -0.1839 -0.1076 -0.3275
  754POPS   C4A10188   2.229  -0.966   6.765  0.0337 -0.0936 -0.0020
  754POPS   C1B10189   2.139  -0.222   6.312  0.3095  0.1069  0.1616
  754POPS   C2B10190   2.034  -0.536   6.718  0.2353 -0.0428  0.0673
  754POPS   C3B10191   2.124  -0.498   7.175  0.3297  0.1987 -0.3516
  754POPS   C4B10192   2.408  -0.556   7.398 -0.2091  0.0499 -0.1753
  755POPS   CNO10193   8.202  11.159   5.209 -0.2047 -0.0498 -0.3917
  755POPS   PO410194   8.210  10.750   5.472 -0.1378 -0.1798 -0.0424
  755POPS   GL110195   8.266  10.800   5.939  0.0180 -0.2285 -0.1170
  755POPS   GL210196   8.215  11.192   6.086 -0.1026 -0.2587  0.2700
  755POPS   C1A10197   8.152  10.760   6.420  0.1937  0.3393 -0.3495
  755POPS   D2A10198   8.032  10.872   6.885 -0.1066  0.4010  0.1921
  755POPS   C3A10199   7.753  10.674   7.068  0.2901  0.3668 -0.0675
  755POPS   C4A10200   7.690  10.487   7.336 -0.0069 -0.3239 -0.3032
  755POPS   C1B10201   8.272  11.255   6.533  0.1373 -0.1678 -0.0792
  755POPS   C2B10202   8.408  11.203   6.913  0.1359 -0.0648  0.1210
  755POPS   C3B10203   8.612  11.336   7.280  0.1142 -0.1131  0.2052
  755POPS   C4B10204   8.737  11.135   7.616  0.0942 -0.3334 -0.0435
  756POPS   CNO10205   9.214  16.444   5.551  0.0209  0.0399  0.1355
  756POPS   PO410206   9.578  16.519   5.513 -0.1460  0.2518  0.2370
  756POPS   GL110207   9.595  16.623   5.912  0.1994  0.0235 -0.2941
  756POPS   GL210208   9.345  16.455   6.129  0.1313 -0.0579 -0.0353
  756POPS   C1A10209   9.829  16.382   6.353 -0.2907  0.0324 -0.1103
  756POPS   D2A10210  10.202  16.433   6.538 -0.0572  0.2350  0.1478
  756POPS   C3A10211  10.383  16.251   6.896 -0.2772 -0.2918 -0.0591
  756POPS   C4A10212  10.157  16.027   7.230 -0.0341  0.1001  0.2457
  756POPS   C1B10213   9.479  16.912   6.260  0.0206 -0.0941 -0.1395
  756POPS   C2B10214   9.682  16.917   6.629  0.0530  0.0081 -0.4239
  756POPS   C3B10215  10.094  16.850   6.864  0.0189  0.0876 -0.1248
  756POPS   C4B10216  10.595  16.723   7.048  0.0528 -0.1292  0.1255
  757POPS   CNO10217  17.860  14.681   5.949  0.2199 -0.0014  0.0575
  757POPS   PO410218  17.977  15.099   6.069  0.0298  0.1419  0.3591
  757POPS   GL110219  18.107  15.047   6.477 -0.1760 -0.3203  0.0919
  757POPS   GL210220  18.474  15.030   6.543 -0.3731  0.0060  0.1065
  757POPS   C1A10221  18.043  15.145   6.915 -0.1821 -0.1259  0.0450
  757POPS   D2A10222  18.018  14.863   7.334 -0.2261 -0.0577 -0.0876
  757POPS   C3A10223  17.626  14.869   7.674 -0.2060 -0.1972  0.0517
  757POPS   C4A10224  17.276  15.123   7.850 -0.1326  0.0474  0.3008
  757POPS   C1B10225  18.648  14.903   6.925  0.1907  0.0484 -0.1401
  757POPS   C2B10226  18.529  14.815   7.326  0.1051 -0.1902 -0.0409
  757POPS   C3B10227  18.474  14.746   7.672  0.1094 -0.0925  0.3003
  757POPS   C4B10228  18.500  14.525   8.053 -0.1443  0.0812 -0.1236
  758POPS   CNO10229   7.106  18.499   5.462  0.1123 -0.2150 -0.1098
  758POPS   PO410230   6.914  18.890   5.426 -0.2158 -0.0492  0.1533
  758POPS   GL110231   7.065  19.045   5.816  0.1556 -0.1471 -0.0002
  758POPS   GL210232   6.883  19.173   6.008 -0.1883  0.1772  0.0200
  758POPS   C1A10233   7.344  19.052   6.145 -0.2495 -0.0610  0.0074
  758POPS   D2A10234   7.549  19.067   6.403  0.1896  0.0322 -0.2501
  758POPS   C3A10235   7.411  18.941   6.800  0.1234 -0.1765  0.2620
  758POPS   C4A10236   7.240  19.083   7.258  0.0053 -0.1259 -0.5538
  758POPS   C1B10237   7.086  19.250   6.546 -0.0931  0.1410  0.0980
  758POPS   C2B10238   6.911  19.261   6.909 -0.0390  0.2783 -0.0834
  758POPS   C3B10239   6.859  19.508   7.230 -0.0609  0.0330 -0.0396
  758POPS   C4B10240   6.662  19.679   7.638 -0.1014  0.4680 -0.0069
  759POPS   CNO10241   6.731  11.307   5.054 -0.1654 -0.2798 -0.0232
  759POPS   PO410242   6.683  10.986   5.287  0.2564 -0.4268 -0.4906
  759POPS   GL110243   6.800  11.092   5.795 -0.0614 -0.4553  0.2518
  759POPS   GL210244   6.683  11.371   6.016  0.0129 -0.0635 -0.1037
  759POPS   C1A10245   6.731  10.975   6.314  0.0576  0.0498 -0.3949
  759POPS   D2A10246   6.756  10.795   6.693 -0.2233 -0.0809 -0.2125
  759POPS   C3A10247   6.723  10.987   7.117  0.3006 -0.1300 -0.1591
  759POPS   C4A10248   6.659  11.185   7.521 -0.2146  0.0321  0.2569
  759POPS   C1B10249   6.668  11.618   6.456 -0.1761 -0.0586  0.0820
  759POPS   C2B10250   6.941  11.718   6.810  0.1006 -0.2923  0.0400
  759POPS   C3B10251   7.107  11.963   7.179 -0.1767 -0.3159 -0.1734
  759POPS   C4B10252   7.411  12.142   7.454  0.0890 -0.1159 -0.2852
  760POPS   CNO10253   2.920  15.957   5.412  0.0710 -0.0045  0.1548
  760POPS   PO410254   2.936  15.878   5.814  0.2278  0.2475  0.1107
  760POPS   GL110255   2.711  15.962   6.199 -0.1829  0.0690  0.0803
  760POPS   GL210256   2.599  15.751   6.261 -0.4305 -0.3396 -0.0230
  760POPS   C1A10257   2.766  16.258   6.520  0.1278  0.1896 -0.3027
  760POPS   D2A10258   3.122  16.393   6.771 -0.1754 -0.0505 -0.0397
  760POPS   C3A10259   3.288  16.250   7.106  0.2551 -0.5067 -0.4401
  760POPS   C4A10260   3.547  16.435   7.544  0.1394 -0.1931  0.2363
  760POPS   C1B10261   2.612  15.578   6.668  0.2089 -0.3829 -0.2172
  760POPS   C2B10262   2.585  15.596   6.999  0.0948  0.1791  0.3626
  760POPS   C3B10263   2.607  15.683   7.363 -0.2196  0.1724 -0.2876
  760POPS   C4B10264   2.494  16.120   7.619 -0.0543 -0.1505  0.1055
  761POPS   CNO10265   9.139  11.400   5.729 -0.0603 -0.0727 -0.2128
  761POPS   PO410266   8.992  11.859   5.656  0.0900  0.2548  0.3756
  761POPS   GL110267   9.028  11.815   6.063  0.0395  0.1111  0.2817
  761POPS   GL210268   8.758  11.964   6.143 -0.0730  0.3686  0.2154
  761POPS   C1A10269   9.235  11.733   6.355  0.1010 -0.0895  0.1475
  761POPS   D2A10270   9.476  11.475   6.713 -0.0124  0.0647  0.0089
  761POPS   C3A10271   9.573  11.195   7.116  0.1315  0.0703  0.0053
  761POPS   C4A10272   9.781  10.995   7.547  0.0788 -0.0377 -0.0780
  761POPS   C1B10273   8.827  12.001   6.682 -0.1040  0.1202 -0.5290
  761POPS   C2B10274   8.981  12.417   6.825  0.1014 -0.0840 -0.0091
  761POPS   C3B10275   9.364  12.555   7.017 -0.1261 -0.1862 -0.0416
  761POPS   C4B10276   9.525  12.233   7.316 -0.2276 -0.2926  0.0439
  762POPS   CNO10277   6.306   0.434   5.458  0.0982 -0.0603  0.1805
  762POPS   PO410278   6.177   0.055   5.512 -0.0223  0.4245  0.1696
  762POPS   GL110279   6.143  -0.058   5.846 -0.0437  0.1278  0.3712
  762POPS   GL210280   5.911  -0.263   5.834  0.1335 -0.0329 -0.2348
  762POPS   C1A10281   6.407  -0.070   6.298  0.0287 -0.0611  0.0443
  762POPS   D2A10282   6.386  -0.158   6.763  0.4007  0.0718  0.1636
  762POPS   C3A10283   6.474  -0.275   7.192 -0.0906  0.2314 -0.0653
  762POPS   C4A10284   6.344  -0.371   7.629 -0.0470  0.1537  0.0506
  762POPS   C1B10285   6.101  -0.606   6.060 -0.1099  0.1872  0.1565
  762POPS   C2B10286   6.056  -0.539   6.493  0.0799 -0.0161  0.1464
  762POPS   C3B10287   5.897  -0.527   6.932 -0.1218 -0.1499 -0.0495
  762POPS   C4B10288   5.853  -0.443   7.418  0.1879  0.0063  0.1508
  763POPS   CNO10289   3.907  13.999   5.306  0.2352 -0.1234  0.0342
  763POPS   PO410290   4.210  13.631   5.517 -0.0555  0.2195  0.3079
  763POPS   GL110291   4.163  13.441   5.831 -0.2171  0.2320  0.1913
  763POPS   GL210292   4.040  13.170   5.866 -0.0581  0.2318  0.0809
  763POPS   C1A10293   4.376  13.137   6.284  0.2572  0.3179  0.0092
  763POPS   D2A10294   4.219  12.862   6.536 -0.4975 -0.0965  0.0716
  763POPS   C3A10295   4.362  12.679   6.948  0.1904 -0.0859  0.0630
  763POPS   C4A10296   4.468  12.758   7.293  0.3383  0.2818  0.0217
  763POPS   C1B10297   3.824  12.929   6.268  0.2320 -0.0028  0.1860
  763POPS   C2B10298   3.721  12.718   6.669 -0.0100  0.0952 -0.1881
  763POPS   C3B10299   3.860  12.711   7.041  0.0702  0.3954  0.0620
  763POPS   C4B10300   3.685  12.715   7.354 -0.0801  0.0793  0.1297
  764POPS   CNO10301  16.562   1.495   6.046  0.1370  0.0765  0.0549
  764POPS   PO410302  16.400   1.613   6.477  0.4140  0.0110  0.1181
  764POPS   GL110303  16.351   1.692   6.849 -0.2807 -0.1166  0.0323
  764POPS   GL210304  16.234   2.055   6.818  0.1417 -0.1002  0.3844
  764POPS   C1A10305  16.204   1.778   7.281 -0.1874 -0.0389 -0.2985
  764POPS   D2A10306  16.067   2.036   7.597 -0.0967 -0.2536 -0.4582
  764POPS   C3A10307  15.808   1.743   7.860  0.0724  0.2992 -0.2120
  764POPS   C4A10308  15.804   1.338   8.011  0.0044 -0.0249 -0.0731
  764POPS   C1B10309  16.046   2.355   7.113  0.0424  0.2771 -0.0037
  764POPS   C2B10310  15.949   2.502   7.572  0.0030 -0.1750 -0.0132
  764POPS   C3B10311  15.686   2.332   7.932  0.1114  0.3732 -0.1199
  764POPS   C4B10312  15.742   2.079   8.242  0.2437 -0.1214 -0.0994
  765POPS   CNO10313   0.023   0.712   6.260  0.0397 -0.3097  0.0755
  765POPS   PO410314   0.342   0.372   6.255 -0.0242 -0.0336  0.0676
  765POPS   GL110315   0.131   0.228   6.618 -0.0711  0.2709  0.0248
  765POPS   GL210316  -0.171   0.279   6.603 -0.0404  0.3983  0.1796
  765POPS   C1A10317   0.289  -0.090   6.719 -0.1600 -0.0013 -0.3687
  765POPS   D2A10318   0.632  -0.311   6.829  0.1135 -0.0654  0.2176
  765POPS   C3A10319   0.701  -0.488   7.286  0.1501  0.0573  0.1103
  765POPS   C4A10320   0.852  -0.421   7.757  0.1567 -0.1657 -0.0931
  765POPS   C1B10321  -0.411   0.370   6.865  0.1534  0.1575  0.2974
  765POPS   C2B10322  -0.530   0.433   7.254  0.2139  0.6243  0.1606
  765POPS   C3B10323  -0.721   0.498   7.623  0.0463 -0.2894 -0.2224
  765POPS   C4B10324  -0.884   0.486   8.105  0.0086  0.0326 -0.0758
  766POPS   CNO10325  18.343   0.618   5.521  0.2923 -0.0689  0.0787
  766POPS   PO410326  18.228   0.463   5.946  0.1176 -0.0646  0.2227
  766POPS   GL110327  18.028   0.477   6.380  0.3462 -0.0167 -0.2867
  766POPS   GL210328  17.945   0.872   6.659  0.3519  0.0214 -0.0602
  766POPS   C1A10329  17.680   0.415   6.698 -0.0551 -0.0252  0.2372
  766POPS   D2A10330  17.514   0.318   7.072  0.1901  0.1018  0.2844
  766POPS   C3A10331  17.193   0.453   7.229 -0.2820  0.0119  0.0723
  766POPS   C4A10332  17.017   0.776   7.260  0.3013 -0.0900  0.0277
  766POPS   C1B10333  18.057   0.912   7.127  0.1229  0.0173  0.2631
  766POPS   C2B10334  18.221   0.820   7.482  0.1096 -0.3362 -0.3002
  766POPS   C3B10335  18.264   0.618   7.841  0.0357 -0.1482 -0.1956
  766POPS   C4B10336  18.230   0.558   8.233  0.1643  0.0384 -0.3013
  767POPS   CNO10337  11.312  13.172   4.805 -0.2510  0.0854 -0.0211
  767POPS   PO410338  11.285  13.360   5.115 -0.0896 -0.1353 -0.2605
  767POPS   GL110339  11.278  13.527   5.600 -0.1530  0.2044  0.0828
  767POPS   GL210340  11.115  13.278   5.609  0.0780 -0.1829 -0.0604
  767POPS   C1A10341  11.509  13.817   5.780 -0.1719  0.1906 -0.0379
  767POPS   D2A10342  11.952  13.731   5.963  0.1730  0.0256  0.1950
  767POPS   C3A10343  12.144  13.956   6.162  0.0636  0.0900  0.0300
  767POPS   C4A10344  12.491  14.209   6.222  0.2454 -0.0151 -0.3037
  767POPS   C1B10345  11.015  13.245   6.072  0.0450 -0.1237 -0.0487
  767POPS   C2B10346  11.095  13.367   6.512  0.0154 -0.0856  0.0393
  767POPS   C3B10347  11.079  13.499   6.980 -0.1882  0.0085  0.0994
  767POPS   C4B10348  11.221  13.726   7.313 -0.0723 -0.0190 -0.2502
  768POPS   CNO10349   9.629   4.333   5.825 -0.4066  0.0231  0.0012
  768POPS   PO410350  10.040   4.205   5.628 -0.4446 -0.2785 -0.1554
  768POPS   GL110351  10.082   4.038   5.954 -0.1368  0.1842 -0.2597
  768POPS   GL210352  10.123   3.775   5.933 -0.4301 -0.0587  0.2573
  768POPS   C1A10353  10.022   3.985   6.355 -0.1409  0.1548  0.2668
  768POPS   D2A10354  10.221   3.904   6.755  0.0270  0.0364 -0.0952
  768POPS   C3A10355  10.553   3.662   7.005  0.0830  0.1206 -0.0200
  768POPS   C4A10356  10.668   3.627   7.394 -0.4825  0.0065 -0.1711
  768POPS   C1B10357  10.317   3.537   6.339  0.0157  0.2167 -0.2293
  768POPS   C2B10358  10.287   3.325   6.747 -0.1125 -0.1636  0.3145
  768POPS   C3B10359  10.169   3.324   7.146 -0.0256 -0.0102 -0.0628
  768POPS   C4B10360  10.114   3.648   7.280  0.2530 -0.0642  0.1405
  769POPS   CNO10361  18.315   3.781   6.325 -0.2907 -0.0489  0.0784
  769POPS   PO410362  18.791   3.994   6.282  0.2512 -0.4462  0.1931
  769POPS   GL110363  18.612   4.288   6.520  0.0144 -0.2534 -0.0278
  769POPS   GL210364  18.261   4.155   6.639  0.1115 -0.0557  0.2077
  769POPS   C1A10365  18.624   4.318   6.898  0.3966  0.1116 -0.1706
  769POPS   D2A10366  18.574   4.344   7.332  0.2432 -0.3876  0.2114
  769POPS   C3A10367  18.669   4.233   7.702  0.2076  0.0372  0.1992
  769POPS   C4A10368  18.860   4.084   8.089  0.1123 -0.2039 -0.0518
  769POPS   C1B10369  18.360   3.849   6.982 -0.3797 -0.2707  0.4281
  769POPS   C2B10370  18.384   3.899   7.463 -0.0159  0.0487 -0.0290
  769POPS   C3B10371  18.762   3.688   7.607  0.2929  0.2677 -0.0321
  769POPS   C4B10372  19.172   3.687   7.831  0.2167  0.2358 -0.0381
  770POPS   CNO10373  18.459   5.613   5.585 -0.3871  0.1534 -0.1204
  770POPS   PO410374  18.518   5.522   6.033  0.2792  0.3357 -0.1360
  770POPS   GL110375  18.436   5.439   6.387 -0.0017 -0.1071 -0.0650
  770POPS   GL210376  18.175   5.280   6.554  0.1948 -0.1393  0.2382
  770POPS   C1A10377  18.638   5.311   6.718 -0.2147 -0.4387  0.1934
  770POPS   D2A10378  18.420   5.203   7.047 -0.2227 -0.1608 -0.1981
  770POPS   C3A10379  18.238   5.302   7.395  0.2901 -0.3346  0.0211
  770POPS   C4A10380  18.294   5.549   7.677 -0.3018  0.1795  0.1803
  770POPS   C1B10381  18.075   5.549   6.844  0.0168  0.2122 -0.0980
  770POPS   C2B10382  18.196   5.784   7.189  0.0877  0.3798  0.1317
  770POPS   C3B10383  18.229   6.006   7.540  0.1540  0.2419  0.0089
  770POPS   C4B10384  18.116   6.034   7.915 -0.0538  0.1650 -0.0202
  771POPS   CNO10385  10.995   9.308   6.100 -0.0744 -0.0312  0.0685
  771POPS   PO410386  10.724   9.123   5.888  0.1609 -0.0108  0.0026
  771POPS   GL110387  10.699   8.966   6.346  0.3333 -0.0272  0.3028
  771POPS   GL210388  10.761   8.670   6.422 -0.0381 -0.0750 -0.1612
  771POPS   C1A10389  10.638   8.964   6.840 -0.1831 -0.0381 -0.1583
  771POPS   D2A10390  10.462   9.056   7.305 -0.1151 -0.0282  0.0803
  771POPS   C3A10391  10.756   9.091   7.630  0.0394 -0.3894  0.0668
  771POPS   C4A10392  10.662   9.265   7.934 -0.0065  0.2241  0.0922
  771POPS   C1B10393  10.652   8.466   6.842 -0.3265  0.0872  0.1650
  771POPS   C2B10394  10.553   8.587   7.206 -0.3523  0.2614 -0.1079
  771POPS   C3B10395  10.586   8.574   7.723  0.0804  0.1268 -0.0965
  771POPS   C4B10396  10.349   8.803   8.096 -0.0766 -0.0726 -0.0763
  772POPS   CNO10397   0.896   3.243   6.048  0.0817 -0.1380  0.0734
  772POPS   PO410398   0.570   3.186   6.299  0.0722  0.2145 -0.0481
  772POPS   GL110399   0.399   3.139   6.717 -0.2472  0.0925 -0.0616
  772POPS   GL210400   0.147   3.102   6.798 -0.1426  0.2546 -0.2665
  772POPS   C1A10401   0.438   3.028   7.225  0.0057  0.0284 -0.2143
  772POPS   D2A10402   0.235   3.129   7.514  0.0464  0.0429 -0.3408
  772POPS   C3A10403   0.340   3.194   7.851  0.0866  0.0848  0.0256
  772POPS   C4A10404   0.364   3.128   8.302  0.1147  0.2038 -0.0459
  772POPS   C1B10405  -0.013   2.835   7.124  0.1016 -0.1707  0.1474
  772POPS   C2B10406  -0.313   2.945   7.436 -0.0432  0.2551 -0.0163
  772POPS   C3B10407  -0.550   2.982   7.851  0.1235 -0.2678 -0.1569
  772POPS   C4B10408  -0.613   2.959   8.295  0.0460  0.2225  0.1002
  773POPS   CNO10409   5.795   5.087   5.422 -0.0785 -0.1456 -0.0383
  773POPS   PO410410   5.531   4.633   5.710 -0.0967 -0.1260 -0.1577
  773POPS   GL110411   5.636   4.502   6.164 -0.0039 -0.3848 -0.0927
  773POPS   GL210412   5.233   4.611   6.335 -0.0710 -0.0665  0.0060
  773POPS   C1A10413   5.971   4.695   6.469  0.0581 -0.1124  0.1597
  773POPS   D2A10414   6.107   4.944   6.834  0.2734 -0.0812 -0.2181
  773POPS   C3A10415   5.945   4.668   7.120  0.0997  0.1330  0.1205
  773POPS   C4A10416   5.808   4.521   7.612  0.0653  0.2361 -0.3424
  773POPS   C1B10417   5.488   4.557   6.650  0.3052 -0.2096 -0.0454
  773POPS   C2B10418   5.457   4.514   7.144  0.1455 -0.2519  0.1977
  773POPS   C3B10419   5.272   4.576   7.529 -0.1340 -0.0282  0.1849
  773POPS   C4B10420   5.212   4.978   7.696 -0.1599 -0.2372 -0.1423
  774POPS   CNO10421  13.391   7.652   5.720  0.0108  0.1047 -0.0418
  774POPS   PO410422  13.040   7.784   6.056 -0.0155  0.1299  0.2375
  774POPS   GL110423  13.049   7.951   6.564 -0.1452 -0.1703  0.1098
  774POPS   GL210424  13.271   8.185   6.665 -0.2012  0.1363 -0.3615
  774POPS   C1A10425  12.957   7.895   6.961 -0.2176 -0.1935 -0.4473
  774POPS   D2A10426  13.080   7.614   7.250 -0.0776 -0.1684  0.2534
  774POPS   C3A10427  12.950   7.631   7.714  0.2849 -0.0141  0.1751
  774POPS   C4A10428  13.020   7.588   8.139 -0.1280 -0.2710 -0.2381
  774POPS   C1B10429  12.928   8.410   6.800 -0.1405 -0.0218  0.1219
  774POPS   C2B10430  12.784   8.443   7.207  0.0015  0.2075 -0.0140
  774POPS   C3B10431  12.602   8.523   7.650 -0.1025  0.2024 -0.0485
  774POPS   C4B10432  12.600   8.669   8.038 -0.0011  0.0677 -0.0750
  775POPS   CNO10433  10.978   7.423   5.474 -0.4422 -0.3010 -0.2300
  775POPS   PO410434  10.700   7.514   5.657  0.0349  0.0220 -0.1658
  775POPS   GL110435  10.539   7.565   6.049 -0.1884  0.0819 -0.0474
  775POPS   GL210436  10.819   7.501   6.208  0.0707 -0.0941  0.1705
  775POPS   C1A10437  10.210   7.212   6.251 -0.0421  0.1859  0.0739
  775POPS   D2A10438  10.068   6.805   6.378 -0.0980 -0.1598 -0.1149
  775POPS   C3A10439   9.860   6.748   6.823  0.3068 -0.1772 -0.0522
  775POPS   C4A10440   9.945   6.702   7.257  0.0355 -0.1865  0.2557
  775POPS   C1B10441  10.745   7.300   6.642  0.0967  0.2317  0.0243
  775POPS   C2B10442  10.652   7.315   7.092 -0.0480  0.2129  0.0177
  775POPS   C3B10443  10.554   7.354   7.643  0.0330 -0.0772  0.0805
  775POPS   C4B10444  10.374   7.698   7.961 -0.0171 -0.0156 -0.2200
  776POPS   CNO10445   2.656   2.827   5.957 -0.1317  0.1470 -0.0413
  776POPS   PO410446   2.305   2.775   5.913 -0.3842  0.0477 -0.5536
  776POPS   GL110447   2.096   2.623   6.332 -0.0639  0.0025 -0.2107
  776POPS   GL210448   1.779   2.421   6.259 -0.1947  0.0226  0.3033
  776POPS   C1A10449   1.973   2.458   6.777  0.4643  0.1498  0.1972
  776POPS   D2A10450   1.857   2.261   7.183  0.1498  0.4866 -0.0228
  776POPS   C3A10451   1.485   2.414   7.450 -0.0237  0.2129  0.3313
  776POPS   C4A10452   1.546   2.368   7.879  0.2690 -0.3250 -0.1936
  776POPS   C1B10453   1.561   2.270   6.535  0.5700  0.1841  0.0963
  776POPS   C2B10454   1.392   2.091   6.814  0.1145 -0.0150 -0.0645
  776POPS   C3B10455   1.432   1.949   7.209 -0.0492 -0.2243  0.0208
  776POPS   C4B10456   1.687   1.957   7.551  0.0623 -0.2309 -0.2187
  777POPS   CNO10457   8.436   7.129   5.681  0.2010  0.1838  0.0575
  777POPS   PO410458   8.155   6.994   5.989 -0.1235  0.5942 -0.1492
  777POPS   GL110459   8.157   6.623   6.317 -0.1490  0.1157  0.1039
  777POPS   GL210460   8.347   6.417   6.466  0.0346  0.1735 -0.2634
  777POPS   C1A10461   7.963   6.732   6.676 -0.1086  0.2445  0.0089
  777POPS   D2A10462   8.144   6.855   7.101  0.2803 -0.4093  0.0417
  777POPS   C3A10463   8.020   6.841   7.428  0.2413 -0.0236  0.0986
  777POPS   C4A10464   8.051   7.174   7.711 -0.1530  0.0195 -0.2128
  777POPS   C1B10465   8.422   6.437   6.856  0.0357  0.2666 -0.0686
  777POPS   C2B10466   8.461   6.486   7.256 -0.0149 -0.0368 -0.0480
  777POPS   C3B10467   8.563   6.463   7.628 -0.0489  0.0535 -0.0547
  777POPS   C4B10468   8.348   6.824   7.987  0.0015 -0.0486  0.1426
  778POPS   CNO10469   4.364  16.528   5.407  0.1879  0.1824 -0.2486
  778POPS   PO410470   4.779  16.488   5.356  0.0717 -0.0120 -0.1841
  778POPS   GL110471   4.812  16.853   5.408  0.1043  0.0746  0.0488
  778POPS   GL210472   4.589  17.062   5.281  0.0246 -0.0157  0.0489
  778POPS   C1A10473   4.777  17.087   5.873 -0.2045 -0.1106 -0.2101
  778POPS   D2A10474   4.724  17.266   6.327  0.0188  0.0456 -0.2292
  778POPS   C3A10475   4.815  16.975   6.695  0.3114 -0.2229  0.1065
  778POPS   C4A10476   4.813  16.785   7.107 -0.0693 -0.0050 -0.0552
  778POPS   C1B10477   4.306  16.954   5.657  0.1139 -0.1583  0.2975
  778POPS   C2B10478   4.278  16.965   6.119 -0.0516 -0.1805 -0.2804
  778POPS   C3B10479   3.832  16.932   6.306  0.3529  0.3617  0.0527
  778POPS   C4B10480   3.387  17.111   6.207  0.3324  0.0317 -0.2611
  779POPS   CNO10481  11.333   7.791   5.411 -0.1874 -0.2453  0.0435
  779POPS   PO410482  11.580   7.790   5.752 -0.0841 -0.0005  0.0912
  779POPS   GL110483  11.514   7.824   6.099 -0.1176 -0.1143 -0.3680
  779POPS   GL210484  11.576   8.134   6.228  0.2904  0.1271  0.1508
  779POPS   C1A10485  11.176   7.710   6.416  0.0426 -0.0231 -0.0700
  779POPS   D2A10486  11.243   7.373   6.572  0.1314 -0.0650 -0.0684
  779POPS   C3A10487  11.147   7.430   6.971  0.0349 -0.2925 -0.0587
  779POPS   C4A10488  11.116   7.428   7.440  0.1428 -0.0105 -0.2557
  779POPS   C1B10489  11.367   8.110   6.668  0.0546 -0.4953 -0.0679
  779POPS   C2B10490  11.441   8.002   6.999  0.1156  0.1340 -0.0512
  779POPS   C3B10491  11.298   7.871   7.440  0.1990  0.1482  0.1539
  779POPS   C4B10492  11.149   7.799   7.869 -0.0542 -0.1062 -0.0171
  780POPS   CNO10493   4.458   1.487   5.527 -0.0468  0.3192 -0.1656
  780POPS   PO410494   4.353   1.373   5.862 -0.1403  0.0294  0.2040
  780POPS   GL110495   4.592   1.213   6.156 -0.0899  0.0110 -0.0761
  780POPS   GL210496   4.498   1.576   6.281 -0.2175 -0.0793  0.0161
  780POPS   C1A10497   4.434   1.085   6.557 -0.1353  0.1183  0.0547
  780POPS   D2A10498   4.470   1.015   7.011 -0.0351  0.2614  0.0245
  780POPS   C3A10499   4.662   0.640   7.256 -0.3212  0.3274 -0.0352
  780POPS   C4A10500   4.572   0.235   7.416 -0.3720  0.0340 -0.0509
  780POPS   C1B10501   4.435   1.613   6.782  0.0547  0.2124  0.1721
  780POPS   C2B10502   4.186   1.373   7.117  0.0557 -0.0100  0.0827
  780POPS   C3B10503   3.765   1.537   7.343  0.1367 -0.2602 -0.2668
  780POPS   C4B10504   3.484   1.316   7.443  0.0416 -0.0089 -0.2892
  781POPS   CNO10505   0.149   1.358   6.173 -0.2319 -0.0061 -0.3249
  781POPS   PO410506   0.520   1.008   5.984 -0.3724  0.3002 -0.2156
  781POPS   GL110507   0.484   0.974   6.388 -0.1730  0.1725 -0.1469
  781POPS   GL210508   0.418   1.264   6.593 -0.1270  0.3258  0.0828
  781POPS   C1A10509   0.537   0.765   6.712 -0.3955 -0.0810  0.0714
  781POPS   D2A10510   0.659   0.541   7.080  0.1870 -0.1134 -0.1975
  781POPS   C3A10511   0.676   0.674   7.529  0.1940  0.4535 -0.0400
  781POPS   C4A10512   0.832   0.906   7.812 -0.2378 -0.0546  0.0620
  781POPS   C1B10513   0.376   1.099   7.089  0.1041  0.2230  0.0669
  781POPS   C2B10514   0.417   1.066   7.496  0.0719  0.3610 -0.0476
  781POPS   C3B10515   0.347   0.793   7.831  0.3334  0.1031  0.2327
  781POPS   C4B10516   0.108   0.464   8.135 -0.1260 -0.2075 -0.0879
  782POPS   CNO10517   8.113  13.749   5.217  0.0307 -0.0213  0.1060
  782POPS   PO410518   8.135  13.837   5.689 -0.0548 -0.1449 -0.1322
  782POPS   GL110519   8.477  13.721   5.998  0.3698 -0.0426 -0.1139
  782POPS   GL210520   8.708  13.688   5.918 -0.0745 -0.1040  0.2981
  782POPS   C1A10521   8.397  13.603   6.426 -0.2576 -0.1971 -0.5823
  782POPS   D2A10522   8.617  13.457   6.805  0.1307 -0.4119 -0.0236
  782POPS   C3A10523   8.949  13.370   7.095 -0.2238 -0.1054 -0.1522
  782POPS   C4A10524   9.246  13.408   7.419 -0.3080  0.0090 -0.1023
  782POPS   C1B10525   8.854  13.631   6.319  0.3053 -0.1661  0.0750
  782POPS   C2B10526   9.090  13.517   6.581  0.0766 -0.2737 -0.0098
  782POPS   C3B10527   9.320  13.239   6.821  0.0135 -0.1023 -0.3889
  782POPS   C4B10528   9.509  13.068   7.220 -0.2525 -0.1590 -0.0266
  783POPS   CNO10529  16.502   9.284   5.819 -0.0784 -0.1142 -0.3070
  783POPS   PO410530  16.896   9.504   5.760  0.0866 -0.2375 -0.0391
  783POPS   GL110531  16.797   9.596   6.151  0.2073  0.1092 -0.1797
  783POPS   GL210532  16.772   9.391   6.345  0.0484  0.1071  0.0765
  783POPS   C1A10533  16.685   9.933   6.547 -0.0929 -0.3227 -0.3975
  783POPS   D2A10534  17.066  10.028   6.947  0.3985  0.0114  0.3237
  783POPS   C3A10535  16.954  10.251   7.176 -0.0706 -0.4016 -0.1566
  783POPS   C4A10536  16.827  10.519   7.274  0.2494 -0.0102  0.0441
  783POPS   C1B10537  16.711   9.481   6.812  0.0007 -0.3213  0.1105
  783POPS   C2B10538  16.643   9.368   7.233  0.1647 -0.1867 -0.3052
  783POPS   C3B10539  16.748   9.539   7.628  0.1264 -0.0220 -0.0248
  783POPS   C4B10540  17.134   9.538   7.734  0.1415 -0.0975 -0.2692
  784POPS   CNO10541   4.754   4.703   6.103 -0.2209  0.0357  0.1693
  784POPS   PO410542   5.120   4.918   6.002  0.1298  0.1121  0.0287
  784POPS   GL110543   5.089   5.032   6.462  0.1650  0.0127 -0.2673
  784POPS   GL210544   5.155   5.410   6.397  0.0476 -0.3180  0.3318
  784POPS   C1A10545   4.961   5.204   6.826 -0.0983 -0.1419 -0.2918
  784POPS   D2A10546   5.090   5.364   7.208  0.2470 -0.1727  0.1350
  784POPS   C3A10547   4.869   5.390   7.538 -0.1852  0.1413 -0.0549
  784POPS   C4A10548   4.706   5.150   7.877  0.0970  0.1258 -0.0101
  784POPS   C1B10549   5.389   5.609   6.848  0.2363  0.3359 -0.0244
  784POPS   C2B10550   5.524   5.651   7.128 -0.1175  0.4825 -0.1619
  784POPS   C3B10551   5.562   5.922   7.405  0.1482  0.3128 -0.0128
  784POPS   C4B10552   5.761   5.963   7.793  0.2892  0.0723  0.0189
  785POPS   CNO10553   3.231  11.025   5.507 -0.2569 -0.1575  0.0691
  785POPS   PO410554   2.873  11.023   5.702  0.2837  0.2218  0.0749
  785POPS   GL110555   2.607  10.987   6.011  0.2057 -0.0648  0.0546
  785POPS   GL210556   2.727  11.344   6.158  0.2709 -0.2852 -0.1461
  785POPS   C1A10557   2.357  11.000   6.412 -0.0810  0.0158 -0.0312
  785POPS   D2A10558   2.220  10.758   6.793 -0.1646  0.1106 -0.0154
  785POPS   C3A10559   2.447  10.947   7.078 -0.2544  0.0229  0.1733
  785POPS   C4A10560   2.805  11.184   7.014  0.0624  0.0466  0.0029
  785POPS   C1B10561   3.040  11.455   6.381 -0.3607  0.1761  0.1101
  785POPS   C2B10562   3.186  11.392   6.764 -0.0969  0.2707  0.3572
  785POPS   C3B10563   3.221  11.486   7.189 -0.1756 -0.3683  0.0229
  785POPS   C4B10564   3.417  11.620   7.619 -0.1135  0.1888 -0.2751
  786POPS   CNO10565   5.072  10.908   5.899 -0.1638 -0.1665  0.0458
  786POPS   PO410566   5.355  10.761   5.732  0.1923  0.0961 -0.1755
  786POPS   GL110567   5.440  10.642   6.143  0.1589  0.0557 -0.1665
  786POPS   GL210568   4.975  10.588   6.374 -0.0536 -0.0706 -0.3387
  786POPS   C1A10569   5.543  10.888   6.475 -0.0922  0.0353 -0.2465
  786POPS   D2A10570   5.598  10.973   6.998 -0.2887 -0.0290 -0.3101
  786POPS   C3A10571   5.720  11.238   7.288  0.1241  0.0201 -0.1900
  786POPS   C4A10572   5.626  11.505   7.567 -0.2626  0.1007 -0.2816
  786POPS   C1B10573   5.113  10.774   6.736 -0.0016 -0.1992  0.1269
  786POPS   C2B10574   5.024  10.918   7.137  0.3443  0.0762 -0.2265
  786POPS   C3B10575   4.958  10.969   7.558 -0.1771  0.1073  0.1439
  786POPS   C4B10576   4.972  10.980   7.983 -0.1493  0.2399  0.0141
  787POPS   CNO10577  16.355   8.278   5.837 -0.0622 -0.0249  0.1804
  787POPS   PO410578  16.009   8.364   6.153 -0.1871  0.0356 -0.1550
  787POPS   GL110579  16.045   8.620   6.507 -0.1616 -0.2818  0.0722
  787POPS   GL210580  16.036   8.440   6.726 -0.1571  0.3436  0.1309
  787POPS   C1A10581  15.824   8.903   6.851 -0.0792  0.0799 -0.0926
  787POPS   D2A10582  15.428   9.310   6.898  0.0827 -0.3406 -0.0221
  787POPS   C3A10583  15.501   9.828   7.078  0.0206  0.0692  0.2230
  787POPS   C4A10584  15.540  10.125   7.418  0.0412  0.3432  0.0875
  787POPS   C1B10585  15.620   8.441   7.068 -0.1437  0.0116 -0.1974
  787POPS   C2B10586  15.245   8.639   7.175 -0.4065  0.0422 -0.2121
  787POPS   C3B10587  14.880   8.560   7.425 -0.1201 -0.0312  0.3790
  787POPS   C4B10588  14.557   8.514   7.742  0.1860 -0.0404 -0.0109
  788POPS   CNO10589  17.939   4.292   6.287 -0.0598  0.0295 -0.0738
  788POPS   PO410590  17.512   4.046   6.284 -0.0237 -0.0953 -0.2098
  788POPS   GL110591  17.812   3.882   6.529  0.1770 -0.1414 -0.2197
  788POPS   GL210592  17.706   3.649   6.587  0.0613  0.1217 -0.0123
  788POPS   C1A10593  17.804   4.011   6.899  0.3565 -0.0272  0.2705
  788POPS   D2A10594  17.677   4.347   7.169 -0.1020 -0.0964 -0.1450
  788POPS   C3A10595  17.628   4.321   7.715  0.2845 -0.2738  0.4239
  788POPS   C4A10596  17.468   4.500   8.037  0.0910  0.0710  0.0984
  788POPS   C1B10597  17.489   3.449   6.967 -0.0518 -0.3912  0.3070
  788POPS   C2B10598  17.673   3.247   7.323 -0.0977 -0.0689  0.0139
  788POPS   C3B10599  17.723   3.416   7.715 -0.1537 -0.0044 -0.0338
  788POPS   C4B10600  17.562   3.654   8.033 -0.3058  0.2649 -0.0315
  789POPS   CNO10601  10.561   0.233   5.915 -0.1460 -0.1433 -0.4196
  789POPS   PO410602  10.139   0.321   5.680  0.0311  0.1217  0.2579
  789POPS   GL110603   9.851   0.180   6.010  0.4302 -0.1630  0.0841
  789POPS   GL210604   9.856   0.449   6.203 -0.0665 -0.3286 -0.1152
  789POPS   C1A10605   9.437   0.153   6.228 -0.0802 -0.0108 -0.0952
  789POPS   D2A10606   9.230   0.090   6.621 -0.2600 -0.4916  0.0573
  789POPS   C3A10607   9.374   0.072   7.051  0.1832 -0.0354 -0.0644
  789POPS   C4A10608   9.689   0.056   7.409 -0.3878 -0.2045  0.2668
  789POPS   C1B10609  10.130   0.643   6.308 -0.2937 -0.0019 -0.3131
  789POPS   C2B10610  10.237   0.767   6.739  0.3566 -0.3736  0.0111
  789POPS   C3B10611  10.280   0.774   7.170 -0.0150  0.2647  0.1486
  789POPS   C4B10612  10.554   0.741   7.460 -0.2700  0.0081 -0.2966
  790POPS   CNO10613  18.260   1.533   6.209  0.0522  0.1205  0.3543
  790POPS   PO410614  17.860   1.307   6.243 -0.3261  0.3794 -0.2678
  790POPS   GL110615  17.917   1.385   6.646  0.2066 -0.0490  0.1562
  790POPS   GL210616  17.564   1.458   6.702  0.0654 -0.0543 -0.0812
  790POPS   C1A10617  18.230   1.436   6.961 -0.0626 -0.3561  0.3249
  790POPS   D2A10618  18.482   1.213   7.270  0.2997  0.3740  0.0324
  790POPS   C3A10619  18.440   1.171   7.697  0.0353 -0.1515  0.2631
  790POPS   C4A10620  18.666   1.242   8.026 -0.0668 -0.0594 -0.0613
  790POPS   C1B10621  17.669   1.460   7.130  0.3725 -0.0852  0.0654
  790POPS   C2B10622  17.413   1.423   7.536 -0.2727 -0.0342 -0.1373
  790POPS   C3B10623  17.455   1.737   7.879 -0.3743 -0.2604 -0.1501
  790POPS   C4B10624  17.607   1.927   8.285  0.1156  0.0308  0.0373
  791POPS   CNO10625   6.310  12.712   5.234 -0.2839 -0.1525  0.0670
  791POPS   PO410626   6.163  13.087   4.951  0.2124 -0.1649  0.1842
  791POPS   GL110627   6.086  13.184   5.348  0.1197 -0.1368  0.1034
  791POPS   GL210628   5.800  13.097   5.604  0.1997  0.0376 -0.3686
  791POPS   C1A10629   6.003  13.513   5.675 -0.0475 -0.1476  0.1339
  791POPS   D2A10630   6.061  13.831   5.948  0.0286  0.1603 -0.1999
  791POPS   C3A10631   5.953  13.903   6.445  0.0162  0.1847 -0.1490
  791POPS   C4A10632   6.174  14.161   6.876 -0.1701 -0.4475  0.0180
  791POPS   C1B10633   5.536  13.371   5.841 -0.3645 -0.0209  0.1344
  791POPS   C2B10634   5.655  13.617   6.142  0.2635 -0.0394  0.2618
  791POPS   C3B10635   5.542  13.613   6.565 -0.0038 -0.1385  0.3913
  791POPS   C4B10636   5.670  13.654   6.973  0.2218  0.2455  0.1716
  792POPS   CNO10637  14.074  12.589   5.681  0.0126  0.1241  0.0409
  792POPS   PO410638  13.919  12.767   5.948  0.0746  0.0100 -0.1069
  792POPS   GL110639  13.787  12.686   6.321 -0.0932  0.1381 -0.1104
  792POPS   GL210640  13.964  12.423   6.381  0.0216 -0.0958  0.3502
  792POPS   C1A10641  13.691  12.845   6.729  0.1468  0.4844 -0.1855
  792POPS   D2A10642  13.499  12.813   7.200 -0.0014 -0.1117  0.1915
  792POPS   C3A10643  13.477  12.965   7.541  0.1294 -0.0813  0.0244
  792POPS   C4A10644  13.511  12.868   7.987 -0.1959 -0.1078 -0.2833
  792POPS   C1B10645  14.091  12.535   6.878  0.0974 -0.2052  0.3864
  792POPS   C2B10646  13.935  12.627   7.262  0.2281 -0.1425 -0.0807
  792POPS   C3B10647  13.863  12.639   7.756 -0.2888 -0.0231 -0.4132
  792POPS   C4B10648  13.909  12.510   8.195  0.2423 -0.2118  0.1307
  793POPS   CNO10649  12.114  16.243   5.146 -0.2035 -0.2064 -0.2276
  793POPS   PO410650  12.360  16.517   5.311  0.4106 -0.0078 -0.0302
  793POPS   GL110651  12.159  16.584   5.658  0.1305 -0.0821 -0.2227
  793POPS   GL210652  11.876  16.491   5.567  0.2117  0.3314 -0.3671
  793POPS   C1A10653  12.264  16.736   6.118 -0.1861  0.0400 -0.0963
  793POPS   D2A10654  12.104  17.025   6.456 -0.2400 -0.0831 -0.1604
  793POPS   C3A10655  12.073  17.265   6.842  0.0993  0.1096  0.1122
  793POPS   C4A10656  11.805  17.507   6.975  0.0474 -0.0822 -0.0716
  793POPS   C1B10657  11.874  16.279   6.021 -0.3229  0.0451  0.0458
  793POPS   C2B10658  11.991  16.420   6.401  0.0938  0.2250 -0.0334
  793POPS   C3B10659  12.091  16.217   6.741 -0.1894  0.3190  0.0189
  793POPS   C4B10660  12.396  16.091   6.997  0.0434 -0.1348 -0.0117
  794POPS   CNO10661   8.275   0.363   5.144 -0.1269  0.0232 -0.1033
  794POPS   PO410662   8.539   0.482   5.537 -0.0593  0.2272  0.1990
  794POPS   GL110663   8.722   0.384   5.909  0.2692 -0.1107  0.5861
  794POPS   GL210664   8.426   0.541   6.193  0.0120  0.2996  0.3043
  794POPS   C1A10665   8.913   0.398   6.280 -0.2147 -0.2111 -0.0051
  794POPS   D2A10666   8.940   0.660   6.591 -0.1404  0.2655 -0.1730
  794POPS   C3A10667   9.132   0.603   7.019  0.1145  0.2024  0.1869
  794POPS   C4A10668   9.189   0.398   7.443 -0.0239 -0.0496 -0.0851
  794POPS   C1B10669   8.513   0.365   6.602  0.0394 -0.4782  0.0694
  794POPS   C2B10670   8.368   0.092   6.939  0.0547 -0.2623 -0.4548
  794POPS   C3B10671   8.321  -0.065   7.323  0.1934  0.0929  0.1498
  794POPS   C4B10672   8.206  -0.162   7.654  0.0961 -0.0410 -0.4793
  795POPS   CNO10673   5.692   2.623   5.433  0.1217 -0.0101  0.4147
  795POPS   PO410674   6.093   2.362   5.694  0.1631  0.2245  0.2072
  795POPS   GL110675   5.945   2.476   6.058  0.2295 -0.0742 -0.0089
  795POPS   GL210676   5.718   2.700   5.968  0.2460 -0.1949 -0.2183
  795POPS   C1A10677   5.659   2.079   6.325 -0.3935 -0.1757  0.1740
  795POPS   D2A10678   5.421   1.971   6.626 -0.3340  0.0521 -0.0103
  795POPS   C3A10679   5.165   2.026   6.927 -0.1120 -0.1638  0.3564
  795POPS   C4A10680   4.908   1.849   7.051 -0.0854 -0.0138  0.0167
  795POPS   C1B10681   5.595   2.537   6.409 -0.0179  0.1408  0.2463
  795POPS   C2B10682   5.652   2.331   6.820 -0.0313 -0.1224  0.2461
  795POPS   C3B10683   5.582   2.345   7.166  0.0138  0.0459 -0.1651
  795POPS   C4B10684   5.662   2.210   7.592 -0.1652  0.0007  0.1985
  796POPS   CNO10685   9.381  13.852   5.477 -0.1048 -0.0129  0.1366
  796POPS   PO410686   9.821  13.816   5.370  0.0833  0.0734  0.1191
  796POPS   GL110687   9.735  14.144   5.718  0.1279 -0.0054  0.1621
  796POPS   GL210688  10.078  14.167   5.825  0.3163  0.1112 -0.0548
  796POPS   C1A10689   9.514  14.027   6.074 -0.1756  0.3193  0.0593
  796POPS   D2A10690   9.252  13.907   6.438 -0.0262 -0.2428 -0.3393
  796POPS   C3A10691   9.270  14.113   6.765  0.2456  0.2832 -0.0302
  796POPS   C4A10692   9.339  14.384   7.109 -0.1842 -0.0360 -0.3363
  796POPS   C1B10693  10.220  13.939   6.171 -0.0039 -0.1001 -0.1285
  796POPS   C2B10694  10.222  13.787   6.550  0.0767  0.0618 -0.0451
  796POPS   C3B10695  10.125  13.697   6.929  0.3843  0.2725 -0.1013
  796POPS   C4B10696  10.300  13.421   7.188  0.0245 -0.0998 -0.2363
  797POPS   CNO10697   1.507   6.399   6.094  0.2070 -0.2290  0.0481
  797POPS   PO410698   1.940   6.498   5.936  0.1884  0.3750 -0.1430
  797POPS   GL110699   2.014   6.304   6.360 -0.0129  0.1116 -0.1397
  797POPS   GL210700   2.331   6.431   6.387 -0.2974 -0.2504 -0.0887
  797POPS   C1A10701   1.855   6.310   6.826  0.2665 -0.0531  0.0254
  797POPS   D2A10702   1.606   6.274   7.149 -0.4448  0.2384  0.3204
  797POPS   C3A10703   1.657   6.238   7.589 -0.2145 -0.0886  0.0506
  797POPS   C4A10704   1.756   6.431   7.824 -0.1459 -0.0532  0.0157
  797POPS   C1B10705   2.231   6.696   6.810  0.3835  0.0462 -0.1461
  797POPS   C2B10706   2.072   6.844   7.191 -0.0486  0.1218 -0.2620
  797POPS   C3B10707   1.904   7.176   7.415  0.2946  0.2000  0.2806
  797POPS   C4B10708   2.139   7.491   7.660 -0.0436 -0.1434 -0.1579
  798POPS   CNO10709  15.718  13.393   5.783  0.1096  0.0632 -0.1388
  798POPS   PO410710  15.760  13.303   6.230 -0.0578  0.4606 -0.2349
  798POPS   GL110711  15.735  13.168   6.630  0.0226  0.2007  0.0427
  798POPS   GL210712  15.946  13.149   6.795 -0.3117 -0.1148  0.2516
  798POPS   C1A10713  15.412  13.017   6.895  0.3125  0.0509 -0.3883
  798POPS   D2A10714  15.314  13.230   7.287  0.3338 -0.1399  0.4243
  798POPS   C3A10715  15.342  13.616   7.663  0.1798 -0.2216 -0.2788
  798POPS   C4A10716  15.240  13.801   8.015  0.0676 -0.2030 -0.2000
  798POPS   C1B10717  15.900  13.223   7.230 -0.1610  0.3808 -0.3693
  798POPS   C2B10718  15.846  13.388   7.727 -0.1547  0.0909  0.2304
  798POPS   C3B10719  15.655  13.656   8.066 -0.1477  0.1597 -0.0392
  798POPS   C4B10720  15.555  13.891   8.506 -0.0317 -0.1019  0.1113
  799POPS   CNO10721   2.628   7.646   5.826 -0.0997  0.2318  0.2025
  799POPS   PO410722   2.547   8.131   5.711 -0.2417 -0.0495 -0.0673
  799POPS   GL110723   2.538   7.958   6.158  0.2019  0.0440  0.2697
  799POPS   GL210724   2.899   8.105   6.240  0.3399  0.0504 -0.4549
  799POPS   C1A10725   2.659   7.618   6.493  0.1204  0.4283 -0.0010
  799POPS   D2A10726   2.448   7.178   6.561  0.5245 -0.4096 -0.2449
  799POPS   C3A10727   2.136   7.383   6.797 -0.1963  0.1121 -0.4368
  799POPS   C4A10728   2.070   7.632   7.166  0.1668 -0.1797 -0.0216
  799POPS   C1B10729   2.638   8.098   6.659  0.1797  0.3694 -0.0875
  799POPS   C2B10730   2.388   8.307   6.976  0.1224  0.1454  0.1028
  799POPS   C3B10731   2.466   8.463   7.415  0.0706 -0.1973 -0.4423
  799POPS   C4B10732   2.350   8.503   7.840  0.1367  0.2384  0.0760
  800POPS   CNO10733  15.007   5.377   6.307 -0.3957  0.4598 -0.0863
  800POPS   PO410734  15.149   5.821   6.295 -0.1326  0.3626  0.1288
  800POPS   GL110735  15.251   5.840   6.662  0.1180 -0.1005  0.1448
  800POPS   GL210736  14.926   5.922   6.814 -0.0547 -0.0360  0.0616
  800POPS   C1A10737  15.337   5.868   7.029 -0.2109 -0.0866 -0.2923
  800POPS   D2A10738  15.744   5.968   7.411  0.2343  0.2133 -0.2628
  800POPS   C3A10739  16.154   5.837   7.351 -0.1839 -0.0713  0.1651
  800POPS   C4A10740  16.391   5.823   6.964 -0.3495 -0.2904 -0.1769
  800POPS   C1B10741  14.871   5.566   6.924  0.0705  0.1724  0.1237
  800POPS   C2B10742  14.748   5.403   7.342 -0.0332 -0.2732  0.0459
  800POPS   C3B10743  14.513   5.317   7.685  0.4379 -0.2942  0.1164
  800POPS   C4B10744  14.712   5.272   8.102  0.0707 -0.0820  0.0168
  801POPS   CNO10745  11.226   1.476   5.027  0.0991  0.0896 -0.4515
  801POPS   PO410746  11.518   1.232   5.340  0.1447 -0.1148 -0.1851
  801POPS   GL110747  11.452   1.186   5.752 -0.0091 -0.0876 -0.1209
  801POPS   GL210748  11.387   0.911   5.979 -0.0373 -0.1142 -0.2767
  801POPS   C1A10749  11.343   1.371   6.222 -0.2801 -0.0164 -0.0685
  801POPS   D2A10750  11.115   1.230   6.471  0.1601  0.0644 -0.3797
  801POPS   C3A10751  11.273   1.169   6.838  0.0241 -0.1219  0.1479
  801POPS   C4A10752  11.701   1.382   7.026 -0.2227  0.1166  0.2240
  801POPS   C1B10753  11.477   0.780   6.298 -0.0956  0.0783 -0.2316
  801POPS   C2B10754  11.613   0.614   6.624 -0.0510 -0.2761 -0.0427
  801POPS   C3B10755  11.585   0.267   6.898 -0.3590  0.1526  0.1891
  801POPS   C4B10756  11.590  -0.074   7.266 -0.0362 -0.1628 -0.1676
  802POPS   CNO10757  11.780  10.654   6.098 -0.0569 -0.0975 -0.2067
  802POPS   PO410758  11.306  10.605   6.160 -0.1734 -0.2973 -0.3713
  802POPS   GL110759  11.184  10.612   6.548 -0.2374 -0.0526 -0.1303
  802POPS   GL210760  11.572  10.662   6.576  0.2234  0.2730  0.0504
  802POPS   C1A10761  11.202  10.958   6.725  0.1331 -0.0300 -0.0067
  802POPS   D2A10762  11.105  11.064   7.135 -0.2522 -0.0836 -0.0911
  802POPS   C3A10763  10.810  11.185   7.546  0.2815  0.3995  0.0195
  802POPS   C4A10764  10.723  11.159   8.003  0.0026 -0.0710  0.2707
  802POPS   C1B10765  11.945  10.631   6.922  0.1716 -0.1533 -0.1042
  802POPS   C2B10766  12.116  10.696   7.200  0.0337 -0.2307 -0.0445
  802POPS   C3B10767  12.329  10.898   7.315 -0.0211 -0.1286  0.0129
  802POPS   C4B10768  12.464  10.952   7.757  0.3002 -0.0928  0.3977
  803POPS   CNO10769   0.369  13.181   6.040  0.0811 -0.2765  0.2604
  803POPS   PO410770   0.267  13.532   6.056  0.0297  0.0256  0.1157
  803POPS   GL110771   0.035  13.614   6.340 -0.1355  0.1026  0.1028
  803POPS   GL210772   0.324  13.767   6.518  0.0190 -0.1756  0.2566
  803POPS   C1A10773  -0.297  13.845   6.613  0.1841 -0.0497  0.3611
  803POPS   D2A10774  -0.421  14.138   6.912 -0.3696  0.2153  0.3156
  803POPS   C3A10775  -0.593  14.329   7.263 -0.1883 -0.1075  0.1759
  803POPS   C4A10776  -1.020  14.533   7.325 -0.0980  0.3757  0.3253
  803POPS   C1B10777   0.419  13.715   6.928  0.1122 -0.0738 -0.1080
  803POPS   C2B10778   0.418  13.916   7.350 -0.0699  0.0963 -0.1465
  803POPS   C3B10779   0.348  13.721   7.721 -0.0319  0.5009 -0.3088
  803POPS   C4B10780   0.317  13.815   8.148  0.1365 -0.4712 -0.1541
  804POPS   CNO10781   3.891   5.651   5.972  0.1412  0.4028  0.1472
  804POPS   PO410782   3.570   5.433   5.986 -0.1085  0.4104 -0.0282
  804POPS   GL110783   3.442   5.314   6.434  0.1756  0.2019 -0.1800
  804POPS   GL210784   3.536   5.065   6.626  0.1827 -0.3456  0.0074
  804POPS   C1A10785   3.583   5.565   6.814  0.0880 -0.4161 -0.1596
  804POPS   D2A10786   3.659   5.700   7.182 -0.0960 -0.1306 -0.3076
  804POPS   C3A10787   3.589   5.668   7.659 -0.0737  0.0472  0.0078
  804POPS   C4A10788   3.744   5.511   8.122  0.1857 -0.3304  0.2397
  804POPS   C1B10789   3.266   4.840   6.955 -0.0967 -0.1902  0.1091
  804POPS   C2B10790   3.147   4.651   7.335  0.0138 -0.1020  0.0276
  804POPS   C3B10791   3.227   4.541   7.694  0.0274 -0.0151 -0.2847
  804POPS   C4B10792   3.391   4.617   7.998 -0.0973  0.2452  0.0702
  805POPS   CNO10793  11.750  10.820   5.308  0.0287 -0.0832 -0.2741
  805POPS   PO410794  11.893  11.042   5.677 -0.3109 -0.0962 -0.2274
  805POPS   GL110795  11.956  11.151   6.146 -0.3462  0.2502 -0.1193
  805POPS   GL210796  11.996  10.967   6.400 -0.3297  0.1813 -0.3126
  805POPS   C1A10797  11.968  11.514   6.519 -0.2454 -0.4070  0.3641
  805POPS   D2A10798  11.825  11.650   6.944 -0.1274  0.1982 -0.0647
  805POPS   C3A10799  11.941  11.524   7.351  0.0679 -0.1282 -0.1238
  805POPS   C4A10800  12.020  11.292   7.663  0.0003 -0.0115 -0.2590
  805POPS   C1B10801  12.277  10.914   6.694  0.1488  0.0108 -0.1669
  805POPS   C2B10802  12.615  11.028   6.975  0.0484  0.1633 -0.2258
  805POPS   C3B10803  12.769  11.417   6.979  0.0441  0.1653 -0.0873
  805POPS   C4B10804  12.895  11.789   6.915  0.1932 -0.0184  0.1398
  806POPS   CNO10805  15.184   2.817   6.521 -0.1360 -0.6184  0.1973
  806POPS   PO410806  15.404   3.155   6.253  0.0418  0.0233  0.0787
  806POPS   GL110807  15.250   3.287   6.603  0.1127 -0.0562  0.1028
  806POPS   GL210808  15.439   3.467   6.655  0.3838 -0.4332 -0.1952
  806POPS   C1A10809  14.860   3.179   6.753 -0.3508  0.1444 -0.2690
  806POPS   D2A10810  14.468   3.084   6.661 -0.1523 -0.4057 -0.0553
  806POPS   C3A10811  14.333   2.961   7.033  0.0629 -0.1836 -0.3263
  806POPS   C4A10812  14.143   2.915   7.408 -0.2836 -0.1799 -0.2763
  806POPS   C1B10813  15.608   3.609   6.980  0.1740  0.0340 -0.0124
  806POPS   C2B10814  15.704   3.795   7.320  0.0372 -0.0293 -0.2462
  806POPS   C3B10815  15.761   3.888   7.736  0.0542  0.1870 -0.3959
  806POPS   C4B10816  15.793   3.974   8.152  0.0411  0.1035 -0.1745
  807POPS   CNO10817   0.202   2.199   6.441 -0.1066 -0.2169  0.0387
  807POPS   PO410818   0.050   1.728   6.495  0.0191  0.0177 -0.3019
  807POPS   GL110819   0.323   1.870   6.874 -0.2583 -0.1402  0.1003
  807POPS   GL210820   0.169   1.561   6.963  0.2026  0.0033  0.2192
  807POPS   C1A10821   0.442   1.976   7.312  0.1153  0.0033  0.0399
  807POPS   D2A10822   0.413   2.047   7.675  0.2100  0.0207  0.3476
  807POPS   C3A10823   0.424   2.415   7.795  0.0961  0.0310 -0.2017
  807POPS   C4A10824   0.682   2.819   7.743  0.1960  0.0439  0.2751
  807POPS   C1B10825   0.276   1.486   7.396  0.1607 -0.1160  0.1443
  807POPS   C2B10826   0.404   1.527   7.788 -0.1662  0.3663  0.0037
  807POPS   C3B10827   0.273   1.697   8.171 -0.1473  0.0341  0.2374
  807POPS   C4B10828   0.567   1.571   8.476  0.1615  0.0212 -0.2836
  808POPS   CNO10829  15.138  15.048   5.233  0.2085  0.0340 -0.3371
  808POPS   PO410830  14.794  15.096   5.526 -0.3284  0.2291  0.1533
  808POPS   GL110831  14.801  15.258   5.905 -0.2267 -0.2828  0.0323
  808POPS   GL210832  14.503  15.534   5.907  0.0760 -0.0194  0.1399
  808POPS   C1A10833  14.865  15.119   6.371 -0.2089 -0.1706  0.2004
  808POPS   D2A10834  14.797  14.857   6.766  0.1718 -0.3721  0.0359
  808POPS   C3A10835  14.567  14.990   7.081  0.4529 -0.1197  0.2700
  808POPS   C4A10836  14.305  14.880   7.461 -0.1002 -0.2799 -0.3298
  808POPS   C1B10837  14.500  15.387   6.265  0.3759 -0.1682 -0.4408
  808POPS   C2B10838  14.650  15.345   6.766 -0.0764  0.1979 -0.0579
  808POPS   C3B10839  14.764  15.447   7.164 -0.2424 -0.0582 -0.0378
  808POPS   C4B10840  15.118  15.252   7.410  0.0697 -0.4003  0.1957
  809POPS   CNO10841  14.160  13.577   5.622 -0.4303 -0.2850  0.1175
  809POPS   PO410842  14.094  13.953   5.984  0.4649  0.1716 -0.0059
  809POPS   GL110843  13.876  13.754   6.280  0.2526 -0.0670  0.2544
  809POPS   GL210844  13.516  13.595   6.148 -0.1599  0.0786 -0.1801
  809POPS   C1A10845  13.732  13.838   6.706 -0.2512  0.1953 -0.1397
  809POPS   D2A10846  13.395  13.780   7.072  0.0080 -0.2356  0.2939
  809POPS   C3A10847  13.309  13.810   7.471  0.0104  0.0063 -0.3221
  809POPS   C4A10848  13.069  13.394   7.666  0.3878  0.0869  0.1457
  809POPS   C1B10849  13.323  13.639   6.538  0.0239  0.2873 -0.5426
  809POPS   C2B10850  12.987  13.602   6.849  0.0707 -0.0666  0.2025
  809POPS   C3B10851  12.930  13.593   7.230  0.0204 -0.2211 -0.2188
  809POPS   C4B10852  12.775  13.789   7.604  0.0520 -0.2121 -0.1713
  810POPS   CNO10853  11.402  18.116   5.331  0.0464  0.1637  0.2575
  810POPS   PO410854  11.250  17.746   5.086  0.1446 -0.1369 -0.1928
  810POPS   GL110855  11.136  17.714   5.544  0.0246 -0.0164  0.1108
  810POPS   GL210856  10.852  17.573   5.633  0.0597 -0.0955  0.2963
  810POPS   C1A10857  11.290  17.982   5.952 -0.4194  0.2363 -0.3676
  810POPS   D2A10858  11.562  17.880   6.275 -0.0347 -0.1450  0.0897
  810POPS   C3A10859  11.621  17.958   6.723 -0.2701  0.1636 -0.0001
  810POPS   C4A10860  11.619  17.969   7.179  0.0254 -0.0405  0.3245
  810POPS   C1B10861  10.730  17.480   5.986  0.1509 -0.1864 -0.0547
  810POPS   C2B10862  10.625  17.417   6.392 -0.1726  0.1308  0.0636
  810POPS   C3B10863  10.686  17.637   6.790 -0.0634  0.0906 -0.0508
  810POPS   C4B10864  10.809  17.626   7.166 -0.0896  0.0109  0.0758
  811POPS   CNO10865   6.326  10.899   5.779 -0.2251  0.0896  0.3840
  811POPS   PO410866   6.331  10.395   5.750  0.1507 -0.0664 -0.0085
  811POPS   GL110867   6.396  10.649   6.200 -0.0569 -0.1839 -0.1543
  811POPS   GL210868   6.064  10.827   6.384 -0.1171  0.3973  0.2151
  811POPS   C1A10869   6.392  10.523   6.573  0.0855 -0.0678  0.0359
  811POPS   D2A10870   6.300  10.691   7.037  0.1497  0.1841  0.1551
  811POPS   C3A10871   6.486  10.685   7.407  0.0193  0.0373 -0.0396
  811POPS   C4A10872   6.441  10.291   7.587  0.1481 -0.1891  0.1686
  811POPS   C1B10873   6.016  11.005   6.793 -0.1325  0.2165  0.2462
  811POPS   C2B10874   6.215  11.140   7.205 -0.2621 -0.1662  0.3239
  811POPS   C3B10875   6.141  11.139   7.648 -0.1365 -0.1656  0.0646
  811POPS   C4B10876   5.818  11.076   7.808  0.0439  0.1491  0.3813
  812YOPS   CNO10877  16.963  13.481   6.267 -0.0315 -0.2754 -0.2216
  812YOPS   PO410878  17.319  13.272   6.162 -0.1854  0.1825  0.1226
  812YOPS   GL110879  17.246  12.916   6.390 -0.0235  0.0570  0.2205
  812YOPS   GL210880  17.527  12.851   6.427 -0.3053  0.0509 -0.1589
  812YOPS   C1A10881  17.121  12.835   6.637  0.3827 -0.0048  0.1374
  812YOPS   D2A10882  17.151  12.883   7.058  0.2780 -0.1025 -0.1741
  812YOPS   C3A10883  17.029  12.969   7.462 -0.5219  0.1447  0.2728
  812YOPS   C4A10884  16.759  13.303   7.486  0.0139 -0.2394 -0.0173
  812YOPS   C1B10885  17.577  12.650   6.830 -0.1509  0.2820 -0.0515
  812YOPS   C2B10886  17.563  12.456   7.205  0.2617  0.3897  0.2181
  812YOPS   D3B10887  17.460  11.975   7.218 -0.0938 -0.2307  0.1794
  812YOPS   C4B10888  17.488  11.684   7.481 -0.2031  0.0099 -0.1534
  813YOPS   CNO10889  13.438   7.096   5.662 -0.1666 -0.2494 -0.1462
  813YOPS   PO410890  13.591   6.888   5.746  0.1294 -0.1601  0.0253
  813YOPS   GL110891  13.508   6.776   6.132 -0.0452 -0.0101 -0.2197
  813YOPS   GL210892  13.211   6.468   6.361  0.0853 -0.0245  0.2727
  813YOPS   C1A10893  13.510   7.048   6.595  0.0967 -0.1521  0.1600
  813YOPS   D2A10894  13.769   7.237   6.850  0.2677 -0.4351  0.2589
  813YOPS   C3A10895  14.018   7.346   7.208 -0.2464  0.0844 -0.3058
  813YOPS   C4A10896  14.031   7.781   7.560  0.0536  0.1133 -0.1408
  813YOPS   C1B10897  13.018   6.286   6.736 -0.0935  0.0410  0.0675
  813YOPS   C2B10898  13.037   6.191   7.146  0.0025 -0.1801  0.2072
  813YOPS   D3B10899  12.840   6.006   7.493 -0.1672  0.0465  0.0694
  813YOPS   C4B10900  12.718   6.099   7.901 -0.1933 -0.2328  0.4215
  814YOPS   CNO10901   5.081   5.445   5.891  0.2469 -0.0441 -0.0236
  814YOPS   PO410902   4.748   5.576   5.778  0.5122  0.0493  0.1054
  814YOPS   GL110903   4.817   5.766   6.247 -0.1052  0.2609 -0.0137
  814YOPS   GL210904   4.607   5.727   6.618  0.0854  0.2074  0.0709
  814YOPS   C1A10905   5.131   6.082   6.617  0.2144  0.1960 -0.0491
  814YOPS   D2A10906   5.217   6.090   7.002 -0.2534 -0.1686  0.1835
  814YOPS   C3A10907   5.146   6.332   7.330  0.1467 -0.3074 -0.0823
  814YOPS   C4A10908   5.343   6.737   7.396 -0.0898 -0.2170 -0.0797
  814YOPS   C1B10909   4.844   5.683   6.919  0.0843  0.1370  0.0421
  814YOPS   C2B10910   5.036   5.826   7.366 -0.0501  0.2103  0.2380
  814YOPS   D3B10911   5.198   5.997   7.733  0.0127 -0.1730 -0.2294
  814YOPS   C4B10912   5.505   6.370   7.683 -0.2894  0.2105  0.2514
  815YOPS   CNO10913  13.866   5.924   6.045 -0.0444 -0.0528 -0.1009
  815YOPS   PO410914  13.496   6.058   6.101 -0.0250 -0.0762  0.1527
  815YOPS   GL110915  13.596   6.010   6.501  0.0043 -0.2918 -0.1001
  815YOPS   GL210916  13.839   6.023   6.569  0.2035 -0.0468 -0.0669
  815YOPS   C1A10917  13.457   5.972   6.928  0.2631  0.0016 -0.0198
  815YOPS   D2A10918  13.344   5.794   7.298  0.0165  0.2269  0.1660
  815YOPS   C3A10919  13.565   5.591   7.632  0.2875 -0.2655  0.1370
  815YOPS   C4A10920  13.659   5.959   7.858 -0.0569 -0.2436 -0.1177
  815YOPS   C1B10921  13.976   6.167   7.023 -0.0355  0.0788  0.0409
  815YOPS   C2B10922  14.106   6.405   7.297 -0.0858  0.2326  0.0516
  815YOPS   D3B10923  14.120   6.460   7.706 -0.3041 -0.1902  0.4289
  815YOPS   C4B10924  14.249   6.111   8.000  0.0815  0.2156 -0.0661
  816YOPS   CNO10925   3.418   6.335   5.835  0.1136 -0.0219 -0.0241
  816YOPS   PO410926   3.370   6.559   6.236  0.3911  0.0122  0.1028
  816YOPS   GL110927   3.704   6.297   6.401  0.1459 -0.0639 -0.1192
  816YOPS   GL210928   4.048   6.168   6.400 -0.2103  0.1106 -0.0497
  816YOPS   C1A10929   3.619   6.083   6.771 -0.0780 -0.0088 -0.1923
  816YOPS   D2A10930   3.295   6.066   7.055  0.2063 -0.0892  0.0313
  816YOPS   C3A10931   3.025   5.783   7.289 -0.2990  0.1711  0.1593
  816YOPS   C4A10932   2.977   5.710   7.598  0.1925 -0.1445 -0.1005
  816YOPS   C1B10933   4.122   6.005   6.877 -0.0406 -0.1225 -0.0375
  816YOPS   C2B10934   4.115   6.005   7.316  0.2719  0.0028 -0.0222
  816YOPS   D3B10935   4.014   5.835   7.720  0.1642  0.1206  0.2871
  816YOPS   C4B10936   3.738   6.028   8.051  0.0301 -0.1187 -0.0943
  817YOPS   CNO10937  16.936   6.360   6.124 -0.0705  0.5673  0.3138
  817YOPS   PO410938  17.359   6.330   6.274  0.1223 -0.1146 -0.0256
  817YOPS   GL110939  17.578   6.554   6.572 -0.1341  0.3422  0.0715
  817YOPS   GL210940  17.642   6.892   6.675  0.0949 -0.2261 -0.1102
  817YOPS   C1A10941  17.681   6.592   7.028  0.0785 -0.2537  0.2620
  817YOPS   D2A10942  17.673   6.626   7.455 -0.1111  0.2838 -0.0100
  817YOPS   C3A10943  17.471   6.648   7.869 -0.0364 -0.0596  0.3859
  817YOPS   C4A10944  17.100   6.690   7.991 -0.1317  0.0422 -0.4830
  817YOPS   C1B10945  17.515   7.125   7.116 -0.0009 -0.1179  0.0708
  817YOPS   C2B10946  17.270   7.072   7.622  0.2503 -0.0361 -0.0248
  817YOPS   D3B10947  17.132   7.194   8.056  0.1924  0.0562 -0.0225
  817YOPS   C4B10948  17.161   7.568   8.047 -0.3162  0.0918 -0.0182
  818YOPS   CNO10949   6.248   9.315   5.830 -0.0911  0.0463  0.1697
  818YOPS   PO410950   5.847   9.578   5.499 -0.0789  0.0333 -0.1133
  818YOPS   GL110951   5.819   9.581   5.931  0.2961  0.0249  0.0054
  818YOPS   GL210952   5.586   9.748   6.030  0.0583  0.3415 -0.0748
  818YOPS   C1A10953   6.143   9.602   6.263 -0.0163  0.2739  0.1417
  818YOPS   D2A10954   6.041   9.632   6.634  0.2154 -0.0761 -0.3303
  818YOPS   C3A10955   6.054   9.843   6.972  0.0072 -0.0564  0.1619
  818YOPS   C4A10956   6.214  10.174   7.145  0.0630  0.1788 -0.2761
  818YOPS   C1B10957   5.632   9.873   6.540 -0.2760 -0.0668 -0.1263
  818YOPS   C2B10958   5.589  10.099   7.005 -0.2097 -0.0087  0.2386
  818YOPS   D3B10959   5.796  10.071   7.306 -0.3052 -0.1348  0.0349
  818YOPS   C4B10960   5.938  10.056   7.713  0.0508 -0.0455  0.0377
  819YOPS   CNO10961   8.740  15.048   5.562  0.0900  0.4356  0.0588
  819YOPS   PO410962   9.125  15.243   5.613  0.2484 -0.1749  0.3616
  819YOPS   GL110963   9.230  15.448   5.918  0.0368  0.0252 -0.1462
  819YOPS   GL210964   9.555  15.528   5.957 -0.0052  0.0532 -0.0316
  819YOPS   C1A10965   9.245  15.469   6.359 -0.1690  0.0897  0.3616
  819YOPS   D2A10966   9.639  15.612   6.582  0.0761  0.2763  0.0443
  819YOPS   C3A10967   9.581  15.756   7.040  0.0341  0.0712  0.0202
  819YOPS   C4A10968   9.191  15.483   7.078  0.0233 -0.0192 -0.2283
  819YOPS   C1B10969   9.916  15.350   6.264 -0.1222  0.1844 -0.1608
  819YOPS   C2B10970  10.094  15.354   6.594  0.0867 -0.0515 -0.3399
  819YOPS   D3B10971  10.092  15.572   7.036  0.0172  0.1939 -0.0304
  819YOPS   C4B10972  10.462  15.591   7.208 -0.2143 -0.1559 -0.1040
  820YOPS   CNO10973  15.453  18.104   6.102  0.0895 -0.1497 -0.0346
  820YOPS   PO410974  15.388  17.624   5.977  0.2066  0.0158  0.1727
  820YOPS   GL110975  15.538  17.574   6.424 -0.1208  0.0551  0.4742
  820YOPS   GL210976  15.620  17.820   6.515 -0.0400  0.1414 -0.1866
  820YOPS   C1A10977  15.707  17.450   6.850 -0.0254  0.0483  0.1468
  820YOPS   D2A10978  15.639  17.262   7.295 -0.0464 -0.0320 -0.2005
  820YOPS   C3A10979  15.490  17.214   7.693 -0.2698  0.0472 -0.1881
  820YOPS   C4A10980  15.259  16.819   7.737 -0.2946  0.0037  0.0956
  820YOPS   C1B10981  15.871  17.916   6.875  0.2761 -0.2029  0.0296
  820YOPS   C2B10982  15.955  17.711   7.263  0.0798  0.0681  0.1142
  820YOPS   D3B10983  16.005  17.510   7.579 -0.0024  0.1909 -0.0740
  820YOPS   C4B10984  15.962  17.666   7.915  0.1137 -0.0767  0.1774
  821YOPS   CNO10985   8.974   3.212   5.692 -0.0603 -0.3082  0.0078
  821YOPS   PO410986   8.612   3.294   5.947  0.0412  0.2886  0.1866
  821YOPS   GL110987   8.467   3.135   6.229 -0.3266  0.1230  0.0630
  821YOPS   GL210988   8.237   3.248   6.348  0.1297 -0.0435  0.1268
  821YOPS   C1A10989   8.505   3.157   6.720  0.0042  0.0076  0.1200
  821YOPS   D2A10990   8.439   3.136   7.200  0.3219 -0.3519 -0.1445
  821YOPS   C3A10991   8.189   3.142   7.671  0.1772  0.2902 -0.3467
  821YOPS   C4A10992   7.914   3.459   7.571 -0.4289 -0.2164 -0.0643
  821YOPS   C1B10993   8.195   3.639   6.633  0.0883  0.0075  0.1081
  821YOPS   C2B10994   8.176   3.699   7.081 -0.0937 -0.2500  0.3879
  821YOPS   D3B10995   8.110   3.900   7.501  0.0253  0.1016 -0.2626
  821YOPS   C4B10996   7.691   4.071   7.653 -0.1977  0.0633  0.1097
  822YOPS   CNO10997  10.074  15.275   4.961  0.2162  0.1294  0.2310
  822YOPS   PO410998   9.820  15.383   5.233 -0.2079  0.0476  0.0176
  822YOPS   GL110999   9.988  15.512   5.517 -0.1074  0.1337 -0.1722
  822YOPS   GL211000  10.130  15.350   5.833 -0.1821 -0.0735 -0.3741
  822YOPS   C1A11001  10.052  15.808   5.844 -0.1225  0.1591  0.1893
  822YOPS   D2A11002  10.030  15.872   6.313  0.1170  0.1843  0.0823
  822YOPS   C3A11003   9.975  15.956   6.729 -0.1981 -0.0640  0.0191
  822YOPS   C4A11004   9.801  16.483   6.869 -0.0848  0.3672  0.0332
  822YOPS   C1B11005  10.379  15.539   6.133 -0.1598 -0.1120  0.1598
  822YOPS   C2B11006  10.455  15.722   6.568 -0.0258 -0.1220 -0.1442
  822YOPS   D3B11007  10.760  15.762   6.757  0.0973  0.0117  0.0677
  822YOPS   C4B11008  10.749  15.978   7.099  0.0293  0.1665 -0.0643
  823YOPS   CNO11009   9.203   8.029   5.820 -0.0960 -0.3466 -0.3327
  823YOPS   PO411010   8.947   8.339   5.540 -0.3936  0.1702 -0.0235
  823YOPS   GL111011   8.910   8.372   5.979  0.1910 -0.1366  0.0851
  823YOPS   GL211012   8.969   8.585   6.119  0.1204 -0.2831  0.2196
  823YOPS   C1A11013   8.546   8.325   6.228 -0.0886  0.1919  0.0007
  823YOPS   D2A11014   8.357   8.390   6.561 -0.0493  0.2303  0.3663
  823YOPS   C3A11015   8.188   8.308   6.950 -0.2912 -0.0784 -0.0391
  823YOPS   C4A11016   8.275   7.948   7.169  0.0593  0.4326 -0.0456
  823YOPS   C1B11017   8.892   8.497   6.555  0.2409  0.0746 -0.1370
  823YOPS   C2B11018   9.096   8.610   7.010  0.0872 -0.1682  0.1073
  823YOPS   D3B11019   9.061   8.484   7.484  0.0024 -0.4229  0.0181
  823YOPS   C4B11020   8.978   8.773   7.754  0.1103 -0.2370  0.1613
  824YOPS   CNO11021   5.102   0.128   5.474 -0.0161  0.0762 -0.2954
  824YOPS   PO411022   4.648   0.149   5.371 -0.1694 -0.0835 -0.2890
  824YOPS   GL111023   4.690   0.115   5.816 -0.0424  0.0672 -0.3364
  824YOPS   GL211024   4.485   0.316   5.882 -0.4374  0.1390 -0.1613
  824YOPS   C1A11025   4.806   0.164   6.270 -0.0556 -0.0708  0.1575
  824YOPS   D2A11026   4.771   0.145   6.688 -0.1245  0.0038 -0.0331
  824YOPS   C3A11027   4.373   0.100   6.740 -0.2955  0.3663  0.1723
  824YOPS   C4A11028   4.065   0.135   7.020 -0.2662 -0.2912  0.1369
  824YOPS   C1B11029   4.292   0.193   6.257  0.1923 -0.3015  0.0432
  824YOPS   C2B11030   4.143  -0.299   6.454  0.0178  0.1477  0.0514
  824YOPS   D3B11031   4.213  -0.730   6.437  0.4507  0.1111  0.0828
  824YOPS   C4B11032   4.095  -0.858   6.819 -0.1318  0.0973 -0.2653
  825YOPS   CNO11033   9.223   0.918   5.076  0.0215  0.3037  0.0119
  825YOPS   PO411034   9.485   0.891   5.363  0.0033 -0.0612 -0.0460
  825YOPS   GL111035   9.608   1.015   5.806  0.2025 -0.1049  0.1759
  825YOPS   GL211036   9.377   1.135   5.939 -0.1280  0.3378  0.0870
  825YOPS   C1A11037   9.792   0.996   6.262  0.0935 -0.2017  0.2865
  825YOPS   D2A11038   9.870   1.089   6.605  0.0947 -0.1378 -0.1771
  825YOPS   C3A11039   9.816   0.976   7.055  0.2181 -0.2211 -0.1446
  825YOPS   C4A11040  10.156   1.280   7.358  0.0344  0.0922  0.1995
  825YOPS   C1B11041   9.430   1.415   6.282 -0.1096 -0.0034 -0.0665
  825YOPS   C2B11042   9.411   1.509   6.672 -0.0658 -0.2335  0.0700
  825YOPS   D3B11043   9.605   1.407   7.036  0.2026 -0.3422  0.2034
  825YOPS   C4B11044   9.575   1.329   7.440 -0.0623  0.0815 -0.1706
  826YOPS   CNO11045  10.936  11.306   5.595  0.2574  0.3301  0.0556
  826YOPS   PO411046  11.348  11.480   5.763  0.1039 -0.1519 -0.1515
  826YOPS   GL111047  11.186  11.544   6.140 -0.1322 -0.1756  0.3619
  826YOPS   GL211048  11.218  11.932   6.022  0.1903  0.0203  0.4397
  826YOPS   C1A11049  11.286  11.625   6.569 -0.1113 -0.3099  0.0280
  826YOPS   D2A11050  11.204  11.633   7.042  0.2830 -0.2463 -0.0513
  826YOPS   C3A11051  11.300  11.457   7.461 -0.0242 -0.1869 -0.0003
  826YOPS   C4A11052  11.547  11.367   7.676 -0.0331  0.0177 -0.1702
  826YOPS   C1B11053  11.096  12.062   6.550  0.2179 -0.1717 -0.3110
  826YOPS   C2B11054  11.011  12.140   6.975  0.1134 -0.3485 -0.1253
  826YOPS   D3B11055  10.677  12.379   7.213  0.0285 -0.0562 -0.2330
  826YOPS   C4B11056  10.793  12.885   7.341  0.0938  0.0518  0.3312
  827YOPS   CNO11057   0.360   7.804   5.804  0.3229  0.2288  0.0775
  827YOPS   PO411058   0.156   7.618   6.174 -0.2168  0.0932  0.3496
  827YOPS   GL111059   0.236   7.773   6.690 -0.0364  0.1866  0.0513
  827YOPS   GL211060   0.458   8.026   6.747  0.0065  0.1003  0.0185
  827YOPS   C1A11061   0.167   7.746   7.117  0.0183  0.1041 -0.2685
  827YOPS   D2A11062   0.198   7.747   7.609  0.1741  0.0878  0.2114
  827YOPS   C3A11063   0.280   7.995   8.071 -0.0866 -0.0502 -0.3797
  827YOPS   C4A11064  -0.094   8.131   8.156 -0.1013  0.1299  0.4114
  827YOPS   C1B11065   0.654   7.629   7.004 -0.0615 -0.0896 -0.0165
  827YOPS   C2B11066   0.948   7.536   7.288  0.0543 -0.1513  0.0387
  827YOPS   D3B11067   1.004   7.512   7.740  0.2552  0.0459  0.1824
  827YOPS   C4B11068   0.956   7.134   8.004  0.3084  0.0632 -0.0058
  828YOPS   CNO11069   6.758  15.564   4.656 -0.1420 -0.2312  0.2654
  828YOPS   PO411070   7.206  15.538   4.896 -0.2979 -0.0800  0.2150
  828YOPS   GL111071   7.292  15.512   5.309 -0.1605  0.2441 -0.2228
  828YOPS   GL211072   7.362  15.818   5.514 -0.2176 -0.3860  0.1853
  828YOPS   C1A11073   7.598  15.357   5.561  0.2148 -0.0888 -0.0907
  828YOPS   D2A11074   7.798  15.052   5.840  0.1778 -0.1064 -0.2382
  828YOPS   C3A11075   7.789  14.889   6.237 -0.1494 -0.1084  0.1532
  828YOPS   C4A11076   7.989  14.575   6.328  0.2367 -0.1068 -0.1668
  828YOPS   C1B11077   7.468  15.639   5.898 -0.1356  0.0584  0.0931
  828YOPS   C2B11078   7.424  15.264   6.139  0.2136 -0.2198 -0.1779
  828YOPS   D3B11079   7.520  15.152   6.534  0.2284 -0.0164 -0.2197
  828YOPS   C4B11080   7.372  15.424   6.875  0.0092 -0.0363  0.0543
  829YOPS   CNO11081   6.511  14.501   5.319  0.1174  0.0097 -0.2338
  829YOPS   PO411082   6.110  14.194   5.502  0.2669 -0.0945  0.3115
  829YOPS   GL111083   6.351  14.513   5.770  0.2417  0.3804  0.0815
  829YOPS   GL211084   6.213  14.898   5.793  0.1070  0.4492  0.2714
  829YOPS   C1A11085   6.493  14.577   6.158 -0.0393 -0.1326 -0.0791
  829YOPS   D2A11086   6.602  14.778   6.415  0.0184  0.1032  0.2050
  829YOPS   C3A11087   6.573  14.802   6.952 -0.4777 -0.2580  0.1103
  829YOPS   C4A11088   6.680  15.128   7.098 -0.0052  0.1642 -0.0588
  829YOPS   C1B11089   6.345  15.101   6.109  0.1759 -0.1677 -0.2787
  829YOPS   C2B11090   6.325  15.123   6.634  0.2245  0.0523 -0.0261
  829YOPS   D3B11091   6.129  15.350   6.991 -0.2602  0.2895  0.1166
  829YOPS   C4B11092   6.365  15.551   7.265 -0.0061  0.1316 -0.2401
  830YOPS   CNO11093   6.620   6.425   5.829 -0.2421 -0.0459 -0.2229
  830YOPS   PO411094   6.683   6.797   5.807  0.1159  0.0073 -0.0301
  830YOPS   GL111095   6.563   6.819   6.242 -0.0751 -0.2186  0.3621
  830YOPS   GL211096   6.560   6.477   6.329  0.0816 -0.2390 -0.0527
  830YOPS   C1A11097   6.426   7.140   6.610 -0.0079 -0.0621 -0.2053
  830YOPS   D2A11098   6.498   7.116   7.082  0.1276 -0.0104 -0.2029
  830YOPS   C3A11099   6.455   7.206   7.554  0.0095  0.3396 -0.2485
  830YOPS   C4A11100   6.728   7.032   7.745 -0.0270  0.3139 -0.2178
  830YOPS   C1B11101   6.463   6.641   6.714 -0.1594  0.1575 -0.0254
  830YOPS   C2B11102   6.171   6.698   6.997 -0.1081  0.0118  0.1931
  830YOPS   D3B11103   6.108   6.872   7.312 -0.0542  0.2347  0.0234
  830YOPS   C4B11104   5.784   6.873   7.545  0.2672  0.1068  0.1529
  831YOPS   CNO11105  16.457  12.133   5.770 -0.2306 -0.1695 -0.2798
  831YOPS   PO411106  16.540  12.221   6.206  0.4130 -0.0383 -0.0978
  831YOPS   GL111107  16.328  12.238   6.618 -0.1906  0.0407  0.2174
  831YOPS   GL211108  16.125  12.172   6.603 -0.5309  0.0483 -0.0169
  831YOPS   C1A11109  16.253  12.369   7.081  0.4131  0.1362  0.1308
  831YOPS   D2A11110  16.069  12.481   7.376  0.3389 -0.0682 -0.1362
  831YOPS   C3A11111  15.988  12.257   7.735 -0.0518  0.0894  0.2429
  831YOPS   C4A11112  16.046  12.419   8.157 -0.0634  0.0379 -0.3050
  831YOPS   C1B11113  15.862  12.060   6.957  0.2662  0.0961 -0.0294
  831YOPS   C2B11114  15.710  12.063   7.315  0.0829  0.0441 -0.2625
  831YOPS   D3B11115  15.523  12.012   7.745  0.1415  0.0052 -0.1303
  831YOPS   C4B11116  15.788  11.951   8.112  0.0962  0.2069  0.1501
  832YOPS   CNO11117  16.406   4.460   5.627  0.1011 -0.2045 -0.0944
  832YOPS   PO411118  16.402   4.099   5.983  0.2155  0.3168  0.5047
  832YOPS   GL111119  16.556   4.184   6.386 -0.2381 -0.1215  0.0930
  832YOPS   GL211120  16.261   4.218   6.617 -0.0376 -0.0128 -0.1046
  832YOPS   C1A11121  16.844   4.208   6.758  0.2708  0.1582  0.0508
  832YOPS   D2A11122  16.934   4.265   7.134 -0.3347 -0.0265  0.0916
  832YOPS   C3A11123  17.209   4.525   7.137  0.0442 -0.5020 -0.2178
  832YOPS   C4A11124  17.263   4.571   7.551 -0.1465 -0.0034 -0.1629
  832YOPS   C1B11125  16.385   4.219   7.016 -0.3042 -0.0972  0.1807
  832YOPS   C2B11126  16.527   4.335   7.441 -0.2373  0.0574  0.2673
  832YOPS   D3B11127  16.881   4.333   7.658  0.1359  0.0791  0.2256
  832YOPS   C4B11128  16.948   4.434   7.976 -0.2482  0.0111  0.1842
  833YOPS   CNO11129   5.766  15.306   5.165  0.0965  0.6002  0.0328
  833YOPS   PO411130   6.021  15.669   5.053 -0.4051 -0.0449 -0.0141
  833YOPS   GL111131   6.107  15.856   5.516 -0.2527  0.1227  0.6037
  833YOPS   GL211132   5.916  15.720   5.813 -0.3406  0.1987  0.4553
  833YOPS   C1A11133   6.351  15.927   5.898  0.2754  0.0616 -0.0477
  833YOPS   D2A11134   6.442  15.948   6.302  0.0935  0.0025 -0.0890
  833YOPS   C3A11135   6.495  15.686   6.603 -0.0936 -0.2066 -0.2348
  833YOPS   C4A11136   6.600  15.959   6.891  0.3035 -0.0392  0.0238
  833YOPS   C1B11137   5.661  15.643   6.109 -0.2179 -0.1275  0.1464
  833YOPS   C2B11138   5.411  15.485   6.474  0.0050 -0.0410 -0.3309
  833YOPS   D3B11139   5.203  15.576   7.005 -0.2736 -0.1688 -0.0936
  833YOPS   C4B11140   5.020  16.006   7.192  0.2753  0.2545 -0.2142
  834YOPS   CNO11141   8.672  16.538   5.200  0.3794 -0.0380  0.3056
  834YOPS   PO411142   8.389  16.984   5.325 -0.4234 -0.0602 -0.0664
  834YOPS   GL111143   8.426  17.030   5.745  0.1238 -0.0579 -0.0056
  834YOPS   GL211144   8.092  17.160   5.709 -0.1351 -0.1647 -0.2696
  834YOPS   C1A11145   8.564  16.954   6.136  0.1813  0.3740  0.1923
  834YOPS   D2A11146   8.460  16.829   6.530 -0.1251  0.1063 -0.0387
  834YOPS   C3A11147   8.177  16.959   6.847  0.3394 -0.0097  0.0111
  834YOPS   C4A11148   7.842  17.115   7.234  0.1259 -0.3810 -0.1357
  834YOPS   C1B11149   8.013  17.026   6.033 -0.0821 -0.1589  0.0347
  834YOPS   C2B11150   8.014  16.732   6.360 -0.0040  0.1461  0.4052
  834YOPS   D3B11151   7.719  16.559   6.665 -0.0537  0.1731  0.1311
  834YOPS   C4B11152   7.606  16.780   6.942  0.1072 -0.0125  0.0678
  835YOPS   CNO11153   4.067   2.359   5.304 -0.1365  0.0120 -0.3257
  835YOPS   PO411154   4.344   2.289   5.686  0.3060  0.0890  0.0122
  835YOPS   GL111155   4.388   2.531   6.049 -0.0856 -0.0525  0.0428
  835YOPS   GL211156   4.249   2.910   6.066 -0.0617  0.0519  0.0481
  835YOPS   C1A11157   4.183   2.645   6.437 -0.1081 -0.1018  0.0427
  835YOPS   D2A11158   4.044   2.459   6.902  0.1780  0.1767 -0.2322
  835YOPS   C3A11159   4.144   2.431   7.326 -0.2733  0.0570 -0.1542
  835YOPS   C4A11160   3.832   2.605   7.697 -0.0220  0.0807  0.0226
  835YOPS   C1B11161   4.422   3.155   6.380  0.3736 -0.0880  0.0600
  835YOPS   C2B11162   4.413   3.405   6.790 -0.4456 -0.2001 -0.0537
  835YOPS   D3B11163   4.593   3.333   7.135  0.1457  0.2575  0.2131
  835YOPS   C4B11164   4.545   3.371   7.569  0.1354  0.0698 -0.1298
  836YOPS   CNO11165   3.510   7.443   5.830 -0.0923  0.0775 -0.2522
  836YOPS   PO411166   3.916   7.171   5.774 -0.0004  0.1721 -0.0504
  836YOPS   GL111167   4.169   7.082   6.200  0.1851  0.0867  0.0575
  836YOPS   GL211168   3.964   7.213   6.365  0.2190  0.0697  0.2611
  836YOPS   C1A11169   4.230   6.858   6.628 -0.1584 -0.1825 -0.0256
  836YOPS   D2A11170   4.052   6.531   7.017  0.1466  0.1484  0.0932
  836YOPS   C3A11171   3.672   6.463   7.192 -0.2099 -0.2301  0.1241
  836YOPS   C4A11172   3.698   6.242   7.622  0.0193 -0.1573 -0.0814
  836YOPS   C1B11173   3.930   7.172   6.861 -0.0211 -0.0199  0.2320
  836YOPS   C2B11174   3.846   7.115   7.287  0.3160  0.0431  0.0042
  836YOPS   D3B11175   3.917   6.825   7.647 -0.2901  0.1542  0.1821
  836YOPS   C4B11176   4.156   6.457   7.624  0.2920  0.6235  0.2374
  837YOPS   CNO11177   9.872   5.262   5.471  0.1283 -0.0101  0.0855
  837YOPS   PO411178   9.580   4.896   5.815 -0.1957  0.1933 -0.1315
  837YOPS   GL111179   9.590   4.947   6.208  0.1378 -0.2215  0.2627
  837YOPS   GL211180   9.473   5.163   6.418 -0.1449 -0.0663 -0.2192
  837YOPS   C1A11181   9.698   4.795   6.689  0.2843 -0.3242 -0.5382
  837YOPS   D2A11182   9.786   4.613   7.071  0.2082 -0.0562 -0.1176
  837YOPS   C3A11183   9.846   4.677   7.470 -0.2104 -0.0077 -0.2211
  837YOPS   C4A11184  10.209   4.767   7.490  0.0832 -0.0777  0.0468
  837YOPS   C1B11185   9.460   5.348   6.844 -0.2223  0.3349 -0.1303
  837YOPS   C2B11186   9.358   5.517   7.322 -0.3223  0.2091  0.2062
  837YOPS   D3B11187   9.221   5.811   7.510 -0.0007  0.0164  0.2565
  837YOPS   C4B11188   9.167   5.802   7.905 -0.0568 -0.2874 -0.0478
  838YOPS   CNO11189  10.291   3.192   5.930 -0.1077 -0.0022 -0.2171
  838YOPS   PO411190   9.979   3.417   5.547 -0.0772 -0.1480  0.1035
  838YOPS   GL111191   9.788   3.364   5.997 -0.0928 -0.1335 -0.0322
  838YOPS   GL211192   9.816   3.524   6.160  0.1768  0.3355  0.3699
  838YOPS   C1A11193   9.540   3.090   6.251  0.1307  0.1270  0.1621
  838YOPS   D2A11194   9.522   3.132   6.715  0.0246  0.0267  0.1937
  838YOPS   C3A11195   9.588   2.961   7.048  0.1024  0.2004  0.1017
  838YOPS   C4A11196   9.390   2.929   7.452  0.0442 -0.0595  0.0156
  838YOPS   C1B11197   9.877   3.613   6.633  0.4300 -0.2054  0.2420
  838YOPS   C2B11198   9.775   3.510   6.992  0.0554 -0.0018 -0.0655
  838YOPS   D3B11199   9.643   3.356   7.293 -0.4061  0.4490  0.1078
  838YOPS   C4B11200   9.904   3.009   7.465  0.5020 -0.0621 -0.2386
  839YOPS   CNO11201   7.368  16.549   5.420  0.0765 -0.3518  0.1092
  839YOPS   PO411202   7.087  16.229   5.326 -0.0471 -0.0911  0.4484
  839YOPS   GL111203   6.779  16.364   5.638  0.3539  0.1574 -0.1826
  839YOPS   GL211204   6.594  16.303   5.440  0.2319  0.1115  0.0168
  839YOPS   C1A11205   6.698  16.279   5.983 -0.3219 -0.3254  0.0052
  839YOPS   D2A11206   6.799  16.210   6.440  0.0919  0.3533  0.1106
  839YOPS   C3A11207   7.005  15.943   6.636 -0.0423 -0.0716 -0.0610
  839YOPS   C4A11208   6.849  15.593   6.930  0.2613  0.2914 -0.2051
  839YOPS   C1B11209   6.270  16.405   5.699  0.0390 -0.0203  0.0576
  839YOPS   C2B11210   6.254  16.439   6.126  0.1059 -0.0727 -0.0153
  839YOPS   D3B11211   6.373  16.447   6.546  0.0301  0.2578  0.0547
  839YOPS   C4B11212   6.072  16.421   6.869 -0.0495 -0.0464  0.0960
  840YOPS   CNO11213  15.103   4.027   5.568  0.1998  0.3170  0.2038
  840YOPS   PO411214  15.092   4.077   5.935 -0.1087 -0.0815  0.3508
  840YOPS   GL111215  15.328   4.129   6.350  0.0162  0.2570  0.0382
  840YOPS   GL211216  15.509   4.017   6.657 -0.0848 -0.2778  0.1164
  840YOPS   C1A11217  15.040   3.917   6.646  0.1492  0.1179 -0.0093
  840YOPS   D2A11218  15.037   3.622   6.924 -0.1997  0.1503 -0.0645
  840YOPS   C3A11219  14.833   3.371   7.232  0.0333 -0.1917 -0.1844
  840YOPS   C4A11220  14.415   3.339   7.337  0.0291  0.1779 -0.2427
  840YOPS   C1B11221  15.336   4.038   7.083 -0.0864  0.3035  0.1226
  840YOPS   C2B11222  15.102   3.898   7.343  0.3472  0.1964 -0.0541
  840YOPS   D3B11223  15.276   3.574   7.540 -0.2005 -0.0799  0.0701
  840YOPS   C4B11224  15.196   3.439   8.053 -0.0416 -0.0610  0.3526
  841YOPS   CNO11225   2.756   1.134   5.740  0.0068  0.3667 -0.0338
  841YOPS   PO411226   2.776   1.217   6.165 -0.0456 -0.1771  0.1207
  841YOPS   GL111227   2.972   0.917   6.404  0.3636  0.3541 -0.1906
  841YOPS   GL211228   2.720   0.650   6.500 -0.0157 -0.0621  0.0011
  841YOPS   C1A11229   3.112   0.703   6.860 -0.2605  0.2456 -0.0552
  841YOPS   D2A11230   2.969   0.518   7.231 -0.0794  0.1114 -0.0366
  841YOPS   C3A11231   2.656   0.566   7.570  0.2333 -0.0346  0.1740
  841YOPS   C4A11232   2.719   0.750   7.959 -0.1048 -0.0359 -0.0500
  841YOPS   C1B11233   2.723   0.387   6.808  0.1033  0.0848  0.1530
  841YOPS   C2B11234   2.547   0.285   7.219 -0.0576 -0.0140 -0.2879
  841YOPS   D3B11235   2.874   0.139   7.559 -0.1721  0.2071  0.1142
  841YOPS   C4B11236   3.278   0.354   7.690  0.3053 -0.2569  0.0149
  842POPE   NH311237   2.357  14.050   5.558 -0.1995  0.2508  0.1244
  842POPE   PO411238   2.411  13.743   5.782 -0.2262  0.2621  0.1304
  842POPE   GL111239   2.523  13.740   6.194 -0.1235  0.0998  0.0123
  842POPE   GL211240   2.269  13.737   6.372 -0.2273  0.4812  0.1048
  842POPE   C1A11241   2.764  13.624   6.481  0.0083  0.1077  0.3311
  842POPE   D2A11242   2.777  13.182   6.655 -0.0761  0.0241 -0.0141
  842POPE   C3A11243   2.889  13.179   7.084 -0.2060 -0.0736  0.1205
  842POPE   C4A11244   2.790  12.994   7.453  0.5476  0.1757 -0.1688
  842POPE   C1B11245   2.268  13.764   6.798  0.1381  0.3699 -0.3148
  842POPE   C2B11246   2.464  13.770   7.199  0.1460 -0.2994 -0.0750
  842POPE   C3B11247   2.382  13.683   7.699 -0.0762  0.2760  0.2436
  842POPE   C4B11248   2.172  13.534   8.038 -0.0108  0.0432  0.4060
  843POPE   NH311249  13.290   0.932   5.686 -0.0899 -0.0703 -0.0925
  843POPE   PO411250  13.621   0.583   5.544  0.1826  0.0812  0.0165
  843POPE   GL111251  13.517   0.562   6.045  0.3897  0.0306 -0.1340
  843POPE   GL211252  13.726   0.499   6.296  0.0505  0.3270  0.0948
  843POPE   C1A11253  13.243   0.467   6.505 -0.0490 -0.1062 -0.0139
  843POPE   D2A11254  13.049   0.284   6.958 -0.1426  0.0945 -0.0741
  843POPE   C3A11255  12.909   0.409   7.300 -0.1903 -0.0376  0.0623
  843POPE   C4A11256  12.858   0.713   7.613  0.2078  0.1209  0.0485
  843POPE   C1B11257  13.702   0.280   6.721 -0.3802  0.3503 -0.0045
  843POPE   C2B11258  13.465   0.207   7.162 -0.0281 -0.1414 -0.1760
  843POPE   C3B11259  13.319   0.168   7.581 -0.1499 -0.3096 -0.1897
  843POPE   C4B11260  13.251   0.172   8.098 -0.3705 -0.2423 -0.0235
  844POPE   NH311261  13.349  18.455   5.441 -0.0271  0.3030 -0.0242
  844POPE   PO411262  13.251  18.459   5.788 -0.0185 -0.0357  0.0273
  844POPE   GL111263  12.986  18.634   6.094  0.0463  0.2929 -0.0803
  844POPE   GL211264  12.861  18.988   6.032 -0.3427  0.1899 -0.1075
  844POPE   C1A11265  12.769  18.727   6.413  0.0068 -0.1502 -0.1677
  844POPE   D2A11266  12.631  18.580   6.829  0.0986 -0.5361  0.2575
  844POPE   C3A11267  12.688  18.174   7.027 -0.2513 -0.1623 -0.2131
  844POPE   C4A11268  12.635  17.993   7.421  0.0576 -0.2176  0.0308
  844POPE   C1B11269  12.403  19.042   6.211  0.1841  0.0555 -0.4110
  844POPE   C2B11270  11.968  19.107   6.121  0.1538  0.0263  0.0888
  844POPE   C3B11271  11.774  18.753   6.343  0.2365 -0.4657  0.0601
  844POPE   C4B11272  11.712  18.457   6.702  0.1469  0.1566  0.1385
  845POPE   NH311273  13.944  14.774   5.502 -0.0220  0.1394 -0.1153
  845POPE   PO411274  14.214  14.502   5.864 -0.0387  0.1050  0.0852
  845POPE   GL111275  14.324  14.320   6.310 -0.1012  0.1175  0.0948
  845POPE   GL211276  14.535  14.615   6.458 -0.1938  0.0823 -0.1231
  845POPE   C1A11277  14.200  14.119   6.691  0.2461  0.1510  0.1304
  845POPE   D2A11278  13.922  14.257   6.964 -0.0742  0.2407 -0.0783
  845POPE   C3A11279  14.080  14.429   7.302  0.0266 -0.1283 -0.3046
  845POPE   C4A11280  14.088  14.418   7.746 -0.5094 -0.0375  0.2479
  845POPE   C1B11281  14.554  14.441   6.939  0.3194 -0.3693 -0.1436
  845POPE   C2B11282  14.613  14.406   7.447 -0.4049 -0.1081 -0.0517
  845POPE   C3B11283  14.672  14.406   7.930  0.2849 -0.1235 -0.0849
  845POPE   C4B11284  14.662  14.394   8.375  0.1066 -0.1065  0.1944
  846POPE   NH311285   3.358  13.110   5.678  0.1410 -0.0848  0.0440
  846POPE   PO411286   3.699  13.444   5.542  0.2806 -0.0066  0.0201
  846POPE   GL111287   3.651  13.469   6.001  0.1388  0.0127  0.2308
  846POPE   GL211288   3.309  13.455   6.130  0.2591 -0.1539  0.1089
  846POPE   C1A11289   4.013  13.524   6.308 -0.3710 -0.0642  0.0491
  846POPE   D2A11290   4.163  13.803   6.623  0.0606  0.1750 -0.1246
  846POPE   C3A11291   4.302  13.802   7.030 -0.0220 -0.0549 -0.3136
  846POPE   C4A11292   4.436  13.682   7.477  0.0038 -0.1217 -0.6851
  846POPE   C1B11293   3.384  13.231   6.450 -0.0715 -0.0478 -0.1738
  846POPE   C2B11294   3.813  13.173   6.728 -0.1251 -0.0725 -0.0631
  846POPE   C3B11295   4.123  13.253   6.872  0.2286  0.0748  0.0334
  846POPE   C4B11296   4.303  13.297   7.196 -0.0105  0.1519  0.0626
  847POPE   NH311297  17.640   9.080   6.416  0.2623  0.0353  0.2777
  847POPE   PO411298  17.684   9.506   6.528 -0.0469 -0.3152  0.2099
  847POPE   GL111299  17.517   9.389   6.894 -0.0780 -0.0441  0.0484
  847POPE   GL211300  17.503   9.099   6.896 -0.1252  0.2513 -0.0634
  847POPE   C1A11301  17.498   9.374   7.329 -0.0222 -0.2832  0.1686
  847POPE   D2A11302  17.678   9.555   7.697 -0.0360 -0.3547  0.0933
  847POPE   C3A11303  17.924   9.342   8.037  0.0756  0.0509  0.0003
  847POPE   C4A11304  18.254   9.190   8.459  0.0086 -0.3078 -0.1563
  847POPE   C1B11305  17.480   8.852   7.324  0.1249 -0.3235  0.3245
  847POPE   C2B11306  17.534   9.042   7.732 -0.2291 -0.1071 -0.1994
  847POPE   C3B11307  17.397   9.370   8.125  0.0704  0.0772 -0.2347
  847POPE   C4B11308  17.158   9.350   8.471  0.0160 -0.0984 -0.0245
  848POPE   NH311309   8.362  16.103   5.346  0.0069 -0.0739  0.0469
  848POPE   PO411310   8.198  16.456   5.057 -0.0565 -0.2033  0.0213
  848POPE   GL111311   8.236  16.553   5.516 -0.3703  0.0112  0.2425
  848POPE   GL211312   7.993  16.723   5.527  0.0297 -0.0391  0.0341
  848POPE   C1A11313   8.309  16.523   5.907  0.1379 -0.1223 -0.2567
  848POPE   D2A11314   8.364  16.370   6.206 -0.1121 -0.0721  0.0595
  848POPE   C3A11315   8.148  16.290   6.566  0.1541  0.1132  0.2108
  848POPE   C4A11316   8.204  16.468   6.971 -0.0139 -0.0720 -0.0041
  848POPE   C1B11317   7.792  16.615   5.891  0.2610 -0.2188  0.4441
  848POPE   C2B11318   7.528  16.526   6.212  0.1386  0.1276  0.2467
  848POPE   C3B11319   7.222  16.471   6.400  0.1251 -0.1124  0.2186
  848POPE   C4B11320   7.228  16.416   6.788 -0.0127 -0.0676 -0.1179
  849POPE   NH311321  11.801   7.321   5.764 -0.2696  0.0174  0.1941
  849POPE   PO411322  12.269   7.326   5.574 -0.0389 -0.1350  0.0029
  849POPE   GL111323  12.130   7.418   6.111 -0.0895 -0.1994 -0.2179
  849POPE   GL211324  12.189   7.263   6.311 -0.0638 -0.1582 -0.1791
  849POPE   C1A11325  11.930   7.738   6.346 -0.0092 -0.0409 -0.1933
  849POPE   D2A11326  11.998   7.949   6.792 -0.0357  0.1083  0.0095
  849POPE   C3A11327  11.899   8.043   7.230 -0.0232 -0.0426 -0.1387
  849POPE   C4A11328  11.909   7.832   7.682  0.0239 -0.1388  0.1966
  849POPE   C1B11329  12.076   6.911   6.474  0.2194 -0.1319 -0.4376
  849POPE   C2B11330  12.032   6.914   6.792  0.0892  0.4094 -0.0571
  849POPE   C3B11331  12.204   6.997   7.214 -0.2155 -0.2678 -0.1719
  849POPE   C4B11332  12.504   6.995   7.647  0.1290 -0.1692 -0.1251
  850POPE   NH311333  15.307  11.989   5.985  0.1414  0.4051 -0.2474
  850POPE   PO411334  15.628  11.698   5.954 -0.1156  0.2484 -0.1768
  850POPE   GL111335  15.613  11.477   6.283 -0.1634 -0.0328 -0.0024
  850POPE   GL211336  15.989  11.559   6.294  0.0565 -0.0689  0.2039
  850POPE   C1A11337  15.644  11.211   6.666  0.0379  0.0177 -0.2695
  850POPE   D2A11338  15.563  10.973   6.892  0.0892  0.0185 -0.0442
  850POPE   C3A11339  15.660  11.090   7.234  0.1550  0.2517  0.0469
  850POPE   C4A11340  15.569  11.084   7.596 -0.1771  0.3264 -0.3022
  850POPE   C1B11341  16.017  11.656   6.672  0.0627 -0.2780  0.1284
  850POPE   C2B11342  15.962  11.518   6.977  0.1554 -0.1441  0.1317
  850POPE   C3B11343  15.787  11.487   7.467  0.1405  0.1209 -0.0727
  850POPE   C4B11344  15.408  11.513   7.773  0.0875  0.0075 -0.1844
  851POPE   NH311345   2.035   2.393   5.809  0.2253  0.0076 -0.1438
  851POPE   PO411346   2.065   1.925   5.990 -0.1428 -0.0203 -0.1625
  851POPE   GL111347   1.945   1.628   6.276  0.0735  0.0964  0.2029
  851POPE   GL211348   1.659   1.765   6.566 -0.0900 -0.3465  0.3138
  851POPE   C1A11349   2.019   1.405   6.673  0.0813  0.2735  0.0789
  851POPE   D2A11350   2.021   1.224   7.033 -0.2239 -0.0431  0.0351
  851POPE   C3A11351   2.102   1.305   7.483  0.0402  0.0025  0.0346
  851POPE   C4A11352   2.274   1.315   7.916  0.1522 -0.1608 -0.0517
  851POPE   C1B11353   2.008   1.832   6.941  0.1567 -0.1608 -0.1161
  851POPE   C2B11354   2.129   1.891   7.429 -0.0305  0.2570 -0.2389
  851POPE   C3B11355   2.104   1.926   7.857  0.0029 -0.0225 -0.0106
  851POPE   C4B11356   2.103   2.339   8.144 -0.1533 -0.1855  0.0879
  852POPE   NH311357  16.016  12.022   6.104 -0.0559  0.0040 -0.2289
  852POPE   PO411358  15.643  12.411   6.065  0.0141  0.1810 -0.1237
  852POPE   GL111359  15.635  12.432   6.618  0.1062  0.1461  0.0598
  852POPE   GL211360  15.805  12.661   6.622  0.0908 -0.0514 -0.4501
  852POPE   C1A11361  15.419  12.342   7.024  0.1235 -0.0782  0.3213
  852POPE   D2A11362  15.284  12.328   7.411 -0.1152 -0.1345 -0.4182
  852POPE   C3A11363  15.385  12.512   7.802  0.2527 -0.0250  0.0712
  852POPE   C4A11364  15.280  12.296   8.143  0.4434 -0.0644  0.0176
  852POPE   C1B11365  15.817  12.757   7.088  0.1995  0.0742 -0.0214
  852POPE   C2B11366  15.648  12.876   7.449  0.0718 -0.0338 -0.1572
  852POPE   C3B11367  15.465  13.041   7.836  0.1494 -0.1488 -0.3819
  852POPE   C4B11368  15.305  13.027   8.303 -0.2977  0.0296 -0.2524
  853POPE   NH311369  11.157  14.443   5.530 -0.0627  0.2979 -0.0277
  853POPE   PO411370  10.846  14.127   5.530 -0.1757 -0.1405  0.1189
  853POPE   GL111371  10.648  14.294   5.888 -0.0878 -0.2955  0.0832
  853POPE   GL211372  10.783  14.587   5.964  0.3319  0.1447 -0.3877
  853POPE   C1A11373  10.681  14.144   6.262 -0.1465  0.3357  0.3207
  853POPE   D2A11374  10.773  14.265   6.673  0.1039 -0.1637  0.3514
  853POPE   C3A11375  10.422  14.217   7.029  0.0310  0.0055 -0.1778
  853POPE   C4A11376  10.337  13.875   7.331 -0.1178  0.2292  0.0492
  853POPE   C1B11377  10.829  14.666   6.309 -0.1762  0.1290 -0.0787
  853POPE   C2B11378  11.061  14.765   6.684  0.1506 -0.0040 -0.2996
  853POPE   C3B11379  11.196  14.745   7.047  0.1316 -0.0174 -0.0619
  853POPE   C4B11380  11.508  14.716   7.332  0.0736 -0.0129  0.3897
  854POPE   NH311381  16.951  16.136   5.639 -0.0458 -0.0791  0.2384
  854POPE   PO411382  17.464  15.916   5.713 -0.2391  0.1343  0.2279
  854POPE   GL111383  17.614  16.050   6.252  0.0437 -0.1306  0.2839
  854POPE   GL211384  17.703  15.849   6.455  0.1758 -0.1377 -0.0305
  854POPE   C1A11385  17.455  16.292   6.589 -0.5077  0.3100  0.0295
  854POPE   D2A11386  17.377  16.343   7.052 -0.1632 -0.3047  0.4257
  854POPE   C3A11387  17.058  15.950   7.300  0.0319  0.2168 -0.4784
  854POPE   C4A11388  16.613  16.011   7.405  0.1018 -0.0793  0.2199
  854POPE   C1B11389  17.590  15.877   6.832  0.1532  0.2515  0.4159
  854POPE   C2B11390  17.550  15.869   7.184  0.2363  0.0373 -0.1607
  854POPE   C3B11391  17.744  15.833   7.646 -0.1201 -0.2348 -0.2204
  854POPE   C4B11392  17.787  15.837   8.069 -0.1611 -0.0631  0.1440
  855POPE   NH311393  15.549  12.842   6.276  0.0245 -0.0998  0.3679
  855POPE   PO411394  15.310  13.163   5.992 -0.0378 -0.3713 -0.2574
  855POPE   GL111395  15.250  13.276   6.419 -0.2061 -0.0531  0.2358
  855POPE   GL211396  15.001  13.038   6.466  0.1015 -0.2967 -0.2840
  855POPE   C1A11397  15.066  13.332   6.846  0.1824 -0.0313 -0.0699
  855POPE   D2A11398  14.957  13.561   7.240  0.0992 -0.2703 -0.2083
  855POPE   C3A11399  14.480  13.542   7.446  0.1201 -0.1727  0.0341
  855POPE   C4A11400  14.145  13.605   7.659  0.2941 -0.1467 -0.1305
  855POPE   C1B11401  14.774  12.968   6.809  0.1460 -0.0519  0.1359
  855POPE   C2B11402  14.564  12.706   7.084 -0.0726 -0.0757  0.2043
  855POPE   C3B11403  14.438  12.656   7.442 -0.0153 -0.1471  0.1353
  855POPE   C4B11404  14.425  12.565   7.935  0.1493 -0.2013  0.2712
  856POPE   NH311405   9.894   7.598   5.260 -0.3270  0.2339 -0.1940
  856POPE   PO411406   9.877   8.016   5.360 -0.2199 -0.0242 -0.3168
  856POPE   GL111407   9.616   7.769   5.707  0.0414  0.1606 -0.3113
  856POPE   GL211408   9.684   7.426   5.802 -0.0463  0.1462  0.2405
  856POPE   C1A11409   9.426   7.741   6.134  0.4203  0.0486 -0.1645
  856POPE   D2A11410   9.274   7.560   6.513  0.1241 -0.2628 -0.0158
  856POPE   C3A11411   9.219   7.675   6.907 -0.1421  0.0636 -0.2431
  856POPE   C4A11412   9.149   7.644   7.319  0.3137  0.0951  0.1042
  856POPE   C1B11413   9.933   7.572   6.259 -0.0550  0.1669 -0.1658
  856POPE   C2B11414   9.860   7.880   6.742  0.0471 -0.0012 -0.0703
  856POPE   C3B11415   9.799   7.861   7.239 -0.1459 -0.1251  0.1699
  856POPE   C4B11416   9.990   7.521   7.639 -0.0294 -0.0669 -0.1193
  857POPE   NH311417  10.629  12.574   5.310 -0.0742 -0.1023  0.2496
  857POPE   PO411418  10.323  12.807   5.256  0.0038 -0.0900 -0.1739
  857POPE   GL111419  10.103  12.933   5.663 -0.1274  0.1890  0.0537
  857POPE   GL211420   9.807  13.014   5.854  0.3311 -0.1650 -0.0905
  857POPE   C1A11421  10.224  13.238   6.007 -0.2075 -0.1585 -0.0722
  857POPE   D2A11422  10.197  13.236   6.482 -0.0351  0.1298  0.0830
  857POPE   C3A11423  10.112  12.766   6.646 -0.0446 -0.1301  0.1522
  857POPE   C4A11424  10.262  12.314   6.874  0.3151  0.0502  0.1338
  857POPE   C1B11425  10.139  12.796   6.176 -0.0213 -0.4266  0.1027
  857POPE   C2B11426  10.520  12.848   6.189  0.0557 -0.0472  0.2287
  857POPE   C3B11427  10.730  13.082   6.528 -0.0568 -0.0859 -0.2648
  857POPE   C4B11428  10.707  13.214   6.942  0.1289  0.1801  0.0416
  858POPE   NH311429  12.352  11.205   5.803 -0.0790 -0.2588  0.1561
  858POPE   PO411430  12.701  11.372   6.106  0.4799 -0.3980  0.0775
  858POPE   GL111431  12.828  11.519   6.478  0.3533 -0.2046  0.0330
  858POPE   GL211432  12.435  11.402   6.608  0.1350  0.2294  0.0457
  858POPE   C1A11433  13.081  11.282   6.674 -0.1423  0.2014 -0.2239
  858POPE   D2A11434  13.381  11.325   6.925  0.0904  0.0652  0.5625
  858POPE   C3A11435  13.235  11.521   7.267  0.0152  0.0041  0.2337
  858POPE   C4A11436  12.896  11.686   7.497  0.2159  0.1628  0.0338
  858POPE   C1B11437  12.241  11.353   6.969  0.0392  0.0857 -0.3850
  858POPE   C2B11438  12.484  11.365   7.486  0.0986 -0.1278  0.1566
  858POPE   C3B11439  12.338  11.491   7.984  0.1376 -0.3242 -0.1538
  858POPE   C4B11440  12.235  11.097   8.150 -0.0688  0.2284 -0.0569
  859POPE   NH311441   5.634  14.364   5.403 -0.1550 -0.0902  0.0448
  859POPE   PO411442   5.194  14.462   5.357  0.0877 -0.4178  0.1507
  859POPE   GL111443   5.208  14.514   5.746 -0.0077 -0.1348 -0.0322
  859POPE   GL211444   5.008  14.638   5.978  0.3335  0.3485 -0.0173
  859POPE   C1A11445   5.512  14.619   6.161 -0.0826 -0.1464  0.0718
  859POPE   D2A11446   5.573  14.627   6.681  0.1090  0.0598  0.0759
  859POPE   C3A11447   5.584  14.596   7.162 -0.0744  0.0421  0.1533
  859POPE   C4A11448   5.739  14.780   7.499 -0.0054 -0.1040 -0.0276
  859POPE   C1B11449   5.118  14.382   6.417  0.0587  0.0482  0.2230
  859POPE   C2B11450   5.205  14.280   6.709  0.3161  0.1158  0.2481
  859POPE   C3B11451   5.235  14.238   7.143  0.2446  0.1530 -0.1825
  859POPE   C4B11452   5.189  14.587   7.465  0.3221 -0.1183 -0.1162
  860POPE   NH311453  14.635  13.617   5.509 -0.2658 -0.1511 -0.0641
  860POPE   PO411454  14.721  13.174   5.681 -0.0284 -0.3089  0.1903
  860POPE   GL111455  14.721  13.372   6.114  0.0153 -0.0721  0.2975
  860POPE   GL211456  14.476  13.608   6.086  0.2227  0.3214 -0.4784
  860POPE   C1A11457  14.709  13.392   6.574 -0.0415 -0.0534  0.0702
  860POPE   D2A11458  14.584  13.350   7.001  0.0508 -0.1022  0.1429
  860POPE   C3A11459  14.700  13.089   7.324  0.1011 -0.1170  0.0888
  860POPE   C4A11460  14.983  13.283   7.690 -0.0489  0.2356 -0.0517
  860POPE   C1B11461  14.245  13.561   6.511  0.1761  0.0979 -0.0361
  860POPE   C2B11462  14.174  13.610   6.966  0.1698  0.0608  0.1025
  860POPE   C3B11463  13.874  13.608   7.209 -0.0232  0.0610 -0.2687
  860POPE   C4B11464  13.672  13.443   7.485 -0.0859  0.0339  0.0796
  861POPE   NH311465   4.975   9.408   6.003 -0.1684 -0.1138  0.1270
  861POPE   PO411466   4.598   9.186   6.065 -0.1333 -0.2622 -0.0533
  861POPE   GL111467   4.494   9.081   6.508 -0.0846  0.2270  0.0910
  861POPE   GL211468   4.152   8.981   6.565  0.1569  0.0596 -0.2223
  861POPE   C1A11469   4.527   9.221   6.953 -0.2757  0.0391  0.2835
  861POPE   D2A11470   4.628   9.273   7.392  0.0275  0.2577  0.0421
  861POPE   C3A11471   4.763   9.004   7.695 -0.1542  0.0759  0.1688
  861POPE   C4A11472   4.878   9.079   8.123 -0.1679 -0.0089 -0.1615
  861POPE   C1B11473   4.282   8.819   6.969  0.3188  0.0517  0.0422
  861POPE   C2B11474   4.392   8.841   7.349  0.0068 -0.2000 -0.0270
  861POPE   C3B11475   4.334   8.717   7.792 -0.1343 -0.2269 -0.1632
  861POPE   C4B11476   4.184   8.503   8.181 -0.0787  0.1313 -0.1290
  862POPE   NH311477  12.201   3.385   5.770  0.0224 -0.0005  0.3280
  862POPE   PO411478  11.806   3.496   5.775 -0.0533 -0.2749  0.1687
  862POPE   GL111479  11.889   3.436   6.151  0.1379  0.2740 -0.0401
  862POPE   GL211480  12.014   3.662   6.323 -0.0026  0.0741  0.0171
  862POPE   C1A11481  11.710   3.231   6.420  0.0783 -0.2617 -0.4717
  862POPE   D2A11482  11.592   3.377   6.751 -0.3926  0.0471  0.0689
  862POPE   C3A11483  11.506   3.134   7.060  0.1377  0.0005 -0.3313
  862POPE   C4A11484  11.274   2.980   7.378  0.1182  0.4478  0.0863
  862POPE   C1B11485  11.961   3.647   6.800 -0.2387 -0.2972  0.2760
  862POPE   C2B11486  11.719   3.568   7.235  0.1142  0.1496 -0.1644
  862POPE   C3B11487  11.480   3.403   7.620 -0.1842 -0.3154 -0.0980
  862POPE   C4B11488  11.644   2.973   7.784  0.0256 -0.1335 -0.1281
  863POPE   NH311489   3.734  13.998   5.786  0.0242  0.2058 -0.0468
  863POPE   PO411490   3.395  14.074   5.937 -0.1396  0.1142 -0.5131
  863POPE   GL111491   3.162  13.929   6.203  0.1791 -0.1540  0.1087
  863POPE   GL211492   2.886  14.151   6.343 -0.1060  0.1370  0.1607
  863POPE   C1A11493   3.205  13.664   6.581  0.1673  0.1984 -0.1310
  863POPE   D2A11494   3.406  13.331   6.926 -0.0005 -0.0907  0.1756
  863POPE   C3A11495   3.254  13.433   7.358 -0.1055 -0.1611  0.0249
  863POPE   C4A11496   3.440  13.773   7.511 -0.0324 -0.0101  0.1144
  863POPE   C1B11497   2.830  14.043   6.751 -0.1306  0.1361 -0.0724
  863POPE   C2B11498   2.936  13.759   7.087 -0.2332  0.0305  0.0102
  863POPE   C3B11499   2.883  13.811   7.553  0.3251  0.1970 -0.0870
  863POPE   C4B11500   2.947  13.810   7.927 -0.3423  0.2301  0.3287
  864POPE   NH311501   9.659   0.491   5.580  0.2149  0.0249  0.0935
  864POPE   PO411502  10.003   0.805   5.550  0.1984 -0.1656 -0.0961
  864POPE   GL111503  10.125   0.871   5.887  0.0118  0.1294 -0.1180
  864POPE   GL211504  10.271   1.257   5.948 -0.0501  0.3757 -0.1804
  864POPE   C1A11505  10.593   0.867   6.112 -0.1644  0.0854  0.1350
  864POPE   D2A11506  10.959   0.802   6.270 -0.0733  0.1422 -0.0531
  864POPE   C3A11507  11.065   0.645   6.603 -0.1079 -0.1961  0.4549
  864POPE   C4A11508  11.174   0.683   7.038 -0.5870  0.3412  0.3246
  864POPE   C1B11509  10.265   1.156   6.381 -0.3352 -0.0428  0.0443
  864POPE   C2B11510  10.646   1.040   6.625 -0.2776 -0.0981  0.1134
  864POPE   C3B11511  10.745   0.985   6.987 -0.2736 -0.0449 -0.0120
  864POPE   C4B11512  10.721   0.592   6.940 -0.2456 -0.0178  0.0662
  865POPE   NH311513  10.245   9.103   6.137 -0.2190  0.1314  0.1516
  865POPE   PO411514   9.979   9.145   5.741  0.1738  0.1606  0.1272
  865POPE   GL111515   9.731   9.279   6.207  0.0065 -0.0048  0.1329
  865POPE   GL211516  10.039   9.601   6.230  0.0091 -0.4203 -0.1822
  865POPE   C1A11517   9.785   9.109   6.557 -0.1687 -0.1964  0.1370
  865POPE   D2A11518   9.656   9.085   7.044 -0.1196  0.2597  0.0375
  865POPE   C3A11519   9.994   8.864   7.375 -0.0503 -0.1068  0.1721
  865POPE   C4A11520  10.193   8.983   7.694 -0.1590  0.1280 -0.0668
  865POPE   C1B11521   9.885   9.595   6.586 -0.0101  0.1171  0.0239
  865POPE   C2B11522   9.705   9.706   7.020 -0.0300  0.1225  0.1958
  865POPE   C3B11523   9.513   9.818   7.485  0.1222  0.0002 -0.0211
  865POPE   C4B11524   9.728   9.765   7.844 -0.1584 -0.0948  0.2254
  866POPE   NH311525   9.008   4.891   5.771 -0.1816  0.2812  0.1724
  866POPE   PO411526   9.177   4.547   5.960 -0.0273  0.1441 -0.1097
  866POPE   GL111527   9.285   4.183   6.166  0.1014 -0.0249 -0.2747
  866POPE   GL211528   9.526   3.919   6.118 -0.2191  0.0343 -0.0235
  866POPE   C1A11529   9.085   4.039   6.578  0.2972 -0.1323  0.1874
  866POPE   D2A11530   9.211   4.103   6.993 -0.0496 -0.4717 -0.0105
  866POPE   C3A11531   8.933   3.905   7.312  0.0320  0.0716 -0.1851
  866POPE   C4A11532   8.987   3.788   7.689 -0.2812 -0.0277  0.0767
  866POPE   C1B11533   9.550   4.039   6.574 -0.1101  0.2250  0.4472
  866POPE   C2B11534   9.384   4.416   6.581 -0.2102 -0.3968 -0.0445
  866POPE   C3B11535   9.305   4.630   6.930  0.0425 -0.0558 -0.6164
  866POPE   C4B11536   9.448   4.956   7.175 -0.1929 -0.1186  0.0191
  867POPE   NH311537  12.389   2.328   5.489  0.2720 -0.0320  0.1178
  867POPE   PO411538  12.379   1.980   5.764 -0.0551 -0.2000  0.0700
  867POPE   GL111539  12.661   1.914   6.065 -0.1527  0.0614 -0.2560
  867POPE   GL211540  12.601   1.562   6.048 -0.1453  0.1439 -0.3506
  867POPE   C1A11541  12.733   1.883   6.539 -0.1030 -0.1196  0.0758
  867POPE   D2A11542  12.798   1.956   6.914 -0.1097 -0.1857  0.0777
  867POPE   C3A11543  12.720   2.258   7.219 -0.0215 -0.0685  0.0412
  867POPE   C4A11544  12.544   2.304   7.613  0.0339 -0.0934  0.1802
  867POPE   C1B11545  12.662   1.296   6.438  0.2112 -0.2799 -0.2512
  867POPE   C2B11546  12.671   1.491   6.849  0.0452  0.1170 -0.3887
  867POPE   C3B11547  12.529   1.493   7.264  0.0412 -0.3333  0.3092
  867POPE   C4B11548  12.350   1.783   7.607 -0.1050  0.2908 -0.1231
  868POPE   NH311549  14.416   4.384   6.050  0.1143  0.1533  0.1769
  868POPE   PO411550  14.119   4.217   5.690 -0.1206  0.4950 -0.3345
  868POPE   GL111551  13.915   4.109   6.133  0.0075  0.1001  0.3153
  868POPE   GL211552  14.078   3.843   6.262 -0.0122 -0.0676 -0.2458
  868POPE   C1A11553  13.558   3.892   6.560  0.0754  0.0510 -0.3562
  868POPE   D2A11554  13.419   3.869   6.851 -0.0551 -0.2256 -0.1232
  868POPE   C3A11555  13.745   3.928   7.061 -0.0625  0.4138  0.0135
  868POPE   C4A11556  13.807   3.912   7.510  0.1551  0.1305 -0.1035
  868POPE   C1B11557  13.880   3.481   6.390  0.0619 -0.1218  0.0109
  868POPE   C2B11558  14.087   3.368   6.791  0.0761 -0.0995  0.0516
  868POPE   C3B11559  13.989   3.501   7.159  0.3857 -0.3391  0.4426
  868POPE   C4B11560  13.901   3.405   7.591 -0.1673 -0.0674  0.2373
  869POPE   NH311561   2.115   4.549   6.484 -0.0256 -0.3430 -0.4993
  869POPE   PO411562   1.750   4.356   6.542  0.0711 -0.1289 -0.1992
  869POPE   GL111563   1.926   4.199   6.772  0.2634 -0.0820 -0.0363
  869POPE   GL211564   1.813   3.885   6.686 -0.2248  0.1621 -0.0276
  869POPE   C1A11565   2.035   4.339   7.176  0.1944  0.1455 -0.0210
  869POPE   D2A11566   1.947   4.362   7.579  0.1054 -0.2406 -0.0585
  869POPE   C3A11567   2.024   3.979   7.833 -0.0427  0.0015  0.1230
  869POPE   C4A11568   2.184   3.604   8.026 -0.1282  0.2462 -0.2163
  869POPE   C1B11569   1.822   3.564   7.021  0.0983 -0.3429 -0.2396
  869POPE   C2B11570   1.814   3.461   7.448  0.0815  0.0807  0.0606
  869POPE   C3B11571   1.739   3.254   7.803 -0.1744  0.1510 -0.0085
  869POPE   C4B11572   1.736   3.325   8.293 -0.1862  0.0996  0.1561
  870POPE   NH311573  17.981  15.890   5.672  0.2780  0.1004 -0.0112
  870POPE   PO411574  18.324  16.186   5.576  0.0897  0.2043 -0.1117
  870POPE   GL111575  18.326  16.095   5.971  0.0644 -0.0903 -0.1324
  870POPE   GL211576  18.390  15.852   6.147  0.1136  0.0015  0.1296
  870POPE   C1A11577  18.368  16.415   6.228  0.1459  0.1100 -0.0032
  870POPE   D2A11578  18.469  16.568   6.683  0.1822  0.0869 -0.1584
  870POPE   C3A11579  18.561  16.494   7.042  0.0930  0.0308  0.0787
  870POPE   C4A11580  18.501  16.595   7.473  0.1689  0.0039  0.0879
  870POPE   C1B11581  18.412  16.018   6.539  0.0217  0.2208  0.0549
  870POPE   C2B11582  18.490  15.929   6.967  0.2401  0.1414  0.0541
  870POPE   C3B11583  18.693  16.085   7.287 -0.1904  0.6244  0.1693
  870POPE   C4B11584  18.709  16.153   7.669 -0.1768 -0.0747 -0.1422
  871POPE   NH311585  10.891   9.795   6.129 -0.0642  0.0490 -0.1276
  871POPE   PO411586  10.521   9.565   6.125 -0.0610 -0.2175 -0.0850
  871POPE   GL111587  10.651   9.486   6.503 -0.1111  0.0136 -0.0947
  871POPE   GL211588  10.330   9.351   6.592 -0.5440  0.1827 -0.2254
  871POPE   C1A11589  10.829   9.642   6.818 -0.0323 -0.0643 -0.3099
  871POPE   D2A11590  10.799   9.409   7.234 -0.0992 -0.2451  0.0291
  871POPE   C3A11591  10.906   9.593   7.551  0.2134  0.0276 -0.0568
  871POPE   C4A11592  10.969   9.705   7.982 -0.0260  0.0895 -0.1061
  871POPE   C1B11593  10.122   9.256   6.933  0.4341  0.1891 -0.2504
  871POPE   C2B11594  10.028   9.426   7.301  0.1257  0.2039  0.2767
  871POPE   C3B11595   9.690   9.331   7.489 -0.1944  0.0174 -0.0812
  871POPE   C4B11596   9.403   8.962   7.490  0.0805 -0.0151 -0.0034
  872YOPE   NH311597   3.911   1.551   5.701 -0.0406 -0.1904  0.0079
  872YOPE   PO411598   3.437   1.443   5.681  0.0075 -0.0366  0.0082
  872YOPE   GL111599   3.532   1.509   6.023  0.1195 -0.0136 -0.2920
  872YOPE   GL211600   3.828   1.435   6.175  0.0871 -0.2603 -0.2462
  872YOPE   C1A11601   3.412   1.388   6.474  0.3987 -0.1482  0.0281
  872YOPE   D2A11602   2.934   1.407   6.626 -0.0596  0.0340  0.1114
  872YOPE   C3A11603   2.713   1.144   6.767  0.2602  0.1978 -0.2173
  872YOPE   C4A11604   2.389   0.800   6.909 -0.3533 -0.1517  0.2196
  872YOPE   C1B11605   4.044   1.775   6.467  0.0275  0.2161 -0.1003
  872YOPE   C2B11606   4.110   1.974   6.814 -0.0176  0.2031  0.4874
  872YOPE   D3B11607   4.302   1.890   7.197 -0.2099 -0.5753  0.2948
  872YOPE   C4B11608   4.039   2.009   7.615 -0.3241  0.0361 -0.1853
  873YOPE   NH311609   7.024  11.487   5.559 -0.2012  0.1709  0.0728
  873YOPE   PO411610   6.936  11.795   5.288  0.0690 -0.2047  0.4247
  873YOPE   GL111611   6.653  12.017   5.621 -0.1552 -0.1690  0.0255
  873YOPE   GL211612   6.716  11.871   5.954 -0.0326 -0.0095  0.1191
  873YOPE   C1A11613   6.427  12.231   5.969 -0.2645  0.2994 -0.1976
  873YOPE   D2A11614   6.351  12.313   6.292 -0.0211  0.1873 -0.1116
  873YOPE   C3A11615   6.243  12.310   6.685 -0.2485  0.0004 -0.1708
  873YOPE   C4A11616   6.001  12.168   7.106  0.0471  0.1389 -0.1109
  873YOPE   C1B11617   6.784  12.152   6.391 -0.2891  0.1052 -0.2691
  873YOPE   C2B11618   6.777  12.270   6.723  0.1430  0.0296  0.2973
  873YOPE   D3B11619   6.534  12.629   7.008 -0.5014  0.0574 -0.0153
  873YOPE   C4B11620   6.249  12.519   7.410 -0.1027  0.1153 -0.2314
  874YOPE   NH311621  15.281  18.349   5.744 -0.0411  0.3380 -0.0630
  874YOPE   PO411622  14.977  17.981   5.912  0.0105  0.2750  0.0837
  874YOPE   GL111623  14.951  18.292   6.124  0.0066  0.1837  0.2911
  874YOPE   GL211624  14.631  18.400   6.136 -0.1571 -0.0465 -0.2130
  874YOPE   C1A11625  15.020  18.602   6.585 -0.0886 -0.1769  0.0643
  874YOPE   D2A11626  14.854  18.658   6.973  0.0206  0.3985  0.3316
  874YOPE   C3A11627  15.061  18.518   7.372  0.5306 -0.1952  0.0851
  874YOPE   C4A11628  15.120  18.066   7.506  0.3996 -0.1687  0.1085
  874YOPE   C1B11629  14.527  18.579   6.595 -0.2851  0.0967 -0.0820
  874YOPE   C2B11630  14.343  18.448   6.863  0.0857  0.0511 -0.2470
  874YOPE   D3B11631  14.186  18.029   7.058 -0.1646 -0.1959  0.1720
  874YOPE   C4B11632  14.178  17.969   7.502 -0.0650  0.2924  0.1453
  875YOPE   NH311633  15.734   3.652   6.325 -0.2983 -0.0947 -0.2727
  875YOPE   PO411634  16.074   3.512   6.393  0.2960 -0.1355  0.1498
  875YOPE   GL111635  16.050   3.798   6.734 -0.1487 -0.0989 -0.0498
  875YOPE   GL211636  16.371   3.610   6.788  0.1799 -0.4636  0.0503
  875YOPE   C1A11637  15.924   4.131   7.020  0.2567  0.0644  0.1594
  875YOPE   D2A11638  15.992   4.385   7.424 -0.1754  0.3165  0.0247
  875YOPE   C3A11639  15.846   4.370   7.825  0.2271 -0.0791 -0.2339
  875YOPE   C4A11640  15.612   4.469   8.147 -0.0076 -0.0080  0.0331
  875YOPE   C1B11641  16.367   3.691   7.189  0.1608 -0.0927 -0.2630
  875YOPE   C2B11642  16.202   3.888   7.487  0.2090 -0.0641  0.2024
  875YOPE   D3B11643  16.247   4.133   7.906 -0.0702  0.0235  0.1601
  875YOPE   C4B11644  16.092   4.360   8.333 -0.3193 -0.1159  0.1942
  876YOPE   NH311645  17.552  15.495   5.987  0.1484 -0.1206  0.1669
  876YOPE   PO411646  17.920  15.621   6.060  0.1067  0.1462 -0.0416
  876YOPE   GL111647  18.163  15.585   6.490  0.2177 -0.1298 -0.4398
  876YOPE   GL211648  18.424  15.506   6.624  0.2789 -0.2077 -0.0705
  876YOPE   C1A11649  18.051  15.693   6.905  0.0433  0.0387 -0.0427
  876YOPE   D2A11650  17.912  15.485   7.273 -0.1997  0.0887  0.3438
  876YOPE   C3A11651  17.678  15.346   7.579  0.0000  0.3537  0.1080
  876YOPE   C4A11652  17.747  15.330   8.031 -0.0096 -0.0346  0.1291
  876YOPE   C1B11653  18.460  15.382   6.993  0.1725 -0.0125  0.2210
  876YOPE   C2B11654  18.342  15.268   7.351  0.0271  0.1429  0.2678
  876YOPE   D3B11655  18.142  15.077   7.761 -0.2467 -0.3024  0.1276
  876YOPE   C4B11656  18.060  14.852   8.057  0.0100  0.0124  0.2460
  877YOPE   NH311657  14.835   2.444   6.247  0.3163  0.1647  0.0949
  877YOPE   PO411658  14.525   2.775   6.259  0.1904  0.0629  0.1203
  877YOPE   GL111659  14.338   2.494   6.626  0.1023  0.1272 -0.1049
  877YOPE   GL211660  14.655   2.579   6.729  0.4183 -0.2114  0.3952
  877YOPE   C1A11661  14.075   2.498   7.047 -0.3045 -0.5654  0.1032
  877YOPE   D2A11662  14.149   2.272   7.395  0.0453  0.0513 -0.3258
  877YOPE   C3A11663  13.969   2.564   7.725  0.0669  0.1543  0.0220
  877YOPE   C4A11664  13.907   2.514   8.176  0.0972 -0.1245 -0.0823
  877YOPE   C1B11665  14.583   2.358   7.166  0.0693 -0.2573  0.4027
  877YOPE   C2B11666  14.581   2.001   7.465  0.4125  0.1404 -0.1081
  877YOPE   D3B11667  14.867   1.667   7.723  0.0450 -0.3621 -0.1099
  877YOPE   C4B11668  14.745   1.368   8.002  0.1989  0.3795 -0.2568
  878YOPE   NH311669   4.320   3.794   5.942  0.0297  0.0983 -0.3213
  878YOPE   PO411670   4.189   3.995   6.255  0.0905 -0.1297  0.1120
  878YOPE   GL111671   4.071   3.710   6.593  0.2113 -0.1221 -0.1660
  878YOPE   GL211672   3.707   3.696   6.574  0.0023 -0.1442 -0.2543
  878YOPE   C1A11673   3.992   3.544   7.036 -0.0246  0.2400 -0.3877
  878YOPE   D2A11674   4.030   3.444   7.451  0.1788 -0.2387  0.2195
  878YOPE   C3A11675   3.806   3.637   7.773 -0.0770  0.1361  0.3341
  878YOPE   C4A11676   3.597   3.838   8.164  0.1127 -0.0252  0.0455
  878YOPE   C1B11677   3.462   3.773   6.900  0.0595  0.1351 -0.3251
  878YOPE   C2B11678   3.595   3.660   7.305 -0.1322  0.1400 -0.0232
  878YOPE   D3B11679   3.569   3.212   7.509 -0.0805  0.3204 -0.1326
  878YOPE   C4B11680   3.493   2.947   7.743  0.0924 -0.0163 -0.1484
  879YOPE   NH311681  11.984   1.258   5.403  0.0119 -0.0827 -0.0609
  879YOPE   PO411682  12.341   1.358   5.518 -0.2259  0.1566  0.1554
  879YOPE   GL111683  12.328   1.103   5.862  0.1173 -0.0140 -0.0507
  879YOPE   GL211684  11.983   1.132   5.885 -0.0199  0.0347 -0.1537
  879YOPE   C1A11685  12.364   0.916   6.290  0.1141 -0.1399 -0.1724
  879YOPE   D2A11686  12.148   0.709   6.585  0.0467  0.1278 -0.0511
  879YOPE   C3A11687  12.046   0.700   6.875  0.2034 -0.0408  0.0360
  879YOPE   C4A11688  12.126   0.835   7.255  0.0063 -0.3422  0.1739
  879YOPE   C1B11689  11.859   1.067   6.123 -0.1555 -0.0513  0.2048
  879YOPE   C2B11690  11.784   1.037   6.577  0.3095 -0.2042  0.1636
  879YOPE   D3B11691  11.642   0.845   7.048 -0.1053 -0.0284 -0.0657
  879YOPE   C4B11692  11.697   0.994   7.477  0.2525  0.2131 -0.1671
  880YOPE   NH311693   9.635   3.710   5.707 -0.1233  0.1769  0.0647
  880YOPE   PO411694   9.240   3.593   5.903  0.1005 -0.0941 -0.0793
  880YOPE   GL111695   9.185   3.448   6.228 -0.0215  0.0671  0.0554
  880YOPE   GL211696   8.892   3.483   6.313  0.1471  0.3721  0.3020
  880YOPE   C1A11697   9.301   3.618   6.691  0.7479 -0.1318  0.4474
  880YOPE   D2A11698   9.203   3.563   7.014 -0.0370 -0.0466 -0.0043
  880YOPE   C3A11699   9.458   3.801   7.397  0.2763 -0.5782  0.3995
  880YOPE   C4A11700   9.374   4.148   7.451  0.0626  0.1794  0.0087
  880YOPE   C1B11701   8.725   3.601   6.652  0.0568  0.2536  0.1213
  880YOPE   C2B11702   8.654   3.576   7.081  0.0132  0.2757 -0.2289
  880YOPE   D3B11703   8.537   3.519   7.580 -0.1959  0.0507 -0.2451
  880YOPE   C4B11704   8.634   3.314   8.070  0.0349  0.2290  0.0243
  881YOPE   NH311705   8.184  17.495   5.353 -0.2028  0.0913  0.1725
  881YOPE   PO411706   7.805  17.271   5.302  0.4637 -0.0333  0.5367
  881YOPE   GL111707   7.523  17.589   5.573 -0.1281  0.0845 -0.1651
  881YOPE   GL211708   7.625  17.956   5.586  0.4331  0.2910 -0.1209
  881YOPE   C1A11709   7.315  17.607   5.965 -0.1683 -0.1981 -0.1958
  881YOPE   D2A11710   7.337  17.537   6.369  0.0416 -0.0498  0.3136
  881YOPE   C3A11711   7.256  17.918   6.656 -0.1062 -0.0632 -0.3868
  881YOPE   C4A11712   7.549  18.060   6.963 -0.2628  0.1169 -0.0414
  881YOPE   C1B11713   7.625  17.968   6.025 -0.0632 -0.2596 -0.2778
  881YOPE   C2B11714   7.724  17.955   6.417 -0.1671 -0.2563  0.2057
  881YOPE   D3B11715   7.773  17.661   6.779 -0.1907 -0.3219  0.2385
  881YOPE   C4B11716   7.930  17.602   7.229  0.3312  0.0164  0.1789
  882YOPE   NH311717   1.204  14.081   5.888  0.1962  0.0850 -0.0577
  882YOPE   PO411718   1.631  14.199   5.865  0.1183 -0.1556  0.2141
  882YOPE   GL111719   1.628  14.237   6.204  0.2873  0.1609 -0.1455
  882YOPE   GL211720   1.376  14.354   6.369  0.1738  0.3110 -0.1411
  882YOPE   C1A11721   1.778  14.118   6.621 -0.2850 -0.0752  0.1005
  882YOPE   D2A11722   1.922  14.349   7.065 -0.2054 -0.0378  0.1191
  882YOPE   C3A11723   2.071  14.099   7.288  0.0952 -0.4199  0.0706
  882YOPE   C4A11724   2.283  14.207   7.757  0.2198 -0.0492 -0.2552
  882YOPE   C1B11725   1.541  14.538   6.791  0.1463 -0.0418 -0.0657
  882YOPE   C2B11726   1.512  14.548   7.263 -0.2828  0.0984  0.2385
  882YOPE   D3B11727   1.282  14.632   7.608 -0.0082  0.1725 -0.1579
  882YOPE   C4B11728   0.885  14.562   7.835 -0.0815 -0.0482 -0.0680
  883YOPE   NH311729  16.441   3.180   5.926 -0.3345 -0.3017  0.1998
  883YOPE   PO411730  16.048   3.038   6.204 -0.1294  0.0868  0.0940
  883YOPE   GL111731  15.785   3.086   6.577  0.0629 -0.0635 -0.6498
  883YOPE   GL211732  15.952   3.235   6.776  0.1923  0.0178 -0.1021
  883YOPE   C1A11733  15.514   3.055   6.958  0.2735 -0.0934 -0.0786
  883YOPE   D2A11734  15.257   3.228   7.146 -0.1830  0.0377 -0.0372
  883YOPE   C3A11735  15.140   3.082   7.551  0.0195  0.2846 -0.0796
  883YOPE   C4A11736  14.937   2.946   7.936 -0.1102 -0.0801 -0.3128
  883YOPE   C1B11737  16.030   3.322   7.181  0.0654 -0.0679  0.2116
  883YOPE   C2B11738  16.031   3.476   7.586 -0.2271  0.0671 -0.2260
  883YOPE   D3B11739  16.206   3.634   7.990 -0.2402  0.0260 -0.0408
  883YOPE   C4B11740  16.272   3.908   8.354 -0.5026 -0.2669  0.4406
  884YOPE   NH311741  15.625   5.978   5.965 -0.0396 -0.0127 -0.1297
  884YOPE   PO411742  15.422   5.538   6.012 -0.1588  0.3108 -0.1499
  884YOPE   GL111743  15.551   5.257   6.333  0.1676 -0.0390 -0.0233
  884YOPE   GL211744  15.797   5.038   6.292  0.1947 -0.2719  0.0750
  884YOPE   C1A11745  15.343   5.333   6.728 -0.0411  0.1698 -0.1262
  884YOPE   D2A11746  15.254   5.414   7.201  0.3614 -0.1260 -0.0919
  884YOPE   C3A11747  15.311   5.656   7.558  0.1106  0.2659  0.0729
  884YOPE   C4A11748  15.560   5.665   7.955 -0.0565 -0.2227 -0.0739
  884YOPE   C1B11749  15.817   5.112   6.743 -0.0200  0.1000  0.0052
  884YOPE   C2B11750  15.605   5.030   7.163 -0.3997  0.0917  0.3225
  884YOPE   D3B11751  15.475   5.205   7.655  0.2813  0.2305 -0.1816
  884YOPE   C4B11752  15.202   5.333   8.019  0.0632 -0.0849 -0.4369
  885YOPE   NH311753  13.070   3.628   5.532  0.1099 -0.2150 -0.3921
  885YOPE   PO411754  13.514   3.688   5.615 -0.3289  0.3074  0.3777
  885YOPE   GL111755  13.528   3.805   6.039 -0.2948  0.2593 -0.2686
  885YOPE   GL211756  13.303   3.702   6.100  0.1747  0.2199  0.0301
  885YOPE   C1A11757  13.275   4.172   6.315  0.1517 -0.3754 -0.1893
  885YOPE   D2A11758  13.134   4.324   6.668 -0.0542 -0.0041  0.4327
  885YOPE   C3A11759  13.217   4.275   7.097  0.0147  0.0239 -0.1255
  885YOPE   C4A11760  13.360   4.058   7.372 -0.0190 -0.0112 -0.0689
  885YOPE   C1B11761  13.325   3.440   6.395  0.0875  0.1685  0.2348
  885YOPE   C2B11762  13.568   3.358   6.815  0.0839  0.0583 -0.1005
  885YOPE   D3B11763  13.420   3.463   7.224  0.1588  0.0123  0.1862
  885YOPE   C4B11764  13.312   3.500   7.515  0.1296  0.1071 -0.0700
  886YOPE   NH311765   1.050  17.678   5.661 -0.1326  0.4721 -0.1576
  886YOPE   PO411766   0.660  18.037   5.500  0.0992  0.1268  0.0926
  886YOPE   GL111767   0.831  18.242   5.778  0.1905  0.0914  0.0507
  886YOPE   GL211768   1.129  18.101   5.894 -0.0408  0.0066  0.0866
  886YOPE   C1A11769   0.841  18.543   6.247  0.1111  0.0581  0.1607
  886YOPE   D2A11770   0.702  18.861   6.594 -0.0537  0.2180  0.1784
  886YOPE   C3A11771   1.028  19.157   6.682  0.1778  0.2134  0.2116
  886YOPE   C4A11772   1.368  19.221   6.770 -0.1892 -0.0143 -0.2005
  886YOPE   C1B11773   1.182  18.139   6.291 -0.1162  0.2155  0.1234
  886YOPE   C2B11774   1.085  18.143   6.626 -0.0294  0.1383 -0.1569
  886YOPE   D3B11775   1.136  18.192   7.049  0.0116 -0.1303  0.3173
  886YOPE   C4B11776   1.156  18.409   7.413 -0.0846  0.0263  0.0222
  887YOPE   NH311777  11.168  15.616   4.931  0.0846  0.0814 -0.1736
  887YOPE   PO411778  11.578  15.766   5.200 -0.0761  0.2028 -0.0042
  887YOPE   GL111779  11.414  15.787   5.556  0.3891  0.2334  0.2022
  887YOPE   GL211780  11.596  16.065   5.608  0.1556  0.1579  0.2951
  887YOPE   C1A11781  11.272  15.809   5.999  0.1377 -0.0981  0.2186
  887YOPE   D2A11782  11.570  15.962   6.351  0.2762  0.0683  0.2651
  887YOPE   C3A11783  11.607  16.171   6.684  0.1677 -0.1702  0.0417
  887YOPE   C4A11784  11.688  16.568   6.743 -0.0309 -0.2442 -0.0878
  887YOPE   C1B11785  11.389  16.297   5.983  0.2393  0.1607 -0.0424
  887YOPE   C2B11786  11.108  16.274   6.375  0.0443  0.0022 -0.0657
  887YOPE   D3B11787  11.110  16.136   6.818 -0.0492  0.1827  0.3405
  887YOPE   C4B11788  10.984  16.425   7.119  0.2977 -0.1663  0.1414
  888YOPE   NH311789  13.686  16.698   5.325  0.1366  0.1450 -0.0722
  888YOPE   PO411790  13.178  16.936   5.355 -0.0101  0.0576 -0.0215
  888YOPE   GL111791  13.177  17.145   5.711  0.0315 -0.3378 -0.1168
  888YOPE   GL211792  12.804  17.275   5.767  0.1516 -0.2043  0.3876
  888YOPE   C1A11793  13.145  17.204   6.160 -0.0422  0.1530  0.1820
  888YOPE   D2A11794  12.990  17.300   6.638 -0.0161  0.2105 -0.0650
  888YOPE   C3A11795  13.417  17.346   6.812  0.1416  0.3459 -0.2544
  888YOPE   C4A11796  13.807  17.204   6.903  0.0440 -0.1407 -0.0923
  888YOPE   C1B11797  12.798  17.569   6.204 -0.1093  0.0013 -0.1354
  888YOPE   C2B11798  12.553  17.488   6.512 -0.1777  0.0957  0.0696
  888YOPE   D3B11799  12.587  17.516   6.942  0.1614  0.0221  0.0262
  888YOPE   C4B11800  12.449  17.389   7.393 -0.0390 -0.3148 -0.0619
  889YOPE   NH311801   7.859   4.188   5.240 -0.1041 -0.0264  0.2990
  889YOPE   PO411802   7.662   4.399   5.621  0.0591  0.1000 -0.0904
  889YOPE   GL111803   7.831   4.445   5.959  0.0372  0.0406 -0.1588
  889YOPE   GL211804   8.076   4.221   6.088  0.0549  0.1086  0.1681
  889YOPE   C1A11805   7.815   4.376   6.457  0.0531  0.1280 -0.1528
  889YOPE   D2A11806   7.922   4.040   6.821  0.3781 -0.0175  0.1119
  889YOPE   C3A11807   7.773   4.096   7.187 -0.3670  0.2811 -0.1358
  889YOPE   C4A11808   8.105   4.450   7.401  0.3753  0.2016 -0.2516
  889YOPE   C1B11809   8.388   4.071   6.488  0.1866  0.0376  0.0339
  889YOPE   C2B11810   8.460   4.029   6.821  0.0734 -0.0117 -0.3192
  889YOPE   D3B11811   8.471   4.144   7.219 -0.0575 -0.0268  0.2059
  889YOPE   C4B11812   8.571   4.117   7.645  0.1163  0.2570  0.4089
  890YOPE   NH311813   3.325   8.455   6.162  0.0520 -0.1000  0.3685
  890YOPE   PO411814   3.158   8.804   5.822  0.0392  0.1011 -0.1492
  890YOPE   GL111815   3.258   8.954   6.207 -0.2774 -0.0373  0.0624
  890YOPE   GL211816   3.117   9.269   6.287 -0.0251  0.1095 -0.0502
  890YOPE   C1A11817   3.105   8.955   6.606 -0.1866  0.1157  0.0311
  890YOPE   D2A11818   3.255   8.985   6.964  0.1579  0.1623  0.2063
  890YOPE   C3A11819   3.489   8.555   7.122 -0.0689  0.0713 -0.0348
  890YOPE   C4A11820   3.922   8.592   7.302  0.0363 -0.2874  0.0597
  890YOPE   C1B11821   3.079   9.413   6.687 -0.3484  0.0768 -0.0146
  890YOPE   C2B11822   2.900   9.753   7.098 -0.1704 -0.0054  0.0991
  890YOPE   D3B11823   2.610   9.760   7.404 -0.0795 -0.2937 -0.0678
  890YOPE   C4B11824   2.776   9.580   7.838  0.2432  0.1553  0.0661
  891YOPE   NH311825  10.437  15.366   5.305 -0.1453 -0.3570  0.2768
  891YOPE   PO411826  10.653  15.642   5.079 -0.2964 -0.0703 -0.1147
  891YOPE   GL111827  10.712  15.889   5.323 -0.4187  0.1323  0.1377
  891YOPE   GL211828  10.432  15.872   5.554 -0.0400  0.0181  0.0735
  891YOPE   C1A11829  11.033  16.073   5.597 -0.0880 -0.1418  0.0525
  891YOPE   D2A11830  10.869  16.426   5.965 -0.0688 -0.0950 -0.1484
  891YOPE   C3A11831  10.434  16.541   6.110 -0.3930 -0.0277  0.0019
  891YOPE   C4A11832  10.053  16.301   5.920 -0.5278 -0.2734  0.3080
  891YOPE   C1B11833  10.759  15.750   5.797  0.1059 -0.2023  0.2999
  891YOPE   C2B11834  10.883  15.763   6.265 -0.4300  0.1378 -0.2862
  891YOPE   D3B11835  11.211  15.568   6.448 -0.0302  0.0021 -0.0679
  891YOPE   C4B11836  11.364  15.709   6.737  0.0769 -0.1873  0.1471
  892YOPE   NH311837   8.673  13.191   5.116 -0.0495  0.0345 -0.2255
  892YOPE   PO411838   8.518  12.917   5.381  0.2344 -0.1513 -0.4944
  892YOPE   GL111839   8.666  13.049   5.832 -0.0293 -0.0247 -0.1026
  892YOPE   GL211840   8.379  13.181   6.013 -0.1117  0.0812  0.1584
  892YOPE   C1A11841   8.848  13.103   6.274  0.4847 -0.6075 -0.0886
  892YOPE   D2A11842   9.149  12.860   6.537 -0.1915 -0.0404 -0.2422
  892YOPE   C3A11843   9.031  12.881   7.052  0.1919 -0.0606  0.0297
  892YOPE   C4A11844   8.913  12.962   7.465  0.1309 -0.1530  0.0136
  892YOPE   C1B11845   8.304  13.107   6.393 -0.0849 -0.0192  0.0352
  892YOPE   C2B11846   8.154  13.199   6.839  0.0762 -0.2264  0.0352
  892YOPE   D3B11847   7.998  13.131   7.288  0.2272  0.2540  0.3460
  892YOPE   C4B11848   8.223  12.824   7.498  0.2184  0.6685 -0.1645
  893YOPE   NH311849  10.018   4.709   5.997  0.1862  0.1474  0.0415
  893YOPE   PO411850  10.001   5.207   6.024 -0.0426  0.2733 -0.1315
  893YOPE   GL111851  10.181   5.139   6.429  0.0401 -0.0101  0.0278
  893YOPE   GL211852  10.455   5.368   6.537 -0.0922 -0.2298  0.0760
  893YOPE   C1A11853  10.027   5.190   6.774 -0.4602 -0.0336 -0.0122
  893YOPE   D2A11854   9.935   5.190   7.208 -0.2683 -0.2183 -0.0423
  893YOPE   C3A11855  10.227   5.267   7.385  0.0518 -0.0188 -0.2565
  893YOPE   C4A11856  10.655   5.212   7.616 -0.0290  0.0434  0.0755
  893YOPE   C1B11857  10.545   5.215   6.999 -0.1688 -0.2371 -0.1954
  893YOPE   C2B11858  10.685   4.834   7.260  0.0356 -0.1396 -0.1310
  893YOPE   D3B11859  10.655   4.500   7.379 -0.0881 -0.3254  0.0465
  893YOPE   C4B11860  10.477   4.391   7.739 -0.3283 -0.0647 -0.0959
  894YOPE   NH311861  15.490  17.098   5.702 -0.0997 -0.1730  0.1953
  894YOPE   PO411862  15.607  16.687   5.966  0.0162  0.0829 -0.0147
  894YOPE   GL111863  15.388  16.635   6.286  0.3618  0.0526 -0.3369
  894YOPE   GL211864  15.262  16.333   6.267 -0.0066  0.4352 -0.0734
  894YOPE   C1A11865  15.158  16.691   6.734  0.0446 -0.1718  0.1496
  894YOPE   D2A11866  14.959  16.618   7.057 -0.1924  0.1279  0.0248
  894YOPE   C3A11867  15.110  16.230   7.344 -0.1513  0.3950 -0.1292
  894YOPE   C4A11868  15.161  15.715   7.310 -0.0280 -0.0590  0.1271
  894YOPE   C1B11869  14.943  16.224   6.483  0.0268  0.1853  0.1166
  894YOPE   C2B11870  14.578  15.840   6.529 -0.0235 -0.0860 -0.2555
  894YOPE   D3B11871  14.280  15.854   6.916 -0.0101 -0.0163  0.0068
  894YOPE   C4B11872  14.049  15.929   7.407 -0.0488  0.2867 -0.1790
  895YOPE   NH311873   4.356   5.892   6.068 -0.2478  0.1228 -0.4705
  895YOPE   PO411874   4.319   5.538   6.282 -0.0955 -0.0367 -0.0900
  895YOPE   GL111875   4.026   5.604   6.605  0.5144  0.3005 -0.0102
  895YOPE   GL211876   3.955   5.244   6.783  0.0632 -0.1540  0.0070
  895YOPE   C1A11877   4.252   5.539   7.034 -0.3513 -0.1373 -0.0920
  895YOPE   D2A11878   4.535   5.700   7.355  0.1068  0.2806 -0.0508
  895YOPE   C3A11879   4.408   5.607   7.741 -0.0679  0.1751  0.5502
  895YOPE   C4A11880   4.183   5.353   7.863  0.3447 -0.1257 -0.1623
  895YOPE   C1B11881   3.743   5.097   7.167 -0.0487  0.1248  0.2639
  895YOPE   C2B11882   3.757   5.246   7.485 -0.3366 -0.1726 -0.1970
  895YOPE   D3B11883   3.727   5.100   7.874 -0.2391 -0.1581  0.3652
  895YOPE   C4B11884   3.589   5.091   8.292  0.1864  0.4010 -0.1901
  896YOPE   NH311885   3.980   0.674   5.289  0.2616 -0.4048 -0.1713
  896YOPE   PO411886   4.434   0.628   5.512  0.1953 -0.1901  0.0744
  896YOPE   GL111887   4.442   0.889   5.789 -0.2582 -0.0236 -0.4810
  896YOPE   GL211888   4.592   0.723   6.149  0.0724  0.0614  0.4500
  896YOPE   C1A11889   4.106   0.837   6.223 -0.0370 -0.0427  0.3184
  896YOPE   D2A11890   3.652   0.974   6.401  0.0985  0.0928  0.0667
  896YOPE   C3A11891   3.519   1.016   6.886  0.0710 -0.1296  0.2834
  896YOPE   C4A11892   3.359   0.808   7.271 -0.4550  0.2261 -0.2831
  896YOPE   C1B11893   4.529   0.546   6.571 -0.1084 -0.2892 -0.0008
  896YOPE   C2B11894   4.320   0.546   6.948  0.3161  0.1027 -0.0167
  896YOPE   D3B11895   4.171   0.533   7.353 -0.1130  0.2500  0.2056
  896YOPE   C4B11896   3.835   0.569   7.595 -0.0835  0.1085  0.1431
  897YOPE   NH311897   8.493   6.608   5.920 -0.2216 -0.2153  0.1630
  897YOPE   PO411898   8.360   6.116   5.840 -0.0301  0.1763 -0.2220
  897YOPE   GL111899   8.495   6.021   6.193  0.0555  0.0217 -0.0819
  897YOPE   GL211900   8.454   5.635   6.218  0.0736  0.0921  0.5499
  897YOPE   C1A11901   8.408   5.946   6.682  0.1302 -0.0825 -0.2453
  897YOPE   D2A11902   8.247   6.040   6.998  0.1326  0.4529  0.0793
  897YOPE   C3A11903   8.309   5.859   7.398 -0.0267 -0.1666  0.2129
  897YOPE   C4A11904   8.289   5.571   7.798  0.1589 -0.0769  0.1644
  897YOPE   C1B11905   8.172   5.492   6.617  0.2420 -0.0285  0.1993
  897YOPE   C2B11906   7.964   5.617   7.019  0.2859 -0.0566 -0.0719
  897YOPE   D3B11907   7.973   5.534   7.408  0.0619  0.1129  0.0709
  897YOPE   C4B11908   7.804   5.288   7.833 -0.0335 -0.0830  0.2384
  898YOPE   NH311909   6.168  17.549   5.396  0.1337 -0.0863  0.2036
  898YOPE   PO411910   5.867  17.643   5.573 -0.0210  0.2081 -0.3211
  898YOPE   GL111911   5.666  17.910   5.865  0.1731 -0.1467  0.1597
  898YOPE   GL211912   5.488  17.780   6.025  0.2309  0.1540 -0.2346
  898YOPE   C1A11913   5.623  18.171   6.256 -0.1606  0.1106  0.1158
  898YOPE   D2A11914   5.463  18.123   6.619 -0.0223 -0.1231  0.0279
  898YOPE   C3A11915   5.107  17.907   6.752  0.1106 -0.1833 -0.0233
  898YOPE   C4A11916   4.916  17.857   7.138 -0.2976 -0.1097 -0.1899
  898YOPE   C1B11917   5.221  17.569   6.361  0.0921 -0.0522  0.1109
  898YOPE   C2B11918   5.172  17.377   6.739  0.0404  0.0258 -0.0033
  898YOPE   D3B11919   4.925  17.297   7.148 -0.1299  0.1119  0.3243
  898YOPE   C4B11920   4.456  17.137   7.333  0.1320  0.0836 -0.0416
  899YOPE   NH311921  14.082   0.540   5.864 -0.1295  0.1262  0.0921
  899YOPE   PO411922  14.339   0.814   5.984  0.1793 -0.2687 -0.0743
  899YOPE   GL111923  14.554   0.712   6.377 -0.1345 -0.0610  0.3811
  899YOPE   GL211924  14.537   1.070   6.394 -0.0231 -0.0338  0.2986
  899YOPE   C1A11925  14.739   0.536   6.699  0.0304 -0.5776 -0.3038
  899YOPE   D2A11926  14.771   0.789   7.094 -0.1265  0.0576 -0.0471
  899YOPE   C3A11927  14.623   0.733   7.462 -0.0065  0.0409  0.1483
  899YOPE   C4A11928  14.624   0.703   7.860  0.0277  0.0940 -0.3237
  899YOPE   C1B11929  14.395   0.875   6.780  0.2960  0.2046  0.1987
  899YOPE   C2B11930  14.107   0.780   7.110 -0.3764  0.1548  0.1322
  899YOPE   D3B11931  14.104   0.950   7.545 -0.1000  0.0233  0.0117
  899YOPE   C4B11932  14.290   1.144   7.923 -0.2286  0.0283 -0.1716
  900YOPE   NH311933   5.846   0.665   5.501 -0.1233 -0.4847  0.0979
  900YOPE   PO411934   5.406   0.745   5.650  0.3783  0.0927 -0.0427
  900YOPE   GL111935   5.451   0.619   5.953  0.0142 -0.0837 -0.1276
  900YOPE   GL211936   5.189   0.361   5.928  0.1756  0.1723  0.3972
  900YOPE   C1A11937   5.574   0.634   6.431  0.0754  0.4818 -0.1830
  900YOPE   D2A11938   5.481   0.755   6.846 -0.0965  0.0918  0.1428
  900YOPE   C3A11939   5.549   0.542   7.223 -0.0968 -0.0030 -0.1155
  900YOPE   C4A11940   5.574   0.124   7.419  0.1185  0.2078  0.0862
  900YOPE   C1B11941   5.336   0.114   6.250  0.1824  0.0906  0.2028
  900YOPE   C2B11942   5.142  -0.114   6.528  0.1213 -0.3614 -0.1511
  900YOPE   D3B11943   4.721  -0.303   6.565 -0.1697 -0.1424 -0.0722
  900YOPE   C4B11944   4.537  -0.434   6.896  0.0504 -0.0117  0.0921
  901YOPE   NH311945   7.316   5.207   5.344  0.0652  0.1948 -0.1834
  901YOPE   PO411946   7.685   4.981   5.468 -0.0072  0.2561 -0.0947
  901YOPE   GL111947   7.562   4.963   5.889  0.1546 -0.2202 -0.1541
  901YOPE   GL211948   7.335   5.261   6.006  0.0995 -0.0145  0.3165
  901YOPE   C1A11949   7.532   4.735   6.251 -0.1882 -0.5092 -0.2171
  901YOPE   D2A11950   7.732   4.896   6.562 -0.2442  0.1104 -0.2265
  901YOPE   C3A11951   7.484   4.928   6.829 -0.0174 -0.1614 -0.0547
  901YOPE   C4A11952   7.195   4.770   7.045  0.1639 -0.4622 -0.2718
  901YOPE   C1B11953   7.274   5.192   6.442 -0.4347  0.0972  0.1286
  901YOPE   C2B11954   7.107   5.318   6.820 -0.1450 -0.1211  0.1352
  901YOPE   D3B11955   6.932   5.146   7.123  0.0462 -0.3433  0.2777
  901YOPE   C4B11956   6.596   4.880   7.132  0.0195 -0.2110  0.0561
  902YOPE   NH311957  10.001  10.849   5.588  0.1691  0.3146 -0.2813
  902YOPE   PO411958   9.584  10.915   5.620  0.3607 -0.1830 -0.2820
  902YOPE   GL111959   9.510  10.981   5.989  0.0057 -0.0334 -0.2560
  902YOPE   GL211960   9.340  11.259   6.187 -0.0174 -0.3072  0.0935
  902YOPE   C1A11961   9.538  10.665   6.309  0.0704 -0.2503 -0.0224
  902YOPE   D2A11962   9.650  10.540   6.774 -0.1119  0.1285  0.2921
  902YOPE   C3A11963   9.412  10.723   7.091  0.4457 -0.3262 -0.0524
  902YOPE   C4A11964   9.648  10.514   7.484 -0.1328 -0.0349 -0.2175
  902YOPE   C1B11965   9.702  11.304   6.320 -0.0257  0.2977 -0.2519
  902YOPE   C2B11966  10.046  11.522   6.197  0.0510 -0.5207 -0.0891
  902YOPE   D3B11967  10.281  11.844   6.282 -0.1429  0.1668  0.2905
  902YOPE   C4B11968  10.246  12.272   6.302  0.0827 -0.0415 -0.1379
  903YOPE   NH311969   5.434   9.790   5.569  0.2268 -0.0727 -0.0319
  903YOPE   PO411970   5.092   9.852   5.918  0.0317  0.0556  0.1001
  903YOPE   GL111971   5.158   9.832   6.378 -0.3108  0.2153  0.0717
  903YOPE   GL211972   5.300  10.184   6.306 -0.1995 -0.0943  0.2685
  903YOPE   C1A11973   5.215   9.645   6.764 -0.1686  0.0078  0.0754
  903YOPE   D2A11974   5.384   9.684   7.174 -0.0190 -0.0792  0.0458
  903YOPE   C3A11975   5.090   9.816   7.470 -0.1864 -0.1502  0.3361
  903YOPE   C4A11976   4.930  10.005   7.788  0.1083 -0.3706 -0.2031
  903YOPE   C1B11977   5.380  10.311   6.653  0.0816  0.1144 -0.2006
  903YOPE   C2B11978   5.364  10.515   7.053 -0.0446 -0.2782 -0.2220
  903YOPE   D3B11979   5.428  10.819   7.439 -0.1015  0.0441 -0.0736
  903YOPE   C4B11980   5.475  10.710   7.878  0.1005  0.0234 -0.0798
  904YOPE   NH311981  16.793  14.779   5.798  0.1033  0.1376 -0.0612
  904YOPE   PO411982  16.814  14.412   5.860 -0.2123 -0.0536 -0.0443
  904YOPE   GL111983  16.976  14.459   6.241 -0.0793 -0.3239  0.1274
  904YOPE   GL211984  17.034  14.825   6.273 -0.2065  0.2284  0.0768
  904YOPE   C1A11985  17.209  14.400   6.630  0.1567 -0.4150 -0.2832
  904YOPE   D2A11986  17.181  14.411   6.979  0.1660 -0.0348 -0.1517
  904YOPE   C3A11987  16.997  14.237   7.303 -0.0045  0.3351  0.0079
  904YOPE   C4A11988  16.779  14.160   7.580 -0.0069  0.0357 -0.1399
  904YOPE   C1B11989  16.872  14.847   6.677 -0.1177 -0.1423 -0.5070
  904YOPE   C2B11990  16.995  15.074   6.986 -0.1433  0.3114  0.1110
  904YOPE   D3B11991  17.096  14.786   7.370  0.1485 -0.1728 -0.0137
  904YOPE   C4B11992  17.230  14.619   7.777 -0.4686  0.0980 -0.1615
  905YOPE   NH311993   8.482   4.110   5.748 -0.0580 -0.0442 -0.0514
  905YOPE   PO411994   8.646   4.533   5.970  0.1663 -0.2990  0.1846
  905YOPE   GL111995   8.732   4.422   6.363 -0.3403  0.3667 -0.3669
  905YOPE   GL211996   8.528   4.566   6.532  0.3014 -0.1701 -0.0792
  905YOPE   C1A11997   8.862   4.396   6.811  0.2448  0.4042 -0.0630
  905YOPE   D2A11998   8.967   4.479   7.272  0.0082 -0.1498  0.0598
  905YOPE   C3A11999   8.797   4.729   7.572  0.3678 -0.2366  0.1869
  905YOPE   C4A12000   8.908   4.938   7.941 -0.0363 -0.0007 -0.0332
  905YOPE   C1B12001   8.194   4.496   6.765  0.2365 -0.1256 -0.1663
  905YOPE   C2B12002   7.780   4.563   6.975 -0.1714  0.1674  0.1641
  905YOPE   D3B12003   7.596   4.556   7.447 -0.0147  0.1214 -0.1211
  905YOPE   C4B12004   7.466   4.817   7.790  0.0227  0.2307  0.3727
  906YOPE   NH312005   3.086  15.434   6.102 -0.2170 -0.1683 -0.0960
  906YOPE   PO412006   3.309  15.097   5.990  0.3427 -0.4051 -0.0735
  906YOPE   GL112007   3.358  14.863   6.170  0.1016  0.1190  0.0144
  906YOPE   GL212008   3.082  14.808   6.363 -0.0562 -0.5054  0.1144
  906YOPE   C1A12009   3.572  14.788   6.594  0.2856 -0.0112  0.0524
  906YOPE   D2A12010   3.552  14.784   7.014 -0.2662  0.0156 -0.0283
  906YOPE   C3A12011   3.864  15.015   7.384 -0.1783  0.2504 -0.0951
  906YOPE   C4A12012   3.660  15.205   7.861 -0.0176 -0.0708  0.0118
  906YOPE   C1B12013   3.131  14.853   6.768  0.1125  0.0154 -0.0730
  906YOPE   C2B12014   3.047  15.162   7.078  0.0528  0.0931  0.1679
  906YOPE   D3B12015   2.850  15.209   7.441 -0.0983 -0.0078  0.1230
  906YOPE   C4B12016   2.569  15.312   7.738 -0.2214  0.0400  0.0036
  907YOPE   NH312017  17.907   2.544   6.451  0.0127  0.0631 -0.3668
  907YOPE   PO412018  17.675   2.221   6.437 -0.0984 -0.1296  0.4690
  907YOPE   GL112019  17.662   2.250   6.864 -0.1988  0.1382  0.3410
  907YOPE   GL212020  17.777   1.929   6.861 -0.1689 -0.1197 -0.1056
  907YOPE   C1A12021  17.659   2.256   7.401  0.0232  0.0812 -0.2358
  907YOPE   D2A12022  17.569   2.222   7.817  0.3725  0.0442  0.0652
  907YOPE   C3A12023  17.740   2.386   8.210 -0.2334 -0.0479 -0.1361
  907YOPE   C4A12024  17.732   2.487   8.649  0.0291  0.1074 -0.2040
  907YOPE   C1B12025  17.948   1.893   7.202  0.3262 -0.0383 -0.1321
  907YOPE   C2B12026  17.918   1.903   7.685  0.0339  0.1685 -0.1071
  907YOPE   D3B12027  18.066   1.949   8.038  0.2186  0.1711 -0.0436
  907YOPE   C4B12028  18.110   2.059   8.448 -0.2880  0.1626  0.2419
  908YOPE   NH312029  18.439  15.353   6.157 -0.0216  0.0281 -0.0373
  908YOPE   PO412030  18.781  15.621   6.021  0.1896 -0.3867  0.0001
  908YOPE   GL112031  18.891  15.921   6.422 -0.1573 -0.1428  0.0162
  908YOPE   GL212032  18.810  16.243   6.180 -0.0563 -0.1792  0.1198
  908YOPE   C1A12033  18.959  16.065   6.873 -0.0883  0.0300 -0.2131
  908YOPE   D2A12034  19.178  16.016   7.289 -0.0431 -0.0510 -0.0020
  908YOPE   C3A12035  19.256  15.668   7.612 -0.0737  0.0513 -0.0282
  908YOPE   C4A12036  19.575  15.651   7.923  0.1792  0.0817  0.0366
  908YOPE   C1B12037  18.860  16.568   6.456 -0.0310  0.1693  0.1633
  908YOPE   C2B12038  19.052  16.508   6.994 -0.0065  0.2387 -0.1323
  908YOPE   D3B12039  19.000  16.455   7.434 -0.0978  0.1383  0.2797
  908YOPE   C4B12040  19.254  16.190   7.759 -0.0658 -0.0007 -0.1265
  909YOPE   NH312041   6.989   2.188   5.910  0.2096 -0.1226 -0.1107
  909YOPE   PO412042   6.966   2.563   5.704 -0.2499 -0.0304  0.0033
  909YOPE   GL112043   7.095   2.679   6.131  0.1467 -0.3932  0.0657
  909YOPE   GL212044   7.158   2.446   6.274  0.0813  0.2301  0.2098
  909YOPE   C1A12045   6.954   2.989   6.382 -0.2115 -0.2338 -0.4354
  909YOPE   D2A12046   6.967   3.006   6.854 -0.0601  0.0685 -0.2516
  909YOPE   C3A12047   6.685   2.880   7.291  0.1255  0.1851  0.1123
  909YOPE   C4A12048   6.776   2.725   7.701  0.3256 -0.1794 -0.0595
  909YOPE   C1B12049   7.427   2.640   6.474  0.3592  0.3912 -0.2238
  909YOPE   C2B12050   7.497   2.746   6.870  0.0403  0.0347  0.0730
  909YOPE   D3B12051   7.634   2.593   7.245  0.0823  0.3447  0.0115
  909YOPE   C4B12052   7.518   2.186   7.595 -0.0487 -0.0575 -0.0560
  910YOPE   NH312053  10.686  14.800   5.550  0.2138  0.1308 -0.2640
  910YOPE   PO412054  11.073  14.954   5.453 -0.1287  0.2710  0.0203
  910YOPE   GL112055  11.355  14.823   5.819  0.0843  0.1759 -0.0867
  910YOPE   GL212056  11.554  14.621   5.848  0.1529 -0.2082 -0.0038
  910YOPE   C1A12057  11.278  14.908   6.164  0.0934  0.2110 -0.3499
  910YOPE   D2A12058  11.375  15.076   6.507 -0.0670 -0.1460 -0.0735
  910YOPE   C3A12059  11.153  15.254   6.836  0.2583 -0.0399  0.2756
  910YOPE   C4A12060  11.000  15.321   7.278  0.4728  0.3060  0.0580
  910YOPE   C1B12061  11.783  14.792   6.154  0.2417 -0.1215  0.1559
  910YOPE   C2B12062  11.903  14.926   6.549  0.1190 -0.1415 -0.0571
  910YOPE   D3B12063  11.632  15.105   6.905  0.0197  0.3213  0.0193
  910YOPE   C4B12064  11.670  15.401   7.072  0.0577  0.1469 -0.0410
  911YOPE   NH312065  12.666  17.781   5.495  0.3005  0.1621 -0.0078
  911YOPE   PO412066  13.061  17.946   5.201 -0.0726  0.3644  0.1054
  911YOPE   GL112067  13.200  17.844   5.643  0.1391 -0.3376 -0.1571
  911YOPE   GL212068  12.987  17.892   5.901  0.1177 -0.1309  0.1022
  911YOPE   C1A12069  13.460  17.646   5.896 -0.1492  0.1321  0.0032
  911YOPE   D2A12070  13.731  17.253   5.979  0.3210 -0.2679 -0.0378
  911YOPE   C3A12071  13.625  17.116   6.425 -0.2259  0.1735 -0.0211
  911YOPE   C4A12072  13.615  16.756   6.710 -0.1923  0.0287 -0.0461
  911YOPE   C1B12073  13.087  18.058   6.276 -0.3083 -0.2126  0.1597
  911YOPE   C2B12074  12.978  17.854   6.720  0.0260 -0.1549  0.0515
  911YOPE   D3B12075  13.064  17.655   7.102 -0.1273  0.0094  0.0479
  911YOPE   C4B12076  12.910  17.588   7.436 -0.2697 -0.1229 -0.0341
  912YOPE   NH312077   1.148  10.773   6.189  0.0467 -0.1366  0.2351
  912YOPE   PO412078   0.861  10.518   6.421  0.0376  0.3151 -0.2443
  912YOPE   GL112079   0.627  10.720   6.657 -0.1839 -0.1764  0.2463
  912YOPE   GL212080   0.355  10.460   6.643 -0.0024  0.0040  0.0167
  912YOPE   C1A12081   0.756  11.062   7.028  0.2444 -0.1379 -0.0979
  912YOPE   D2A12082   0.655  11.039   7.392 -0.0214  0.0676  0.2354
  912YOPE   C3A12083   0.221  11.114   7.387 -0.2537  0.2996 -0.0772
  912YOPE   C4A12084  -0.157  11.506   7.364 -0.2411  0.3407 -0.1091
  912YOPE   C1B12085   0.068  10.718   6.942  0.2145  0.1913 -0.0075
  912YOPE   C2B12086  -0.004  10.623   7.319 -0.2382  0.3559  0.1176
  912YOPE   D3B12087  -0.059  10.861   7.747  0.1408 -0.0687  0.0513
  912YOPE   C4B12088  -0.166  11.223   7.902 -0.3632 -0.0396 -0.2113
  913YOPE   NH312089  18.382  14.757   6.140 -0.0250  0.3549 -0.0313
  913YOPE   PO412090  18.548  14.476   5.858  0.0109  0.3514  0.0870
  913YOPE   GL112091  18.721  14.473   6.330 -0.0756 -0.0401 -0.3354
  913YOPE   GL212092  18.593  14.360   6.662  0.5423 -0.1934  0.1321
  913YOPE   C1A12093  19.029  14.707   6.582  0.0121  0.1994 -0.0748
  913YOPE   D2A12094  19.188  14.938   6.978  0.0409  0.5020  0.1468
  913YOPE   C3A12095  18.965  15.011   7.292 -0.2727  0.1040  0.0511
  913YOPE   C4A12096  18.712  15.183   7.623 -0.0541  0.1766  0.2519
  913YOPE   C1B12097  18.555  14.306   7.113  0.1140 -0.2484  0.0533
  913YOPE   C2B12098  18.569  14.166   7.559 -0.0457 -0.1255  0.1837
  913YOPE   D3B12099  18.437  13.958   7.985 -0.3680  0.0323  0.0958
  913YOPE   C4B12100  18.369  13.676   8.332  0.0011 -0.1637  0.1798
  914YOPE   NH312101   3.654  10.694   5.663  0.2301 -0.1721  0.0338
  914YOPE   PO412102   4.000  10.446   5.841 -0.0642 -0.1302  0.1343
  914YOPE   GL112103   3.798  10.630   6.167 -0.0053 -0.1125  0.1599
  914YOPE   GL212104   3.565  10.522   6.135  0.4752  0.1139 -0.0759
  914YOPE   C1A12105   3.822  10.894   6.445  0.0179 -0.0479  0.7680
  914YOPE   D2A12106   3.782  11.124   6.896 -0.4719 -0.0171 -0.0359
  914YOPE   C3A12107   3.756  11.406   7.260  0.3328 -0.1911  0.0097
  914YOPE   C4A12108   3.810  11.812   7.380  0.1694  0.0338  0.2417
  914YOPE   C1B12109   3.381  10.239   6.310 -0.0049 -0.0810  0.1122
  914YOPE   C2B12110   3.029  10.263   6.590  0.0181  0.6209 -0.0985
  914YOPE   D3B12111   2.927  10.222   6.965  0.0904 -0.2897 -0.0124
  914YOPE   C4B12112   3.022  10.414   7.360  0.0346 -0.0933 -0.3851
  915YOPE   NH312113  14.092  10.211   5.711 -0.0122 -0.0162 -0.1210
  915YOPE   PO412114  14.505  10.220   5.637 -0.3009  0.0073 -0.2885
  915YOPE   GL112115  14.466  10.284   6.105 -0.1123 -0.0321  0.0571
  915YOPE   GL212116  14.254   9.958   6.075 -0.3041  0.0128 -0.0765
  915YOPE   C1A12117  14.600  10.331   6.514 -0.0400  0.0694  0.1592
  915YOPE   D2A12118  14.694  10.404   6.975  0.2550  0.1120  0.0549
  915YOPE   C3A12119  14.554  10.171   7.287  0.4413  0.1175 -0.0107
  915YOPE   C4A12120  14.704   9.907   7.656  0.4031  0.1418  0.2074
  915YOPE   C1B12121  14.158   9.936   6.575  0.3208 -0.0722 -0.0680
  915YOPE   C2B12122  14.213  10.221   6.962 -0.3287  0.1810  0.2613
  915YOPE   D3B12123  14.132  10.577   7.298  0.2706 -0.0946 -0.2250
  915YOPE   C4B12124  13.880  10.762   7.634 -0.0721  0.0231  0.1059
  916YOPE   NH312125  18.145   9.398   6.380 -0.0897 -0.0942  0.0294
  916YOPE   PO412126  18.564   9.257   6.281  0.1438 -0.1355 -0.0238
  916YOPE   GL112127  18.544   8.842   6.623 -0.2059 -0.3026 -0.1229
  916YOPE   GL212128  18.844   8.699   6.612  0.0614  0.3569  0.1042
  916YOPE   C1A12129  18.396   8.835   7.049  0.1107  0.2404 -0.2302
  916YOPE   D2A12130  18.536   8.523   7.235  0.2153 -0.0591 -0.0071
  916YOPE   C3A12131  18.864   8.244   7.196 -0.3110  0.0297  0.1386
  916YOPE   C4A12132  19.149   7.934   7.396 -0.1731  0.3524 -0.3170
  916YOPE   C1B12133  18.947   8.740   6.966 -0.2448 -0.0038 -0.1072
  916YOPE   C2B12134  19.017   8.734   7.359  0.1395  0.0706 -0.0443
  916YOPE   D3B12135  19.152   9.004   7.718  0.2095  0.1565 -0.1530
  916YOPE   C4B12136  19.449   9.287   7.939  0.0241 -0.0610  0.1002
  917YOPE   NH312137   3.396  15.867   5.690  0.0888  0.0210 -0.0793
  917YOPE   PO412138   3.575  15.496   5.898 -0.0159  0.3237  0.1122
  917YOPE   GL112139   3.914  15.392   6.190 -0.0875  0.3239  0.3508
  917YOPE   GL212140   3.719  15.217   6.349 -0.2401  0.1323 -0.0467
  917YOPE   C1A12141   4.193  15.536   6.524 -0.4544 -0.1341  0.1762
  917YOPE   D2A12142   4.267  15.382   6.925  0.1562  0.0040  0.2587
  917YOPE   C3A12143   4.733  15.405   7.106  0.1371 -0.1999  0.0667
  917YOPE   C4A12144   4.985  15.596   7.465 -0.0067 -0.0148  0.0521
  917YOPE   C1B12145   3.957  15.121   6.660 -0.0135  0.2323 -0.0016
  917YOPE   C2B12146   4.082  14.890   6.952 -0.2075  0.0834 -0.3993
  917YOPE   D3B12147   4.254  14.643   7.222  0.4996 -0.0428  0.1348
  917YOPE   C4B12148   4.250  14.793   7.609 -0.1011 -0.1466  0.0800
  918YOPE   NH312149  15.943   5.491   6.047  0.1312 -0.1215  0.0088
  918YOPE   PO412150  16.123   5.253   5.851 -0.0781  0.1576 -0.2200
  918YOPE   GL112151  16.268   5.179   6.313 -0.0493 -0.2356 -0.0676
  918YOPE   GL212152  16.578   5.205   6.331  0.0981 -0.0947  0.1235
  918YOPE   C1A12153  16.313   5.279   6.778 -0.0700 -0.0595 -0.3021
  918YOPE   D2A12154  16.405   5.309   7.249 -0.0321  0.2604  0.1044
  918YOPE   C3A12155  16.527   5.152   7.671  0.0578 -0.0194 -0.0374
  918YOPE   C4A12156  16.785   5.373   8.018 -0.2118  0.0705 -0.1492
  918YOPE   C1B12157  16.989   5.117   6.526  0.2317  0.0939  0.4073
  918YOPE   C2B12158  17.211   4.931   6.749 -0.1085 -0.1136  0.1236
  918YOPE   D3B12159  17.240   5.011   7.176  0.1159  0.0881 -0.1176
  918YOPE   C4B12160  17.388   5.273   7.480  0.2321 -0.0873 -0.0750
  919YOPE   NH312161   6.649   1.305   5.580  0.2138  0.1559  0.0201
  919YOPE   PO412162   6.307   1.595   5.711  0.0285  0.1159 -0.0896
  919YOPE   GL112163   6.126   1.319   6.060 -0.1884 -0.0779 -0.1015
  919YOPE   GL212164   5.923   1.062   6.007  0.2850 -0.0782  0.0643
  919YOPE   C1A12165   6.149   1.323   6.477  0.0756 -0.0123  0.1813
  919YOPE   D2A12166   6.222   1.433   6.946  0.0848  0.1047  0.1348
  919YOPE   C3A12167   6.452   1.389   7.285 -0.1715  0.0007 -0.1431
  919YOPE   C4A12168   6.878   1.450   7.340  0.1135 -0.0953 -0.2597
  919YOPE   C1B12169   6.059   0.793   6.296  0.2677 -0.1074  0.2256
  919YOPE   C2B12170   6.038   0.766   6.727 -0.1140 -0.1047  0.0797
  919YOPE   D3B12171   5.904   0.489   6.931  0.3902  0.2394  0.0452
  919YOPE   C4B12172   5.975   0.379   7.459 -0.3375 -0.2146 -0.2750
  920YOPE   NH312173  17.765  10.079   6.376 -0.0109  0.0221  0.4142
  920YOPE   PO412174  18.066   9.866   6.330 -0.4070  0.4405 -0.2380
  920YOPE   GL112175  18.135  10.075   6.748 -0.0497  0.0762  0.1559
  920YOPE   GL212176  18.392  10.238   6.871 -0.1020 -0.1475  0.1714
  920YOPE   C1A12177  17.990  10.110   7.157  0.2786  0.2204  0.1053
  920YOPE   D2A12178  17.767   9.947   7.332 -0.0735  0.3648  0.1141
  920YOPE   C3A12179  17.350   9.862   7.344  0.1740  0.1897 -0.1662
  920YOPE   C4A12180  17.067   9.548   7.089 -0.0224 -0.1604  0.0436
  920YOPE   C1B12181  18.451  10.126   7.362  0.1392  0.1776  0.2254
  920YOPE   C2B12182  18.629   9.975   7.780  0.1470 -0.1672 -0.1421
  920YOPE   D3B12183  19.066   9.876   8.017  0.0862  0.1270 -0.3273
  920YOPE   C4B12184  19.375   9.799   7.842 -0.2793 -0.1215  0.0340
  921YOPE   NH312185  15.730   4.361   6.025 -0.3834 -0.0762  0.0251
  921YOPE   PO412186  15.926   4.098   6.257 -0.0432 -0.2113 -0.0506
  921YOPE   GL112187  15.788   4.396   6.571 -0.1740  0.1115 -0.1299
  921YOPE   GL212188  15.581   4.670   6.484  0.0649 -0.0428 -0.2121
  921YOPE   C1A12189  15.997   4.653   6.785  0.2283 -0.1867  0.0949
  921YOPE   D2A12190  16.156   4.898   7.113 -0.2034  0.0076  0.0371
  921YOPE   C3A12191  16.283   4.741   7.577  0.0105 -0.6487 -0.0310
  921YOPE   C4A12192  16.431   4.560   7.982 -0.1911 -0.0112 -0.2576
  921YOPE   C1B12193  15.446   4.726   6.860 -0.0317 -0.3446  0.0201
  921YOPE   C2B12194  15.561   4.505   7.186  0.0184  0.1544  0.0376
  921YOPE   D3B12195  15.457   4.273   7.535  0.2037 -0.3472  0.2849
  921YOPE   C4B12196  15.168   4.522   7.871 -0.0383 -0.0632  0.0732
  922YOPE   NH312197  12.585  12.840   5.517 -0.0513  0.1019  0.1543
  922YOPE   PO412198  12.919  13.109   5.667  0.0310 -0.4042  0.1148
  922YOPE   GL112199  12.956  13.274   6.022  0.2527  0.2043  0.1951
  922YOPE   GL212200  13.027  13.473   6.108 -0.0659 -0.1072  0.0704
  922YOPE   C1A12201  13.101  12.927   6.259  0.0886  0.0840 -0.0877
  922YOPE   D2A12202  13.170  12.465   6.539 -0.0871 -0.0309 -0.2083
  922YOPE   C3A12203  13.565  12.388   6.690 -0.0008 -0.1675 -0.2404
  922YOPE   C4A12204  13.786  12.115   6.707  0.1892  0.0363  0.1620
  922YOPE   C1B12205  12.751  13.230   6.502  0.4629 -0.3072 -0.0029
  922YOPE   C2B12206  12.408  13.504   6.695  0.0808 -0.3095 -0.0583
  922YOPE   D3B12207  12.491  13.798   7.103  0.0208  0.2049 -0.1640
  922YOPE   C4B12208  12.414  14.192   7.509 -0.3046 -0.2917  0.0247
  923YOPE   NH312209   4.098   9.143   5.997  0.2765  0.0497 -0.2209
  923YOPE   PO412210   4.082   8.625   6.194 -0.0410 -0.0791 -0.1082
  923YOPE   GL112211   3.688   8.781   6.453 -0.6257  0.2166  0.1604
  923YOPE   GL212212   3.543   8.576   6.591 -0.2011  0.0651 -0.2426
  923YOPE   C1A12213   3.778   8.927   6.933 -0.1295  0.0945  0.1948
  923YOPE   D2A12214   3.984   9.088   7.218  0.2307  0.2252  0.1383
  923YOPE   C3A12215   3.960   9.128   7.667  0.1812  0.0536 -0.4165
  923YOPE   C4A12216   3.633   9.110   7.884 -0.1124 -0.1210 -0.0288
  923YOPE   C1B12217   3.874   8.482   6.801  0.2008 -0.1355  0.0671
  923YOPE   C2B12218   3.928   8.147   7.176 -0.2330  0.0462  0.0342
  923YOPE   D3B12219   3.930   8.030   7.532  0.1811  0.0145 -0.1996
  923YOPE   C4B12220   4.001   8.106   7.882  0.0692 -0.3302 -0.2754
  924YOPE   NH312221   2.694   0.274   5.679  0.0049 -0.0596 -0.1695
  924YOPE   PO412222   2.244   0.397   5.812  0.0246  0.1430 -0.0035
  924YOPE   GL112223   2.086   0.398   6.131  0.1496 -0.2406  0.1271
  924YOPE   GL212224   1.779   0.487   6.196  0.4616 -0.0202 -0.1964
  924YOPE   C1A12225   2.228   0.273   6.654 -0.3235 -0.0146  0.3688
  924YOPE   D2A12226   2.318  -0.098   6.987  0.0068 -0.0995 -0.0937
  924YOPE   C3A12227   2.650  -0.183   7.226  0.0294 -0.4596  0.0064
  924YOPE   C4A12228   3.019  -0.494   7.475  0.1562 -0.0010  0.4191
  924YOPE   C1B12229   1.826   0.140   6.460 -0.0318  0.0446  0.0986
  924YOPE   C2B12230   1.744   0.184   6.872 -0.2549  0.0585  0.4469
  924YOPE   D3B12231   1.382   0.212   7.155  0.3469 -0.2378 -0.1697
  924YOPE   C4B12232   1.138   0.539   7.170 -0.0510 -0.0681 -0.5262
  925YOPE   NH312233   3.201   9.772   5.011  0.2756  0.3899  0.0898
  925YOPE   PO412234   3.189   9.606   5.464 -0.0836 -0.2025  0.0160
  925YOPE   GL112235   3.052   9.933   5.790  0.0100 -0.0498  0.1524
  925YOPE   GL212236   3.203   9.795   5.976 -0.1282 -0.1181  0.2117
  925YOPE   C1A12237   2.797  10.199   6.132 -0.0595  0.1219  0.3567
  925YOPE   D2A12238   2.890  10.651   6.241  0.1732  0.2398  0.2343
  925YOPE   C3A12239   2.800  10.991   6.557 -0.2483 -0.1497  0.0209
  925YOPE   C4A12240   2.603  11.450   6.635  0.1881 -0.0145 -0.2810
  925YOPE   C1B12241   3.259   9.787   6.420  0.1823  0.1718 -0.1617
  925YOPE   C2B12242   3.323   9.975   6.835 -0.0748  0.3429 -0.2534
  925YOPE   D3B12243   3.344   9.892   7.233 -0.1797 -0.2753  0.0845
  925YOPE   C4B12244   3.123   9.942   7.577  0.1532 -0.1297  0.0332
  926YOPE   NH312245  12.737   8.213   6.199  0.0812  0.4670 -0.0408
  926YOPE   PO412246  12.504   8.508   5.971  0.0649  0.4298 -0.2032
  926YOPE   GL112247  12.637   8.688   6.336 -0.4184 -0.0233 -0.2440
  926YOPE   GL212248  12.433   8.500   6.481 -0.2463  0.2194  0.1623
  926YOPE   C1A12249  12.551   8.898   6.775  0.1917 -0.1891 -0.2592
  926YOPE   D2A12250  12.547   8.892   7.236 -0.0271 -0.3358  0.0265
  926YOPE   C3A12251  12.709   9.042   7.645 -0.0729  0.0840 -0.2164
  926YOPE   C4A12252  12.398   9.144   7.961 -0.2533  0.0193 -0.0088
  926YOPE   C1B12253  12.229   8.513   6.846  0.2549  0.0123 -0.2257
  926YOPE   C2B12254  12.181   8.457   7.280 -0.1383  0.1355 -0.1975
  926YOPE   D3B12255  11.985   8.297   7.605 -0.1767  0.0748 -0.3558
  926YOPE   C4B12256  12.106   8.223   7.945 -0.0993  0.0422  0.0174
  927YOPE   NH312257  17.884  14.119   5.955 -0.1197 -0.0964 -0.0326
  927YOPE   PO412258  18.015  13.763   6.029  0.0640  0.1658  0.0900
  927YOPE   GL112259  18.044  13.435   6.404 -0.0651  0.0895  0.1370
  927YOPE   GL212260  17.790  13.308   6.459  0.0529 -0.0690  0.0617
  927YOPE   C1A12261  18.150  13.464   6.847  0.0995  0.1379  0.0741
  927YOPE   D2A12262  18.489  13.691   7.018 -0.3644 -0.2395  0.0319
  927YOPE   C3A12263  18.501  13.667   7.487  0.0467  0.3871  0.1333
  927YOPE   C4A12264  18.404  13.221   7.761  0.0606  0.2229  0.0959
  927YOPE   C1B12265  17.629  13.158   6.793 -0.1656 -0.2937  0.0726
  927YOPE   C2B12266  17.636  12.933   7.226  0.3539 -0.1151  0.4063
  927YOPE   D3B12267  17.486  12.778   7.625 -0.1609  0.1317 -0.1003
  927YOPE   C4B12268  17.715  12.494   7.783  0.2345  0.4184  0.2385
  928YOPE   NH312269   0.108  17.419   6.084  0.1409  0.3286  0.0331
  928YOPE   PO412270  -0.087  17.192   5.822 -0.1323 -0.1024  0.2153
  928YOPE   GL112271  -0.206  16.954   6.216  0.2344  0.0158  0.1122
  928YOPE   GL212272  -0.425  17.199   6.309  0.0249 -0.2209  0.2506
  928YOPE   C1A12273  -0.429  16.967   6.686 -0.0049 -0.2728  0.2742
  928YOPE   D2A12274  -0.413  16.787   7.012 -0.1821 -0.0369 -0.0406
  928YOPE   C3A12275  -0.738  16.746   7.223 -0.3118 -0.1578 -0.1400
  928YOPE   C4A12276  -0.942  16.769   7.614 -0.0146 -0.0555  0.0787
  928YOPE   C1B12277  -0.677  16.817   6.145 -0.1350 -0.1593 -0.1745
  928YOPE   C2B12278  -1.112  16.616   6.233  0.0952  0.0137  0.1071
  928YOPE   D3B12279  -1.521  16.421   6.154 -0.0679  0.1875 -0.0465
  928YOPE   C4B12280  -1.774  16.171   6.365  0.3223  0.3794  0.1526
  929YOPE   NH312281  10.763   4.716   5.527  0.0184 -0.1276 -0.1201
  929YOPE   PO412282  10.996   4.958   5.916 -0.0091 -0.3139  0.1863
  929YOPE   GL112283  10.886   4.585   6.083 -0.2080 -0.0589  0.2259
  929YOPE   GL212284  10.965   4.532   6.389 -0.2403 -0.2713 -0.2373
  929YOPE   C1A12285  11.228   4.203   6.083 -0.1354 -0.0541 -0.1038
  929YOPE   D2A12286  11.060   3.867   6.238  0.2510 -0.2986  0.1332
  929YOPE   C3A12287  11.256   3.442   6.264  0.0206 -0.0637 -0.3544
  929YOPE   C4A12288  11.171   3.095   6.580 -0.1481 -0.2096  0.1266
  929YOPE   C1B12289  11.149   4.223   6.671 -0.0056 -0.3459 -0.0784
  929YOPE   C2B12290  10.971   4.021   7.163  0.0124 -0.1377  0.0360
  929YOPE   D3B12291  10.873   4.106   7.560 -0.2319 -0.1210 -0.0400
  929YOPE   C4B12292  10.606   3.940   7.843  0.1133 -0.1335 -0.0030
  930YOPE   NH312293  14.819  17.539   5.787 -0.2202 -0.1078  0.1480
  930YOPE   PO412294  14.966  17.054   5.768 -0.0654 -0.0486 -0.1878
  930YOPE   GL112295  15.145  17.145   6.158  0.0490 -0.0515 -0.0803
  930YOPE   GL212296  14.986  17.398   6.235 -0.1894 -0.1369  0.1221
  930YOPE   C1A12297  15.434  17.088   6.560 -0.1288 -0.1706 -0.1907
  930YOPE   D2A12298  15.312  17.119   6.940  0.1635 -0.2325 -0.2462
  930YOPE   C3A12299  15.080  17.052   7.397 -0.1018 -0.2570  0.0244
  930YOPE   C4A12300  14.933  17.148   7.763  0.1781 -0.3160 -0.1624
  930YOPE   C1B12301  14.912  17.240   6.545  0.1376  0.1256  0.1736
  930YOPE   C2B12302  14.684  17.241   6.983  0.3804 -0.0812 -0.2464
  930YOPE   D3B12303  14.519  17.245   7.407 -0.3052 -0.2087  0.2771
  930YOPE   C4B12304  14.107  17.088   7.370  0.1450 -0.2736  0.0047
  931YOPE   NH312305   7.061   6.159   5.827 -0.2442  0.3496 -0.1863
  931YOPE   PO412306   6.754   6.020   5.557  0.3900  0.0020  0.1667
  931YOPE   GL112307   6.641   5.979   6.036  0.3970 -0.1909 -0.3073
  931YOPE   GL212308   6.772   6.045   6.203 -0.3790 -0.1014  0.5258
  931YOPE   C1A12309   6.355   5.648   6.163  0.1993  0.0336 -0.1942
  931YOPE   D2A12310   6.093   5.682   6.523 -0.0571  0.0028  0.0214
  931YOPE   C3A12311   5.878   5.491   6.862  0.0721 -0.1150  0.2389
  931YOPE   C4A12312   6.095   5.265   7.184 -0.1491  0.0335  0.2315
  931YOPE   C1B12313   6.541   5.977   6.576 -0.1949 -0.0673 -0.2500
  931YOPE   C2B12314   6.482   5.718   6.915 -0.1078  0.0835  0.1983
  931YOPE   D3B12315   6.584   5.513   7.294  0.1289 -0.1208  0.0165
  931YOPE   C4B12316   6.765   5.298   7.570 -0.3614  0.2172 -0.1005
  932YOPE   NH312317  14.383  12.540   6.123  0.0417 -0.0848  0.3183
  932YOPE   PO412318  14.260  12.197   6.022 -0.2038  0.3165  0.1089
  932YOPE   GL112319  14.356  12.125   6.427  0.1270 -0.1204 -0.1051
  932YOPE   GL212320  14.226  12.010   6.691 -0.0666  0.2493 -0.2470
  932YOPE   C1A12321  14.672  12.433   6.711 -0.3441 -0.0777  0.3503
  932YOPE   D2A12322  14.962  12.264   7.018  0.0952  0.0828  0.2250
  932YOPE   C3A12323  14.805  12.285   7.403  0.4164  0.0998 -0.1188
  932YOPE   C4A12324  14.898  12.332   7.835  0.0856  0.2373  0.2885
  932YOPE   C1B12325  14.094  12.068   7.104 -0.0050  0.0863 -0.0311
  932YOPE   C2B12326  14.080  12.209   7.518 -0.2274 -0.0392 -0.0775
  932YOPE   D3B12327  13.854  12.109   7.720  0.1687  0.3010  0.1330
  932YOPE   C4B12328  13.611  11.908   8.064  0.1870  0.1691  0.3147
  933YOPE   NH312329  15.494  16.242   5.810  0.4530 -0.0067  0.0040
  933YOPE   PO412330  15.737  15.817   5.719 -0.0981 -0.0583 -0.0167
  933YOPE   GL112331  15.722  15.762   6.151  0.0701  0.1304 -0.0688
  933YOPE   GL212332  15.416  15.865   6.079 -0.2587  0.2237  0.1623
  933YOPE   C1A12333  15.757  15.527   6.564  0.4003 -0.1570  0.0109
  933YOPE   D2A12334  15.672  15.506   7.025  0.1657 -0.0936  0.2536
  933YOPE   C3A12335  15.777  15.339   7.474  0.0944 -0.0893 -0.0096
  933YOPE   C4A12336  15.738  15.129   7.915  0.3533  0.1165 -0.1373
  933YOPE   C1B12337  15.404  15.872   6.511 -0.0916  0.2020 -0.0013
  933YOPE   C2B12338  15.449  15.925   6.946  0.0720 -0.1565  0.0625
  933YOPE   D3B12339  15.553  16.370   7.206  0.0977  0.1970  0.5466
  933YOPE   C4B12340  15.466  16.746   7.183 -0.1234  0.1223 -0.2527
  934YOPE   NH312341  15.305  13.665   6.015 -0.1114  0.1274 -0.0251
  934YOPE   PO412342  14.969  13.805   5.833  0.0855 -0.3662  0.1151
  934YOPE   GL112343  14.940  13.967   6.256 -0.0860  0.1926  0.2966
  934YOPE   GL212344  15.102  13.798   6.481 -0.1704 -0.0335  0.1257
  934YOPE   C1A12345  14.662  13.913   6.557 -0.1001 -0.1067 -0.1857
  934YOPE   D2A12346  14.578  13.919   6.979  0.3060 -0.0573 -0.2408
  934YOPE   C3A12347  14.275  13.974   7.329  0.0966 -0.0131 -0.1140
  934YOPE   C4A12348  13.846  14.034   7.401 -0.4441  0.0580 -0.2511
  934YOPE   C1B12349  15.084  13.880   6.834  0.0298 -0.0722 -0.1080
  934YOPE   C2B12350  14.935  14.028   7.334 -0.1907 -0.2197 -0.4260
  934YOPE   D3B12351  14.697  13.926   7.704  0.0527 -0.3011  0.1703
  934YOPE   C4B12352  14.295  13.991   7.932 -0.2931 -0.1863 -0.3143
  935YOPE   NH312353   1.714   2.806   5.866  0.2438 -0.2845  0.1169
  935YOPE   PO412354   1.286   2.803   5.969 -0.1214  0.2881 -0.2455
  935YOPE   GL112355   1.436   2.847   6.284  0.0107  0.1819 -0.0303
  935YOPE   GL212356   1.304   3.118   6.418 -0.0128  0.3621  0.2392
  935YOPE   C1A12357   1.813   2.916   6.600 -0.1252  0.1751  0.2031
  935YOPE   D2A12358   2.224   2.893   6.772  0.0284  0.1318 -0.0654
  935YOPE   C3A12359   2.224   2.710   7.199  0.0542  0.2914 -0.2258
  935YOPE   C4A12360   2.091   2.367   7.557 -0.1425 -0.0753  0.0159
  935YOPE   C1B12361   1.429   3.084   6.835 -0.1300 -0.0116  0.0032
  935YOPE   C2B12362   1.411   3.320   7.253  0.3006 -0.1697  0.3072
  935YOPE   D3B12363   1.386   3.497   7.679  0.0511 -0.1043  0.3605
  935YOPE   C4B12364   1.226   3.528   8.057 -0.1367  0.0306 -0.1120
  936YOPE   NH312365  10.061   8.462   5.615  0.0896 -0.1288  0.3366
  936YOPE   PO412366   9.651   8.719   5.535 -0.1852  0.0792 -0.0382
  936YOPE   GL112367   9.425   8.529   5.822  0.1290 -0.3287  0.1106
  936YOPE   GL212368   9.635   8.305   5.870 -0.1464 -0.0158  0.1974
  936YOPE   C1A12369   9.317   8.302   6.265 -0.0122 -0.0409  0.0698
  936YOPE   D2A12370   9.375   8.056   6.587 -0.0419  0.2499  0.0845
  936YOPE   C3A12371   9.362   8.123   7.083  0.1993 -0.1307 -0.2261
  936YOPE   C4A12372   9.300   8.050   7.571  0.0526 -0.1542 -0.0151
  936YOPE   C1B12373   9.818   8.104   6.063 -0.2747 -0.4576 -0.1657
  936YOPE   C2B12374  10.291   7.957   6.167  0.1987  0.1867 -0.0265
  936YOPE   D3B12375  10.345   7.671   6.525  0.0636  0.0556 -0.1244
  936YOPE   C4B12376  10.220   7.277   6.770  0.1995 -0.0961  0.0446
  937YOPE   NH312377   3.870   2.472   5.840 -0.0643  0.0630 -0.1472
  937YOPE   PO412378   3.774   2.042   5.629  0.0583 -0.1225  0.1322
  937YOPE   GL112379   3.827   1.958   6.024  0.3974  0.0352  0.3161
  937YOPE   GL212380   4.097   2.219   6.203 -0.0087 -0.0593  0.0123
  937YOPE   C1A12381   3.606   1.838   6.360  0.2341 -0.0300 -0.1400
  937YOPE   D2A12382   3.739   1.651   6.846 -0.1149  0.3660  0.0936
  937YOPE   C3A12383   3.421   1.462   6.994  0.1787 -0.0936  0.1043
  937YOPE   C4A12384   3.119   1.155   7.117  0.2704  0.0440 -0.1093
  937YOPE   C1B12385   3.853   2.290   6.499 -0.0768 -0.2331  0.0602
  937YOPE   C2B12386   3.507   2.187   6.864  0.2267  0.0390  0.1102
  937YOPE   D3B12387   3.373   1.974   7.263  0.4633  0.2965  0.0354
  937YOPE   C4B12388   3.430   1.780   7.635 -0.0717  0.0757  0.1854
  938YOPE   NH312389   8.002   6.049   5.474  0.0504  0.1507  0.0720
  938YOPE   PO412390   7.599   6.040   5.785  0.0146 -0.1905  0.0765
  938YOPE   GL112391   7.506   6.348   6.190  0.2188 -0.2621 -0.0494
  938YOPE   GL212392   7.250   6.236   6.356  0.0545 -0.0664 -0.0687
  938YOPE   C1A12393   7.503   6.620   6.578  0.2271 -0.1930 -0.0985
  938YOPE   D2A12394   7.660   6.696   7.071  0.0179  0.1679 -0.0888
  938YOPE   C3A12395   7.904   6.403   7.163  0.1130  0.4109 -0.2156
  938YOPE   C4A12396   8.047   6.304   7.511 -0.2609  0.0550 -0.0566
  938YOPE   C1B12397   6.927   6.369   6.603 -0.1048 -0.0528  0.1170
  938YOPE   C2B12398   6.846   6.391   6.889  0.0649  0.2138 -0.1285
  938YOPE   D3B12399   6.638   6.589   7.211  0.1475  0.0615 -0.0358
  938YOPE   C4B12400   6.421   6.540   7.612 -0.3953 -0.0331  0.0521
  939YOPE   NH312401   1.809  11.685   5.573 -0.1127  0.0080 -0.2169
  939YOPE   PO412402   1.650  11.534   5.884  0.0595  0.3289  0.2603
  939YOPE   GL112403   1.874  11.761   6.168  0.0357 -0.4712  0.2395
  939YOPE   GL212404   1.810  12.061   6.263  0.0882 -0.1872  0.0423
  939YOPE   C1A12405   2.151  11.674   6.516  0.1286  0.4858  0.2470
  939YOPE   D2A12406   2.303  11.736   6.929 -0.0054  0.0410 -0.0646
  939YOPE   C3A12407   2.580  11.542   7.214  0.2838  0.2045  0.2131
  939YOPE   C4A12408   2.436  11.335   7.532 -0.1327 -0.1739  0.0095
  939YOPE   C1B12409   1.451  12.169   6.445  0.0240  0.0572 -0.0817
  939YOPE   C2B12410   1.293  12.113   6.883 -0.2469 -0.1316  0.1059
  939YOPE   D3B12411   1.488  12.239   7.288  0.1748  0.0315  0.1352
  939YOPE   C4B12412   1.740  12.085   7.592 -0.0997  0.3565 -0.3706
  940YOPE   NH312413   5.134  13.999   5.589  0.0371 -0.1099 -0.0640
  940YOPE   PO412414   4.770  14.119   5.790 -0.3898 -0.0583  0.3708
  940YOPE   GL112415   5.029  13.970   6.110 -0.1709 -0.0032  0.2763
  940YOPE   GL212416   5.340  14.006   6.051 -0.4593 -0.1107 -0.3857
  940YOPE   C1A12417   5.109  13.823   6.431 -0.1975  0.0262 -0.0597
  940YOPE   D2A12418   5.166  13.832   6.912 -0.3852 -0.0107  0.2349
  940YOPE   C3A12419   4.927  13.777   7.213 -0.0845 -0.5094 -0.2593
  940YOPE   C4A12420   4.936  13.572   7.548 -0.0214 -0.1005  0.5568
  940YOPE   C1B12421   5.492  14.161   6.339 -0.1210  0.1967  0.1241
  940YOPE   C2B12422   5.707  14.134   6.746  0.0227 -0.0170 -0.2514
  940YOPE   D3B12423   5.743  14.125   7.159 -0.2618  0.2613  0.0700
  940YOPE   C4B12424   6.032  14.359   7.447 -0.2372  0.0677  0.1924
  941YOPE   NH312425   7.707  11.987   6.021  0.2746  0.2228  0.0926
  941YOPE   PO412426   8.050  12.304   5.728 -0.0384 -0.1893  0.0778
  941YOPE   GL112427   8.469  12.586   5.887 -0.1170  0.0254 -0.2900
  941YOPE   GL212428   8.812  12.484   5.867  0.1532 -0.0860 -0.0626
  941YOPE   C1A12429   8.597  12.695   6.327 -0.2220 -0.1007  0.0835
  941YOPE   D2A12430   8.671  12.923   6.718 -0.0104  0.1295 -0.3188
  941YOPE   C3A12431   8.529  12.864   7.122  0.4472  0.2199 -0.0292
  941YOPE   C4A12432   8.505  13.259   7.294  0.1151  0.1513  0.0966
  941YOPE   C1B12433   9.025  12.350   6.283 -0.0237 -0.0471  0.0343
  941YOPE   C2B12434   9.310  12.201   6.517 -0.0401  0.0620 -0.1382
  941YOPE   D3B12435   9.351  11.967   6.838 -0.2049 -0.3484 -0.0411
  941YOPE   C4B12436   9.605  11.762   7.079  0.0664 -0.1927  0.1470
  942POPC   NC312437   1.838   4.021   6.199  0.3049 -0.0328  0.3287
  942POPC   PO412438   1.865   3.622   6.018  0.0218 -0.0118 -0.2664
  942POPC   GL112439   1.757   3.409   6.461 -0.0632 -0.1394 -0.0490
  942POPC   GL212440   1.423   3.560   6.610 -0.0555  0.3114 -0.2365
  942POPC   C1A12441   2.098   3.328   6.677  0.0648  0.0596 -0.1624
  942POPC   D2A12442   2.511   3.408   6.737  0.0896 -0.1817  0.2538
  942POPC   C3A12443   2.741   3.139   6.813  0.0813 -0.0446 -0.3967
  942POPC   C4A12444   2.654   2.728   7.030 -0.0230  0.0504  0.1956
  942POPC   C1B12445   1.346   3.794   7.004  0.0659  0.1223 -0.0003
  942POPC   C2B12446   1.674   3.927   7.355 -0.2726 -0.0659  0.0111
  942POPC   C3B12447   1.558   3.914   7.821 -0.2633 -0.1080 -0.3374
  942POPC   C4B12448   1.563   3.986   8.230  0.3411  0.1610 -0.1462
  943POPC   NC312449  12.385   2.997   5.205  0.1385 -0.1710  0.0259
  943POPC   PO412450  12.259   2.862   5.623  0.1150 -0.1610 -0.0583
  943POPC   GL112451  12.145   2.622   5.904 -0.1690 -0.4458  0.2264
  943POPC   GL212452  12.042   2.334   5.995 -0.2068 -0.3209  0.1967
  943POPC   C1A12453  11.728   2.716   6.235 -0.0746  0.1099 -0.0390
  943POPC   D2A12454  11.611   2.759   6.685  0.2659 -0.1418 -0.2371
  943POPC   C3A12455  11.727   2.712   7.226  0.0570 -0.0128 -0.3228
  943POPC   C4A12456  11.744   2.541   7.500  0.0843  0.1995  0.1790
  943POPC   C1B12457  11.840   2.040   6.135 -0.3754 -0.2762  0.0659
  943POPC   C2B12458  11.345   1.826   6.222 -0.1612 -0.1161 -0.0376
  943POPC   C3B12459  10.927   1.700   6.316  0.2101  0.0506 -0.1047
  943POPC   C4B12460  10.599   1.514   6.265 -0.0362  0.0574 -0.1588
  944POPC   NC312461  10.282   6.056   5.632 -0.3207 -0.2070 -0.0529
  944POPC   PO412462   9.867   5.832   5.689 -0.0668 -0.1282 -0.2822
  944POPC   GL112463   9.871   6.076   6.099 -0.0546  0.0824  0.0443
  944POPC   GL212464   9.538   6.094   6.207 -0.1522 -0.1783  0.0765
  944POPC   C1A12465   9.857   6.236   6.587  0.1238  0.1811  0.0029
  944POPC   D2A12466   9.738   6.283   6.996  0.2633  0.0286  0.0599
  944POPC   C3A12467   9.707   6.303   7.417 -0.2618  0.1964 -0.0501
  944POPC   C4A12468   9.527   6.139   7.774 -0.3154 -0.1366  0.1663
  944POPC   C1B12469   9.385   6.152   6.603 -0.1834  0.3943  0.1744
  944POPC   C2B12470   9.223   6.130   6.916 -0.1019  0.1462  0.0240
  944POPC   C3B12471   9.210   6.269   7.335 -0.0297  0.1945  0.0540
  944POPC   C4B12472   9.034   6.285   7.750  0.1815  0.0859  0.1937
  945POPC   NC312473  11.484  11.866   5.392  0.2518 -0.0483  0.0608
  945POPC   PO412474  11.825  12.174   5.450 -0.2428  0.0312  0.0350
  945POPC   GL112475  11.603  12.179   5.829  0.1776 -0.2180  0.0584
  945POPC   GL212476  11.872  12.223   6.015  0.0737  0.2584  0.0717
  945POPC   C1A12477  11.371  12.424   6.163 -0.1325  0.1608  0.3142
  945POPC   D2A12478  11.406  12.471   6.655 -0.1619 -0.1865  0.3648
  945POPC   C3A12479  11.682  12.804   6.726 -0.0700 -0.4293 -0.1654
  945POPC   C4A12480  11.684  12.843   7.173 -0.0334 -0.1082  0.2161
  945POPC   C1B12481  11.747  11.850   6.267 -0.0033 -0.0623  0.1764
  945POPC   C2B12482  11.647  12.001   6.623  0.5150 -0.1006 -0.2698
  945POPC   C3B12483  11.514  11.966   7.154  0.0070  0.1310  0.1461
  945POPC   C4B12484  11.510  11.874   7.621  0.2681  0.0153 -0.2834
  946POPC   NC312485  17.946   8.106   6.079  0.2231 -0.2300  0.0516
  946POPC   PO412486  17.861   7.698   6.228 -0.1608 -0.4230 -0.1871
  946POPC   GL112487  17.955   7.656   6.713  0.0002 -0.2481 -0.0961
  946POPC   GL212488  17.819   7.372   6.794  0.2371  0.1443 -0.1306
  946POPC   C1A12489  18.263   7.756   7.019 -0.1911  0.0879  0.1810
  946POPC   D2A12490  18.353   7.996   7.392 -0.1020  0.1007  0.0032
  946POPC   C3A12491  18.237   7.844   7.805 -0.0967  0.1034 -0.0053
  946POPC   C4A12492  18.535   7.643   8.121  0.0206  0.1639 -0.0969
  946POPC   C1B12493  17.828   7.470   7.214 -0.2225  0.2195 -0.0211
  946POPC   C2B12494  17.863   7.557   7.605 -0.2016 -0.0148  0.0949
  946POPC   C3B12495  17.627   7.349   7.944  0.2816 -0.3479  0.2435
  946POPC   C4B12496  17.575   7.003   8.289 -0.1117  0.3174  0.0005
  947POPC   NC312497   2.892   6.511   6.389 -0.1016  0.1465 -0.1016
  947POPC   PO412498   2.899   6.890   6.181  0.2034 -0.1436 -0.0620
  947POPC   GL112499   2.987   7.126   6.502  0.3769  0.2406  0.2673
  947POPC   GL212500   3.189   6.884   6.607 -0.2555  0.1264  0.1045
  947POPC   C1A12501   2.906   7.334   6.851 -0.1482 -0.0173 -0.1646
  947POPC   D2A12502   2.507   7.183   7.074  0.0180 -0.2531  0.1355
  947POPC   C3A12503   2.403   7.111   7.581 -0.1443  0.0364  0.0431
  947POPC   C4A12504   2.309   7.147   8.076 -0.0759  0.0151  0.2552
  947POPC   C1B12505   3.136   6.559   6.946 -0.1649  0.0701 -0.0652
  947POPC   C2B12506   3.122   6.329   7.419 -0.1299  0.4283 -0.0861
  947POPC   C3B12507   3.272   6.087   7.780  0.0570 -0.0887 -0.0735
  947POPC   C4B12508   3.258   5.804   8.069  0.1048  0.2652 -0.1106
  948POPC   NC312509   3.336   3.325   5.644  0.1144 -0.2809 -0.1107
  948POPC   PO412510   3.403   3.338   6.082 -0.1043  0.3522  0.2953
  948POPC   GL112511   3.382   3.239   6.521 -0.1442 -0.0483 -0.0984
  948POPC   GL212512   3.119   3.436   6.778 -0.0731  0.0260 -0.0791
  948POPC   C1A12513   3.591   3.175   6.891  0.2220  0.3713  0.1684
  948POPC   D2A12514   3.704   2.857   7.211  0.1037  0.0011 -0.0599
  948POPC   C3A12515   3.650   2.446   7.260  0.1551  0.2588 -0.2663
  948POPC   C4A12516   3.855   2.048   7.176 -0.0912 -0.1004 -0.1178
  948POPC   C1B12517   3.116   3.321   7.151  0.1459 -0.0751  0.0923
  948POPC   C2B12518   3.139   3.491   7.555  0.1993 -0.3177 -0.1548
  948POPC   C3B12519   3.243   3.397   8.069  0.0065  0.1408 -0.0720
  948POPC   C4B12520   3.136   3.002   8.243 -0.0052  0.0330  0.4218
  949POPC   NC312521  10.750   5.795   5.962 -0.0419 -0.2271  0.1275
  949POPC   PO412522  10.667   6.215   5.936 -0.2797  0.4354  0.2719
  949POPC   GL112523  10.366   6.255   6.255 -0.2409 -0.0796  0.0197
  949POPC   GL212524  10.333   6.415   6.567 -0.4034 -0.1878  0.2471
  949POPC   C1A12525  10.292   5.919   6.623 -0.0067 -0.1475 -0.1546
  949POPC   D2A12526  10.294   5.652   6.952 -0.0865  0.0779 -0.0476
  949POPC   C3A12527  10.370   5.785   7.412  0.1489 -0.1091 -0.0371
  949POPC   C4A12528  10.672   6.041   7.610 -0.2132  0.1301 -0.4086
  949POPC   C1B12529  10.205   6.329   6.988  0.2293  0.4356  0.4303
  949POPC   C2B12530  10.194   6.271   7.440  0.1225  0.0465 -0.0025
  949POPC   C3B12531  10.089   6.108   7.842 -0.2213 -0.1401 -0.2442
  949POPC   C4B12532   9.823   5.929   8.162 -0.5483 -0.1433 -0.1054
  950POPC   NC312533   6.947   7.663   5.458  0.1449  0.3714 -0.0166
  950POPC   PO412534   7.216   7.656   5.851 -0.0473 -0.1894  0.1615
  950POPC   GL112535   7.092   7.701   6.220 -0.1459 -0.1938  0.0306
  950POPC   GL212536   7.264   7.346   6.300  0.2546  0.3449  0.2003
  950POPC   C1A12537   7.259   8.029   6.538 -0.0999  0.0014 -0.0663
  950POPC   D2A12538   7.293   8.465   6.759 -0.0963 -0.0445 -0.2350
  950POPC   C3A12539   7.349   8.575   7.211 -0.2497 -0.1877 -0.1130
  950POPC   C4A12540   7.400   8.800   7.576  0.0739 -0.1052 -0.0570
  950POPC   C1B12541   7.511   7.133   6.621 -0.0429 -0.0094 -0.2165
  950POPC   C2B12542   7.629   7.174   7.051  0.3048 -0.1220 -0.1338
  950POPC   C3B12543   7.434   7.174   7.475 -0.4429 -0.0313 -0.0481
  950POPC   C4B12544   7.456   6.954   7.766  0.1409 -0.1184 -0.2277
  951POPC   NC312545   3.044   5.573   6.175  0.2335  0.0668 -0.0591
  951POPC   PO412546   2.676   5.701   5.943  0.1935  0.1555  0.3022
  951POPC   GL112547   2.539   5.712   6.279  0.1610 -0.2222  0.2603
  951POPC   GL212548   2.590   6.069   6.277  0.0819  0.1666  0.1000
  951POPC   C1A12549   2.292   5.442   6.621  0.0751 -0.1289  0.1072
  951POPC   D2A12550   2.030   5.237   6.945  0.2753 -0.1459  0.0927
  951POPC   C3A12551   1.798   5.431   7.198  0.0928  0.0209 -0.1481
  951POPC   C4A12552   1.835   5.457   7.665 -0.3119  0.0461  0.1202
  951POPC   C1B12553   2.414   6.009   6.708 -0.1407  0.0416 -0.0712
  951POPC   C2B12554   2.340   6.302   7.065  0.1039 -0.3170 -0.1094
  951POPC   C3B12555   2.093   6.466   7.469 -0.1311  0.1000  0.2232
  951POPC   C4B12556   2.039   6.879   7.762 -0.1450  0.0048  0.0063
  952POPC   NC312557   9.024  13.557   5.343 -0.1677  0.3172  0.2105
  952POPC   PO412558   9.019  13.352   5.627 -0.1411  0.0366 -0.2328
  952POPC   GL112559   9.264  13.200   5.872 -0.0376  0.2507  0.0767
  952POPC   GL212560   9.291  13.260   6.162 -0.0803 -0.0157 -0.2408
  952POPC   C1A12561   9.255  12.731   6.020 -0.2025  0.0501  0.2609
  952POPC   D2A12562   9.599  12.493   6.196  0.2662 -0.0507  0.0823
  952POPC   C3A12563   9.859  12.375   6.529  0.1119 -0.1023  0.2131
  952POPC   C4A12564   9.710  12.275   6.886 -0.2902 -0.0649 -0.0863
  952POPC   C1B12565   9.728  13.080   6.448 -0.0222 -0.0994 -0.0770
  952POPC   C2B12566   9.873  13.117   6.856 -0.0654 -0.0317  0.0009
  952POPC   C3B12567   9.881  12.662   7.130  0.0639 -0.0687  0.1720
  952POPC   C4B12568  10.074  12.182   7.281 -0.1677  0.1685  0.1739
  953POPC   NC312569  14.181  17.770   5.107 -0.0043  0.2334  0.1843
  953POPC   PO412570  14.346  17.921   5.543 -0.2587 -0.0355  0.0204
  953POPC   GL112571  14.281  17.882   5.887  0.0390  0.2781 -0.0843
  953POPC   GL212572  14.498  17.797   6.106 -0.1131  0.2640 -0.2076
  953POPC   C1A12573  14.177  17.475   6.062 -0.0746 -0.0150  0.1285
  953POPC   D2A12574  14.120  17.349   6.499 -0.1471 -0.4234  0.0267
  953POPC   C3A12575  13.716  17.606   6.339 -0.2181 -0.2763  0.1426
  953POPC   C4A12576  13.308  17.611   6.369  0.4943 -0.0180  0.1056
  953POPC   C1B12577  14.607  17.667   6.488  0.1388  0.3499  0.3514
  953POPC   C2B12578  14.581  17.689   6.881  0.0430 -0.2005  0.2270
  953POPC   C3B12579  14.581  17.754   7.255 -0.1066 -0.0982 -0.0731
  953POPC   C4B12580  14.684  18.036   7.732  0.2164  0.2562  0.1402
  954POPC   NC312581   1.562  13.301   5.969 -0.0296  0.0778  0.4012
  954POPC   PO412582   1.583  13.697   5.961  0.0683 -0.1102  0.1333
  954POPC   GL112583   1.629  13.686   6.386  0.3791 -0.1726  0.3615
  954POPC   GL212584   1.279  13.868   6.327  0.0370  0.2703 -0.1970
  954POPC   C1A12585   1.790  13.667   6.861 -0.1485  0.0153 -0.0134
  954POPC   D2A12586   1.964  13.520   7.299  0.0501 -0.0711 -0.0848
  954POPC   C3A12587   1.840  13.249   7.627  0.2649 -0.1278  0.1455
  954POPC   C4A12588   1.792  13.030   7.950 -0.5506 -0.0259 -0.1294
  954POPC   C1B12589   1.276  14.026   6.679 -0.2319  0.2042 -0.1255
  954POPC   C2B12590   1.441  14.018   7.016 -0.1199 -0.1132 -0.1812
  954POPC   C3B12591   1.620  13.927   7.347 -0.0228  0.1465 -0.3978
  954POPC   C4B12592   1.859  13.755   7.717  0.3800 -0.0206 -0.5324
  955POPC   NC312593   8.599   9.794   5.746  0.1208  0.2490  0.0927
  955POPC   PO412594   8.212   9.818   5.799  0.0697 -0.1852 -0.1136
  955POPC   GL112595   8.383   9.867   6.164 -0.1869  0.1569 -0.3783
  955POPC   GL212596   8.669   9.866   6.245 -0.2474  0.1324 -0.2450
  955POPC   C1A12597   8.433   9.723   6.658  0.1364  0.0567  0.0569
  955POPC   D2A12598   8.327   9.793   7.143 -0.0545  0.2078  0.1145
  955POPC   C3A12599   8.554   9.460   7.352  0.1538 -0.1179  0.3808
  955POPC   C4A12600   8.562   9.109   7.692  0.0581 -0.3072 -0.0815
  955POPC   C1B12601   8.725  10.111   6.547 -0.0195  0.1905 -0.3010
  955POPC   C2B12602   8.631  10.159   6.987  0.1617 -0.0549  0.0850
  955POPC   C3B12603   8.623  10.087   7.444  0.3031  0.5070  0.0408
  955POPC   C4B12604   8.774  10.100   7.843 -0.1488 -0.1175 -0.0440
  956POPC   NC312605   9.926   2.978   5.709 -0.0745  0.3657  0.1301
  956POPC   PO412606   9.757   2.737   5.773 -0.2880 -0.0615  0.1635
  956POPC   GL112607   9.635   2.546   6.151  0.1311 -0.2663  0.1780
  956POPC   GL212608   9.635   2.273   5.954  0.2359 -0.0262  0.2912
  956POPC   C1A12609   9.491   2.629   6.580 -0.0988 -0.1246  0.0945
  956POPC   D2A12610   9.715   2.504   6.930 -0.0470 -0.0979 -0.0131
  956POPC   C3A12611   9.677   2.543   7.325  0.0575 -0.0748 -0.1349
  956POPC   C4A12612   9.777   2.605   7.709 -0.0139 -0.2732 -0.1182
  956POPC   C1B12613   9.538   2.128   6.354 -0.0727 -0.2731  0.0322
  956POPC   C2B12614   9.484   1.970   6.664  0.1573 -0.2909  0.1920
  956POPC   C3B12615   9.324   2.204   6.820  0.0797  0.3281  0.1633
  956POPC   C4B12616   9.122   2.535   7.109  0.0640 -0.0011  0.2950
  957POPC   NC312617   4.717  12.270   5.385 -0.1410 -0.0862 -0.0671
  957POPC   PO412618   4.909  12.684   5.319 -0.0640  0.2074  0.0660
  957POPC   GL112619   4.722  12.833   5.730  0.0170 -0.4796  0.1910
  957POPC   GL212620   4.508  12.991   5.818 -0.1369 -0.0965  0.2178
  957POPC   C1A12621   4.873  12.972   6.168  0.2706 -0.1059 -0.0473
  957POPC   D2A12622   4.806  12.962   6.724  0.2827 -0.0823 -0.0998
  957POPC   C3A12623   4.871  12.527   7.016 -0.1525 -0.0885 -0.1526
  957POPC   C4A12624   5.035  12.424   7.386 -0.0165  0.0990 -0.1019
  957POPC   C1B12625   4.213  12.696   5.900  0.3484  0.0973  0.0514
  957POPC   C2B12626   4.071  12.459   6.251  0.0592 -0.2263  0.0351
  957POPC   C3B12627   4.271  12.272   6.641  0.0365  0.1958  0.0858
  957POPC   C4B12628   4.523  12.156   7.004  0.0059  0.1246  0.0062
  958POPC   NC312629   6.053   2.833   5.668  0.0193  0.1238  0.0915
  958POPC   PO412630   6.405   2.836   5.718  0.2248  0.1491 -0.1337
  958POPC   GL112631   6.296   2.920   6.110  0.2356  0.0446  0.1032
  958POPC   GL212632   6.132   2.865   6.268  0.2010 -0.0797 -0.1792
  958POPC   C1A12633   6.426   2.940   6.639  0.2341 -0.2360 -0.1122
  958POPC   D2A12634   6.266   2.995   7.035 -0.3508  0.3850  0.3311
  958POPC   C3A12635   6.133   2.704   7.384 -0.1655  0.4469 -0.0255
  958POPC   C4A12636   6.023   2.515   7.740  0.2278  0.0126  0.1777
  958POPC   C1B12637   6.098   2.533   6.517 -0.2128  0.5185 -0.1653
  958POPC   C2B12638   6.201   2.516   6.924 -0.2687 -0.0496  0.1520
  958POPC   C3B12639   6.520   2.448   7.333 -0.1580 -0.5757 -0.1742
  958POPC   C4B12640   6.692   2.197   7.615  0.3384  0.0042  0.0441
  959POPC   NC312641   5.943   4.878   5.847  0.1190 -0.0432  0.0163
  959POPC   PO412642   6.156   4.606   5.604 -0.3017  0.0787 -0.0477
  959POPC   GL112643   6.276   4.458   6.057  0.1758 -0.3011  0.1535
  959POPC   GL212644   6.232   4.074   6.049 -0.0561  0.0858 -0.1611
  959POPC   C1A12645   6.313   4.316   6.500  0.1205  0.0277 -0.0785
  959POPC   D2A12646   6.368   4.205   6.923 -0.0782  0.2363 -0.1805
  959POPC   C3A12647   6.433   4.376   7.249 -0.2150 -0.1176  0.0335
  959POPC   C4A12648   6.362   4.435   7.654  0.1015  0.2726 -0.2290
  959POPC   C1B12649   6.533   3.856   6.253  0.0587  0.2794  0.0328
  959POPC   C2B12650   6.533   3.752   6.676  0.0244  0.2032 -0.0438
  959POPC   C3B12651   6.555   3.404   6.939 -0.1520 -0.2410  0.1768
  959POPC   C4B12652   6.727   3.387   7.323 -0.2492 -0.0644  0.0051
  960POPC   NC312653   3.561   7.937   5.587 -0.3568  0.2248  0.0437
  960POPC   PO412654   3.347   7.947   6.098 -0.1624 -0.2798 -0.1423
  960POPC   GL112655   3.524   8.012   6.514  0.1567  0.2890  0.1694
  960POPC   GL212656   3.880   8.038   6.543 -0.3690  0.0799 -0.2262
  960POPC   C1A12657   3.510   8.129   6.903  0.1294 -0.3641 -0.0235
  960POPC   D2A12658   3.518   7.969   7.300  0.1751 -0.0735 -0.4112
  960POPC   C3A12659   3.499   8.289   7.573 -0.0993 -0.2128  0.0451
  960POPC   C4A12660   3.839   8.642   7.793  0.2644  0.0364  0.0415
  960POPC   C1B12661   3.849   7.749   6.815 -0.0089  0.2534 -0.4160
  960POPC   C2B12662   3.902   7.592   7.206 -0.3246 -0.0155 -0.0992
  960POPC   C3B12663   4.017   7.565   7.612 -0.1817  0.0051 -0.1524
  960POPC   C4B12664   4.358   7.742   7.893 -0.0916 -0.1245 -0.1672
  961POPC   NC312665   3.985  15.677   5.709  0.1323 -0.2705 -0.0584
  961POPC   PO412666   3.803  16.064   5.545  0.0823  0.0814 -0.2050
  961POPC   GL112667   3.759  16.107   5.954  0.2579  0.1032  0.0049
  961POPC   GL212668   3.930  15.874   6.130  0.2373  0.3631 -0.2143
  961POPC   C1A12669   3.820  16.310   6.301 -0.0245  0.2918 -0.0567
  961POPC   D2A12670   3.615  16.219   6.704  0.1289 -0.1685  0.1908
  961POPC   C3A12671   3.822  16.274   7.063  0.2008  0.0468 -0.0444
  961POPC   C4A12672   4.046  16.273   7.396 -0.0664  0.1036 -0.1844
  961POPC   C1B12673   3.647  15.739   6.447  0.0269 -0.2541  0.0931
  961POPC   C2B12674   3.791  15.781   6.842  0.0723 -0.1286  0.2412
  961POPC   C3B12675   3.654  15.841   7.277 -0.1902 -0.0222  0.3211
  961POPC   C4B12676   3.652  15.681   7.746  0.0638 -0.2187  0.1518
  962POPC   NC312677  10.057  17.832   4.984  0.0870  0.0122 -0.0723
  962POPC   PO412678   9.816  17.520   5.233 -0.0944 -0.1024 -0.1199
  962POPC   GL112679   9.838  17.423   5.675 -0.1337  0.0367 -0.1438
  962POPC   GL212680   9.700  17.099   5.832  0.0387 -0.0558  0.0315
  962POPC   C1A12681   9.731  17.729   5.948  0.0832  0.2608  0.2301
  962POPC   D2A12682   9.705  17.902   6.454  0.0167 -0.1894 -0.2044
  962POPC   C3A12683   9.711  18.304   6.653 -0.2359 -0.0468  0.1105
  962POPC   C4A12684   9.820  18.650   6.600 -0.1582 -0.0334 -0.1429
  962POPC   C1B12685   9.971  16.860   6.230  0.4612 -0.0112  0.1877
  962POPC   C2B12686  10.399  16.950   6.529  0.1922 -0.2213 -0.0659
  962POPC   C3B12687  10.758  17.065   6.726 -0.0545  0.0579 -0.1019
  962POPC   C4B12688  10.946  17.136   7.114 -0.0944 -0.1791  0.0071
  963POPC   NC312689   2.779   4.574   6.120  0.1306  0.2040  0.1000
  963POPC   PO412690   2.543   4.805   6.386 -0.2596 -0.0295 -0.2804
  963POPC   GL112691   2.563   4.936   6.834  0.1853 -0.1349  0.3246
  963POPC   GL212692   2.337   4.726   6.976  0.1184 -0.0366 -0.3075
  963POPC   C1A12693   2.713   4.956   7.211  0.1804  0.0516 -0.1479
  963POPC   D2A12694   2.757   4.933   7.626  0.2358 -0.1286 -0.1891
  963POPC   C3A12695   2.743   5.252   7.922  0.2823  0.0044  0.0445
  963POPC   C4A12696   2.665   5.577   8.216  0.1078 -0.4448  0.0109
  963POPC   C1B12697   2.311   4.690   7.445  0.4875  0.1183 -0.1193
  963POPC   C2B12698   2.231   4.644   7.865  0.1171  0.2496  0.1537
  963POPC   C3B12699   1.925   4.428   8.074 -0.2116  0.1241 -0.2013
  963POPC   C4B12700   1.678   4.434   8.445  0.0454  0.3137  0.0871
  964POPC   NC312701   8.622   8.950   5.512  0.1538 -0.0180  0.0069
  964POPC   PO412702   8.775   9.305   5.664 -0.1560  0.0498 -0.0418
  964POPC   GL112703   8.836   9.232   6.194 -0.0189 -0.0511 -0.2301
  964POPC   GL212704   8.620   8.966   6.186 -0.1973 -0.0505  0.0157
  964POPC   C1A12705   8.865   9.402   6.584  0.1279  0.0351  0.2931
  964POPC   D2A12706   8.850   9.695   6.955 -0.2399  0.2479  0.2223
  964POPC   C3A12707   8.989   9.686   7.422 -0.1573 -0.0928 -0.2021
  964POPC   C4A12708   8.764   9.577   7.868  0.1269  0.1973 -0.0287
  964POPC   C1B12709   8.530   8.817   6.608  0.0844  0.0531 -0.2707
  964POPC   C2B12710   8.541   8.621   7.015  0.0518 -0.0302  0.1121
  964POPC   C3B12711   8.561   8.495   7.371  0.0451 -0.0891  0.0945
  964POPC   C4B12712   8.303   8.240   7.575  0.2519  0.0097  0.0542
  965POPC   NC312713   0.882   5.364   5.884  0.0026 -0.3535 -0.1371
  965POPC   PO412714   0.657   5.380   6.208 -0.2035  0.1911  0.0020
  965POPC   GL112715   0.794   5.491   6.573 -0.0335  0.1276  0.0617
  965POPC   GL212716   1.037   5.291   6.723  0.0602  0.0904  0.1629
  965POPC   C1A12717   0.588   5.558   6.900  0.0866 -0.1570 -0.1241
  965POPC   D2A12718   0.163   5.722   7.086 -0.0966 -0.1313  0.3410
  965POPC   C3A12719   0.186   5.734   7.576  0.3196  0.1507  0.4735
  965POPC   C4A12720   0.109   5.556   7.975 -0.0094  0.4013 -0.1001
  965POPC   C1B12721   1.133   5.406   7.166  0.0544 -0.1881 -0.0764
  965POPC   C2B12722   1.378   5.367   7.461  0.0487  0.3144 -0.3133
  965POPC   C3B12723   1.356   5.304   7.902 -0.2964  0.1082  0.1153
  965POPC   C4B12724   1.179   5.353   8.399  0.3135 -0.0199  0.0460
  966POPC   NC312725  11.571   9.264   5.990 -0.0458 -0.0073 -0.1215
  966POPC   PO412726  11.271   8.961   5.796 -0.2484  0.0265 -0.1241
  966POPC   GL112727  11.226   8.844   6.173  0.1772  0.3151 -0.0993
  966POPC   GL212728  11.214   8.436   6.312 -0.0958 -0.0748 -0.1112
  966POPC   C1A12729  11.182   9.148   6.516  0.1664  0.3521  0.0374
  966POPC   D2A12730  11.236   9.242   7.010 -0.1916  0.0963 -0.0101
  966POPC   C3A12731  10.962   8.962   7.193  0.2919  0.0982 -0.2661
  966POPC   C4A12732  11.071   8.653   7.514  0.0977 -0.0155  0.0995
  966POPC   C1B12733  11.147   8.663   6.681  0.3492 -0.1907 -0.1848
  966POPC   C2B12734  11.127   8.501   7.005 -0.1830  0.1272  0.1076
  966POPC   C3B12735  10.966   8.204   7.335  0.0563  0.1401  0.1194
  966POPC   C4B12736  10.939   8.246   7.833  0.0353 -0.1327  0.1040
  967POPC   NC312737   3.884   5.208   6.299 -0.0273 -0.0773 -0.3225
  967POPC   PO412738   3.948   4.797   6.543 -0.3037 -0.2548 -0.0734
  967POPC   GL112739   4.377   4.769   6.665  0.0609 -0.0315  0.1636
  967POPC   GL212740   4.464   5.117   6.629  0.0548 -0.2587  0.0738
  967POPC   C1A12741   4.570   4.585   6.914 -0.1061 -0.1840  0.0492
  967POPC   D2A12742   4.817   4.375   7.142  0.2556 -0.0204 -0.1301
  967POPC   C3A12743   5.093   4.097   7.356  0.0534  0.0923  0.2002
  967POPC   C4A12744   5.347   3.737   7.376  0.0809  0.1854  0.0212
  967POPC   C1B12745   4.484   5.048   7.064 -0.0010  0.0540 -0.0331
  967POPC   C2B12746   4.343   5.084   7.423  0.0379  0.2010  0.5025
  967POPC   C3B12747   4.196   4.886   7.678  0.4067  0.1978 -0.0415
  967POPC   C4B12748   3.997   4.679   8.161 -0.4312  0.0679 -0.0090
  968POPC   NC312749  16.885   9.016   6.042 -0.0146 -0.1725  0.2027
  968POPC   PO412750  17.251   8.807   6.177 -0.0154 -0.3602 -0.0638
  968POPC   GL112751  17.335   8.691   6.639 -0.3088  0.0085 -0.0322
  968POPC   GL212752  16.965   8.669   6.805 -0.0902  0.2803  0.2031
  968POPC   C1A12753  17.509   8.394   6.865  0.0209 -0.0404 -0.1623
  968POPC   D2A12754  17.317   8.235   7.372  0.0575 -0.1298  0.2446
  968POPC   C3A12755  17.343   8.494   7.660  0.0819  0.3946  0.1276
  968POPC   C4A12756  16.941   8.559   7.875  0.3048 -0.3443  0.0266
  968POPC   C1B12757  16.984   9.019   7.081 -0.0571 -0.0856 -0.2003
  968POPC   C2B12758  17.071   9.009   7.514  0.0538  0.1335 -0.1625
  968POPC   C3B12759  16.868   9.049   7.968 -0.2492  0.2769  0.1481
  968POPC   C4B12760  17.071   8.834   8.424  0.1352  0.1791  0.0630
  969POPC   NC312761  10.861  10.524   5.697  0.2317 -0.1262  0.0174
  969POPC   PO412762  10.617  10.886   5.637 -0.1236 -0.3265  0.1568
  969POPC   GL112763  10.559  11.128   5.975 -0.0066  0.0275 -0.2801
  969POPC   GL212764  10.536  11.471   6.033  0.0646  0.2170 -0.1763
  969POPC   C1A12765  10.424  11.276   6.453 -0.1100  0.0975  0.0563
  969POPC   D2A12766  10.288  11.421   6.787 -0.1926  0.2998  0.1304
  969POPC   C3A12767  10.061  11.767   6.743 -0.1092  0.3158  0.3872
  969POPC   C4A12768   9.754  11.829   6.496  0.0123  0.1664 -0.1530
  969POPC   C1B12769  10.751  11.647   6.383  0.0773  0.1208 -0.0027
  969POPC   C2B12770  10.545  11.923   6.729  0.1098  0.0011 -0.0258
  969POPC   C3B12771  10.371  11.826   7.210 -0.2110 -0.1314  0.4620
  969POPC   C4B12772  10.172  11.797   7.633  0.0148 -0.0719 -0.1065
  970POPC   NC312773  14.281   4.864   5.987  0.0796  0.0828 -0.0722
  970POPC   PO412774  13.831   4.670   5.862 -0.0837  0.1708 -0.1696
  970POPC   GL112775  13.910   4.607   6.297  0.1960  0.2506 -0.0865
  970POPC   GL212776  13.666   4.448   6.466  0.0292 -0.3219  0.0788
  970POPC   C1A12777  14.093   4.242   6.594 -0.0368 -0.2040  0.0332
  970POPC   D2A12778  14.198   3.875   6.806  0.3301  0.1134  0.2632
  970POPC   C3A12779  14.248   3.905   7.236 -0.0908  0.0664  0.1921
  970POPC   C4A12780  14.219   3.961   7.674  0.1617  0.0361 -0.0781
  970POPC   C1B12781  13.708   4.406   6.876 -0.3358 -0.1437  0.2311
  970POPC   C2B12782  13.912   4.332   7.301  0.0768  0.0246  0.0938
  970POPC   C3B12783  13.912   4.382   7.762  0.2262  0.0165 -0.0091
  970POPC   C4B12784  13.483   4.368   7.966 -0.1988  0.0924 -0.0458
  971POPC   NC312785  10.744  10.688   6.124  0.0097  0.0954  0.0530
  971POPC   PO412786  10.949  10.255   6.070  0.0358  0.0299 -0.3600
  971POPC   GL112787  11.004  10.048   6.534  0.3772 -0.1782  0.0901
  971POPC   GL212788  10.822  10.159   6.710 -0.0757  0.0906  0.3733
  971POPC   C1A12789  11.258  10.265   6.893 -0.1514 -0.3000  0.0494
  971POPC   D2A12790  11.361  10.616   7.070 -0.2328  0.3013 -0.0860
  971POPC   C3A12791  11.354  10.712   7.498 -0.0192  0.2012  0.2899
  971POPC   C4A12792  11.558  10.521   7.773  0.1530 -0.0607  0.3055
  971POPC   C1B12793  10.844  10.055   7.157  0.0170  0.0431  0.1308
  971POPC   C2B12794  10.743  10.021   7.557  0.0886  0.0117 -0.2539
  971POPC   C3B12795  10.472   9.927   7.863 -0.2170  0.1769  0.0436
  971POPC   C4B12796  10.140   9.722   8.065  0.1300 -0.2090  0.1122
  972POPC   NC312797  15.490  10.006   5.865 -0.1122  0.0679  0.3679
  972POPC   PO412798  15.036  10.134   5.797 -0.0916  0.0311  0.1765
  972POPC   GL112799  14.974  10.328   6.194  0.0173 -0.1792 -0.0547
  972POPC   GL212800  15.256  10.274   6.281  0.2021 -0.1221  0.0500
  972POPC   C1A12801  15.058  10.641   6.583  0.0476  0.0460 -0.1925
  972POPC   D2A12802  15.037  10.719   7.071 -0.2138 -0.2081  0.1325
  972POPC   C3A12803  15.484  10.666   7.336  0.1539  0.2429  0.0416
  972POPC   C4A12804  15.703  10.496   7.673  0.2565 -0.2514  0.0537
  972POPC   C1B12805  15.384  10.197   6.763  0.0538 -0.2514 -0.1180
  972POPC   C2B12806  15.138  10.203   7.100  0.3388 -0.2638  0.1048
  972POPC   C3B12807  15.035  10.370   7.479 -0.2079  0.4303  0.1126
  972POPC   C4B12808  15.157  10.165   7.886 -0.0358  0.2033 -0.1332
  973POPC   NC312809  10.901   3.737   5.248  0.0946 -0.2673 -0.0058
  973POPC   PO412810  11.010   3.514   5.624  0.0677 -0.0709 -0.0322
  973POPC   GL112811  10.757   3.363   6.052 -0.0374 -0.1181 -0.0502
  973POPC   GL212812  10.859   3.003   6.242 -0.0084  0.1885  0.2088
  973POPC   C1A12813  10.807   3.514   6.511 -0.4070 -0.2478 -0.2514
  973POPC   D2A12814  11.006   3.641   6.822  0.0218  0.0411  0.1333
  973POPC   C3A12815  11.106   3.514   7.206 -0.0702  0.1811  0.0652
  973POPC   C4A12816  10.919   3.308   7.679 -0.0222  0.1930 -0.0066
  973POPC   C1B12817  10.629   3.041   6.481  0.1115 -0.0394  0.0703
  973POPC   C2B12818  10.712   3.124   6.855 -0.0798 -0.0023  0.1665
  973POPC   C3B12819  10.741   3.056   7.206 -0.1579  0.2566  0.0290
  973POPC   C4B12820  10.477   3.119   7.493  0.0763  0.0278 -0.0442
  974POPC   NC312821   1.229  15.157   5.829  0.2473 -0.0505 -0.1040
  974POPC   PO412822   0.740  15.167   5.767  0.0823 -0.4175 -0.2213
  974POPC   GL112823   0.874  15.377   6.218  0.0024 -0.2539  0.0467
  974POPC   GL212824   1.241  15.402   6.264  0.0586 -0.2801 -0.1307
  974POPC   C1A12825   0.862  15.282   6.752  0.1244  0.1469 -0.1047
  974POPC   D2A12826   0.824  15.288   7.219  0.2520  0.0008  0.0108
  974POPC   C3A12827   1.111  15.252   7.529  0.1216  0.0756 -0.2835
  974POPC   C4A12828   1.477  15.182   7.547 -0.0034 -0.0185 -0.1432
  974POPC   C1B12829   1.298  15.715   6.517  0.0312 -0.0820  0.1229
  974POPC   C2B12830   1.291  15.867   6.867  0.0508  0.1495 -0.0891
  974POPC   C3B12831   1.597  16.053   7.273 -0.0514  0.1319 -0.0500
  974POPC   C4B12832   1.618  16.177   7.702  0.2205  0.1169  0.1226
  975POPC   NC312833  12.717   4.589   5.538 -0.1708 -0.0496  0.0302
  975POPC   PO412834  12.704   5.021   5.689  0.0651 -0.1094  0.1372
  975POPC   GL112835  12.454   5.269   5.962  0.2110 -0.0688 -0.0761
  975POPC   GL212836  12.269   5.644   5.971 -0.0809 -0.0831  0.2337
  975POPC   C1A12837  12.250   5.138   6.367 -0.1366 -0.2262 -0.1588
  975POPC   D2A12838  11.929   5.354   6.462  0.2298  0.0669 -0.3650
  975POPC   C3A12839  11.782   5.395   6.889  0.1447 -0.2386 -0.0091
  975POPC   C4A12840  11.694   5.356   7.339  0.0632 -0.2591  0.0715
  975POPC   C1B12841  12.100   5.792   6.414  0.3395 -0.1894  0.1563
  975POPC   C2B12842  12.027   5.815   6.813 -0.1512  0.1724  0.0264
  975POPC   C3B12843  11.896   5.863   7.195  0.2501 -0.0515  0.2971
  975POPC   C4B12844  11.842   6.046   7.646  0.0637 -0.0464  0.0563
  976POPC   NC312845   2.704  16.492   5.323 -0.3098  0.2982 -0.1099
  976POPC   PO412846   2.416  16.853   5.290  0.0510  0.0328 -0.0352
  976POPC   GL112847   2.347  17.024   5.773 -0.0746  0.2971 -0.1326
  976POPC   GL212848   2.609  17.264   5.926 -0.3646 -0.0234  0.2970
  976POPC   C1A12849   2.288  16.788   6.078  0.0234 -0.1422  0.0799
  976POPC   D2A12850   2.330  16.745   6.619 -0.0552  0.2371  0.3061
  976POPC   C3A12851   2.606  16.641   6.870  0.2747  0.2846 -0.3119
  976POPC   C4A12852   2.450  16.554   7.301 -0.1692 -0.0322  0.0032
  976POPC   C1B12853   2.966  17.360   6.349  0.0635 -0.1341  0.0847
  976POPC   C2B12854   3.278  17.335   6.716 -0.2243 -0.0337 -0.3056
  976POPC   C3B12855   3.440  17.188   7.104  0.2837 -0.2627 -0.0147
  976POPC   C4B12856   3.723  17.168   7.420  0.3680  0.0929  0.2340
  977POPC   NC312857  15.667   6.556   6.061  0.2383  0.2967 -0.0912
  977POPC   PO412858  15.878   6.910   6.242 -0.2101  0.1194 -0.3482
  977POPC   GL112859  15.877   7.048   6.705  0.3220 -0.0411  0.0294
  977POPC   GL212860  15.581   7.239   6.862 -0.0904  0.1006 -0.0850
  977POPC   C1A12861  16.147   7.197   7.065  0.0100 -0.4136 -0.4636
  977POPC   D2A12862  16.365   7.156   7.485  0.0014 -0.0832  0.1046
  977POPC   C3A12863  16.164   7.261   7.808 -0.2878  0.1153 -0.1333
  977POPC   C4A12864  15.781   7.069   8.066 -0.2337 -0.0216  0.2075
  977POPC   C1B12865  15.428   7.163   7.341 -0.0407 -0.0103  0.0383
  977POPC   C2B12866  15.462   6.902   7.667  0.1455  0.1543 -0.0899
  977POPC   C3B12867  15.682   6.586   7.891  0.0631 -0.0590 -0.0461
  977POPC   C4B12868  15.672   6.176   7.891  0.0180 -0.2532  0.0107
  978POPC   NC312869   2.468  15.660   5.705 -0.0368 -0.1026  0.0559
  978POPC   PO412870   2.590  15.327   5.903  0.1288 -0.1693  0.1121
  978POPC   GL112871   2.731  15.148   6.383 -0.1340  0.2111 -0.0640
  978POPC   GL212872   2.985  15.281   6.560  0.1689  0.0916 -0.0150
  978POPC   C1A12873   2.570  15.048   6.778  0.0937 -0.0156 -0.0816
  978POPC   D2A12874   2.306  15.083   7.221  0.0819  0.0613  0.2000
  978POPC   C3A12875   2.080  15.388   7.382 -0.0524 -0.0045 -0.0189
  978POPC   C4A12876   1.953  15.649   7.735  0.0822 -0.1214  0.1663
  978POPC   C1B12877   3.428  15.280   6.689  0.0292 -0.0164  0.0187
  978POPC   C2B12878   3.662  15.314   7.025 -0.2453 -0.1062 -0.0195
  978POPC   C3B12879   3.990  15.514   7.309 -0.0208 -0.1628  0.1039
  978POPC   C4B12880   4.135  15.724   7.528  0.3035 -0.2552 -0.3131
  979POPC   NC312881  17.943   4.944   6.095 -0.1778 -0.2031 -0.2560
  979POPC   PO412882  17.480   5.149   6.008  0.0665 -0.2730 -0.3982
  979POPC   GL112883  17.264   5.600   6.187  0.0200  0.1301 -0.0529
  979POPC   GL212884  16.861   5.727   6.215 -0.2020 -0.2646 -0.1926
  979POPC   C1A12885  17.264   5.710   6.636 -0.0560 -0.0086  0.3240
  979POPC   D2A12886  17.472   5.406   6.856  0.1168  0.2667 -0.0401
  979POPC   C3A12887  17.768   5.374   7.213  0.2721 -0.2191  0.3646
  979POPC   C4A12888  17.792   5.465   7.675  0.1013  0.0176 -0.1707
  979POPC   C1B12889  16.734   5.557   6.615  0.4968  0.3034 -0.1482
  979POPC   C2B12890  16.869   5.342   6.969  0.3145  0.0345  0.2691
  979POPC   C3B12891  16.845   5.458   7.492 -0.0005  0.0600  0.0174
  979POPC   C4B12892  17.081   5.681   7.767  0.0479  0.1538  0.0909
  980POPC   NC312893   7.353  12.615   5.301  0.1480  0.1256  0.2121
  980POPC   PO412894   7.165  12.744   5.630  0.0134  0.3104 -0.3802
  980POPC   GL112895   6.978  12.990   5.918  0.0459  0.0135 -0.0363
  980POPC   GL212896   6.884  13.230   6.010  0.1319  0.1390 -0.3794
  980POPC   C1A12897   6.555  12.803   6.081 -0.1601 -0.3766 -0.1377
  980POPC   D2A12898   6.527  12.766   6.508  0.3388  0.1972  0.3534
  980POPC   C3A12899   6.233  12.917   6.796 -0.3164  0.1441 -0.0083
  980POPC   C4A12900   6.228  13.084   7.149 -0.1446 -0.1091 -0.2351
  980POPC   C1B12901   6.796  13.197   6.320  0.0106  0.2517  0.0131
  980POPC   C2B12902   6.744  13.183   6.750 -0.1175 -0.1539  0.1374
  980POPC   C3B12903   6.689  13.440   7.220  0.2655 -0.4788  0.0736
  980POPC   C4B12904   6.718  13.679   7.624 -0.1258 -0.1569 -0.1050
  981POPC   NC312905  10.656   5.326   6.053 -0.1049 -0.1317 -0.2483
  981POPC   PO412906  10.455   4.974   5.820  0.0285  0.0628  0.0129
  981POPC   GL112907  10.492   4.815   6.250 -0.0534 -0.0834 -0.2940
  981POPC   GL212908  10.211   4.621   6.406  0.2518  0.2667  0.0060
  981POPC   C1A12909  10.570   4.837   6.602 -0.0875  0.1984  0.0009
  981POPC   D2A12910  10.279   4.750   6.950  0.0922 -0.0603 -0.0314
  981POPC   C3A12911  10.218   4.379   7.186  0.0472  0.2277  0.0966
  981POPC   C4A12912  10.444   4.045   7.286 -0.1875 -0.2120 -0.1812
  981POPC   C1B12913   9.993   4.361   6.704  0.1091  0.0710 -0.1893
  981POPC   C2B12914   9.838   4.089   7.072 -0.2923  0.0108  0.4859
  981POPC   C3B12915   9.903   4.171   7.517  0.1476 -0.1500  0.2530
  981POPC   C4B12916   9.947   4.394   7.857  0.0706 -0.1186 -0.0443
  982YOPC   NC312917  16.645   0.276   5.910 -0.3251  0.0685  0.2168
  982YOPC   PO412918  16.420   0.289   6.227  0.0597  0.0840  0.1402
  982YOPC   GL112919  16.586   0.222   6.644  0.0296 -0.1284  0.1525
  982YOPC   GL212920  16.679  -0.113   6.705  0.2526  0.2328  0.2306
  982YOPC   C1A12921  16.631   0.301   7.063 -0.1473  0.0310 -0.1624
  982YOPC   D2A12922  16.730   0.407   7.474 -0.2001 -0.1623 -0.2438
  982YOPC   C3A12923  17.012   0.179   7.782 -0.2764 -0.2262  0.0112
  982YOPC   C4A12924  17.216   0.168   8.218  0.1698 -0.2336  0.0095
  982YOPC   C1B12925  16.873  -0.120   7.066 -0.1964 -0.0118  0.0892
  982YOPC   C2B12926  17.214  -0.082   7.267 -0.0210 -0.0805 -0.0079
  982YOPC   D3B12927  17.473   0.172   7.578 -0.1922  0.1509  0.0693
  982YOPC   C4B12928  17.385   0.581   7.709 -0.0076  0.0525 -0.1889
  983YOPC   NC312929  15.191  14.941   5.792  0.1093 -0.2368  0.4071
  983YOPC   PO412930  15.601  14.904   5.630 -0.1412  0.0172  0.3203
  983YOPC   GL112931  15.622  15.122   6.053 -0.1183 -0.0453  0.1915
  983YOPC   GL212932  15.805  15.357   5.953 -0.1637 -0.0427 -0.1678
  983YOPC   C1A12933  15.400  15.371   6.231 -0.0854  0.0020  0.1053
  983YOPC   D2A12934  15.017  15.633   6.318  0.2771  0.1545  0.0144
  983YOPC   C3A12935  14.965  15.725   6.752  0.0543  0.0866 -0.0903
  983YOPC   C4A12936  14.876  16.101   6.959 -0.2399 -0.3073 -0.2804
  983YOPC   C1B12937  16.129  15.488   6.209 -0.0403  0.1151  0.0740
  983YOPC   C2B12938  16.185  15.836   6.540 -0.1868  0.1985  0.1563
  983YOPC   D3B12939  15.857  16.020   6.594 -0.1666 -0.1683  0.0829
  983YOPC   C4B12940  15.483  16.347   6.720  0.0226  0.0583 -0.1065
  984YOPC   NC312941   6.251   9.884   5.689 -0.2416 -0.0695  0.1155
  984YOPC   PO412942   6.702   9.597   5.751  0.0753 -0.0500 -0.0825
  984YOPC   GL112943   6.549   9.779   6.119  0.2976  0.0395  0.0677
  984YOPC   GL212944   6.503  10.099   6.181  0.0610  0.0134  0.1325
  984YOPC   C1A12945   6.588   9.585   6.492  0.0386 -0.0222 -0.0142
  984YOPC   D2A12946   6.878   9.704   6.637 -0.2592 -0.0277 -0.2676
  984YOPC   C3A12947   6.902   9.393   6.866 -0.1596 -0.2783 -0.2116
  984YOPC   C4A12948   6.986   9.037   7.169 -0.0929  0.1150 -0.2211
  984YOPC   C1B12949   6.459  10.029   6.643 -0.1264 -0.0365 -0.1363
  984YOPC   C2B12950   6.526   9.686   7.017 -0.1556 -0.2917 -0.2643
  984YOPC   D3B12951   6.754   9.894   7.472 -0.0068 -0.0201  0.0979
  984YOPC   C4B12952   6.617   9.802   7.836 -0.1226 -0.1333  0.1288
  985YOPC   NC312953  16.597  11.174   5.849  0.0926 -0.2674  0.4039
  985YOPC   PO412954  16.176  11.170   6.039 -0.1600 -0.3018 -0.1468
  985YOPC   GL112955  16.426  11.338   6.358  0.1149  0.2838 -0.0483
  985YOPC   GL212956  16.462  11.755   6.513  0.2139 -0.0944 -0.3777
  985YOPC   C1A12957  16.349  11.247   6.787  0.2509  0.2181  0.0544
  985YOPC   D2A12958  16.453  11.423   7.171 -0.2458 -0.0953  0.2252
  985YOPC   C3A12959  16.429  11.350   7.557 -0.0700  0.0049 -0.0014
  985YOPC   C4A12960  16.443  11.416   8.051  0.3087 -0.2262 -0.3898
  985YOPC   C1B12961  16.334  11.868   6.992  0.1488 -0.1667  0.0517
  985YOPC   C2B12962  16.208  11.934   7.405  0.0707  0.1272  0.0574
  985YOPC   D3B12963  16.058  11.712   7.771 -0.2476  0.0893  0.2419
  985YOPC   C4B12964  15.865  11.355   7.994  0.2464  0.1136 -0.1528
  986YOPC   NC312965   3.254  16.164   4.700  0.0292  0.1517 -0.0819
  986YOPC   PO412966   3.348  16.301   5.172  0.0676 -0.6737 -0.0627
  986YOPC   GL112967   3.600  16.524   5.516  0.0047 -0.2744  0.1630
  986YOPC   GL212968   3.881  16.629   5.485  0.0322  0.0483 -0.2281
  986YOPC   C1A12969   3.578  16.697   5.952  0.0127  0.2886  0.1175
  986YOPC   D2A12970   3.327  16.620   6.351 -0.0445 -0.4263 -0.1953
  986YOPC   C3A12971   3.452  16.879   6.703 -0.3085  0.3238  0.1833
  986YOPC   C4A12972   3.609  16.714   7.119  0.1811 -0.1945  0.2219
  986YOPC   C1B12973   4.082  16.586   5.887  0.1135  0.2348 -0.1041
  986YOPC   C2B12974   4.514  16.544   5.915 -0.2589 -0.0074  0.1304
  986YOPC   D3B12975   4.766  16.724   6.234 -0.1769  0.4088 -0.0121
  986YOPC   C4B12976   5.117  16.908   6.251  0.0916 -0.0476  0.3487
  987YOPC   NC312977   7.489  18.283   5.189  0.2572  0.1185  0.0507
  987YOPC   PO412978   7.116  17.931   5.177 -0.0155 -0.3097  0.2474
  987YOPC   GL112979   7.005  17.887   5.652 -0.0277  0.1517 -0.0030
  987YOPC   GL212980   7.122  18.102   5.757  0.2149 -0.0675 -0.1275
  987YOPC   C1A12981   6.860  17.748   6.113  0.2158  0.0224  0.0252
  987YOPC   D2A12982   6.563  17.937   6.387  0.0260 -0.0164  0.0236
  987YOPC   C3A12983   6.455  17.871   6.778  0.0504 -0.0071 -0.0668
  987YOPC   C4A12984   6.426  17.789   7.245  0.3036  0.2483 -0.0022
  987YOPC   C1B12985   7.199  18.101   6.207  0.3487 -0.2507  0.1237
  987YOPC   C2B12986   6.896  18.266   6.460 -0.0197  0.1145  0.0726
  987YOPC   D3B12987   6.935  18.210   6.868  0.3780 -0.0176  0.3846
  987YOPC   C4B12988   6.953  18.089   7.314 -0.2579 -0.0218  0.1542
  988YOPC   NC312989  15.882   0.372   6.051  0.0047  0.0592 -0.0705
  988YOPC   PO412990  16.137   0.786   6.167  0.1415 -0.2670  0.1211
  988YOPC   GL112991  15.843   0.704   6.474 -0.0171  0.4381  0.1303
  988YOPC   GL212992  15.983   0.467   6.553  0.1868 -0.0490 -0.2549
  988YOPC   C1A12993  15.477   0.970   6.703  0.2664 -0.2793 -0.1939
  988YOPC   D2A12994  15.148   1.157   7.009  0.0471 -0.1010 -0.0767
  988YOPC   C3A12995  15.091   1.014   7.437 -0.1080 -0.0743 -0.1496
  988YOPC   C4A12996  15.060   0.924   7.801 -0.0322 -0.3076  0.0976
  988YOPC   C1B12997  16.076   0.330   6.987  0.3248  0.1909 -0.3142
  988YOPC   C2B12998  15.827   0.306   7.338  0.0493 -0.0647  0.1150
  988YOPC   D3B12999  15.900   0.105   7.723 -0.1098  0.1785  0.1744
  988YOPC   C4B13000  16.000  -0.002   8.073 -0.1418  0.1766  0.0179
  989YOPC   NC313001   3.321   9.260   5.818  0.1096  0.2248 -0.1041
  989YOPC   PO413002   3.644   9.580   5.876  0.0670  0.1254 -0.2312
  989YOPC   GL113003   3.745   9.796   6.213  0.1658  0.0078 -0.0588
  989YOPC   GL213004   3.869  10.128   6.176 -0.0351  0.1426  0.0381
  989YOPC   C1A13005   3.782   9.906   6.609  0.0002  0.0872  0.3201
  989YOPC   D2A13006   3.898  10.039   7.043 -0.1957 -0.5559  0.0176
  989YOPC   C3A13007   4.075  10.082   7.455 -0.4778  0.0721 -0.0678
  989YOPC   C4A13008   4.112  10.118   7.865  0.0078  0.1417  0.6866
  989YOPC   C1B13009   3.917  10.383   6.574 -0.1355 -0.1197  0.0014
  989YOPC   C2B13010   3.875  10.544   6.960 -0.1982  0.1961 -0.1535
  989YOPC   D3B13011   3.646  10.820   7.253  0.1557  0.0522 -0.0160
  989YOPC   C4B13012   3.459  11.130   7.611 -0.2374  0.0263  0.0453
  990YOPC   NC313013   4.430  10.083   5.886  0.0423 -0.2500  0.0917
  990YOPC   PO413014   4.575   9.762   5.945 -0.2713  0.2752 -0.1036
  990YOPC   GL113015   4.529   9.615   6.361  0.0887  0.4030  0.0158
  990YOPC   GL213016   4.306   9.912   6.356  0.1930 -0.0303 -0.2894
  990YOPC   C1A13017   4.712   9.650   6.664  0.1214 -0.1513  0.1284
  990YOPC   D2A13018   4.779   9.718   7.129 -0.1721  0.0777  0.1405
  990YOPC   C3A13019   4.589   9.892   7.442 -0.1979  0.0819 -0.1923
  990YOPC   C4A13020   4.514  10.187   7.578 -0.0536 -0.0974 -0.1989
  990YOPC   C1B13021   4.309  10.146   6.688 -0.0096 -0.0232 -0.3081
  990YOPC   C2B13022   4.308  10.340   7.102  0.1865 -0.2041 -0.2221
  990YOPC   D3B13023   4.057  10.547   7.424 -0.2347 -0.0789 -0.0107
  990YOPC   C4B13024   3.712  10.709   7.706  0.0866 -0.2106 -0.0191
  991YOPC   NC313025   7.095   9.331   5.684  0.1609  0.1743  0.0630
  991YOPC   PO413026   7.356   9.631   5.818  0.3232  0.2588  0.0087
  991YOPC   GL113027   7.511   9.616   6.120 -0.0723 -0.1920  0.0912
  991YOPC   GL213028   7.813   9.832   6.151  0.1028  0.0909  0.0492
  991YOPC   C1A13029   7.332   9.608   6.536 -0.0239  0.0692 -0.0519
  991YOPC   D2A13030   7.409   9.546   6.965 -0.0124 -0.0172  0.1334
  991YOPC   C3A13031   7.563   9.559   7.368  0.2874 -0.1960 -0.1151
  991YOPC   C4A13032   7.641   9.628   7.850 -0.0423 -0.5166 -0.0072
  991YOPC   C1B13033   7.835   9.761   6.610 -0.0253 -0.0203  0.1423
  991YOPC   C2B13034   7.886   9.441   6.811  0.1932 -0.0126 -0.1102
  991YOPC   D3B13035   8.009   9.419   7.267  0.1001  0.4931  0.1106
  991YOPC   C4B13036   8.079   9.421   7.639  0.0138 -0.1325 -0.1628
  992YOPC   NC313037  12.310   8.795   5.534 -0.1481 -0.1606 -0.1829
  992YOPC   PO413038  12.552   9.070   5.896 -0.1447 -0.1177 -0.2525
  992YOPC   GL113039  12.372   9.184   6.193  0.0097  0.0924  0.0474
  992YOPC   GL213040  12.576   9.354   6.497  0.3377 -0.2046  0.0293
  992YOPC   C1A13041  12.143   8.998   6.589  0.1973 -0.0489  0.1568
  992YOPC   D2A13042  12.008   8.980   7.074 -0.0651  0.0990 -0.0145
  992YOPC   C3A13043  12.171   8.863   7.569  0.0832  0.1897 -0.0140
  992YOPC   C4A13044  12.111   8.742   7.939 -0.2951 -0.0717 -0.1099
  992YOPC   C1B13045  12.405   9.410   7.005 -0.3584  0.5460  0.0963
  992YOPC   C2B13046  12.275   9.365   7.394  0.1362 -0.1653 -0.2239
  992YOPC   D3B13047  11.958   9.376   7.598 -0.3883 -0.1103  0.1438
  992YOPC   C4B13048  11.876   9.214   7.994 -0.1766 -0.2748 -0.3992
  993YOPC   NC313049  14.843  12.841   6.025  0.1654 -0.1980 -0.0344
  993YOPC   PO413050  15.022  12.402   5.865 -0.2142 -0.4215  0.0613
  993YOPC   GL113051  15.143  12.478   6.252  0.1389  0.1477 -0.1488
  993YOPC   GL213052  15.204  12.212   6.413 -0.3560 -0.2115  0.0969
  993YOPC   C1A13053  15.145  12.620   6.713  0.1447  0.1893 -0.1025
  993YOPC   D2A13054  15.068  12.755   7.189  0.3192 -0.0403  0.0383
  993YOPC   C3A13055  14.981  12.728   7.576  0.0091 -0.0703  0.0301
  993YOPC   C4A13056  14.970  12.793   8.022 -0.1813 -0.0124 -0.0532
  993YOPC   C1B13057  14.895  11.959   6.565  0.1864 -0.4189 -0.2341
  993YOPC   C2B13058  14.679  11.920   6.931 -0.2315 -0.2738 -0.0974
  993YOPC   D3B13059  14.780  11.515   7.265 -0.1793 -0.0702  0.0777
  993YOPC   C4B13060  14.835  11.308   7.706 -0.1669 -0.1728  0.1767
  994YOPC   NC313061  12.965  16.331   4.805 -0.1186  0.0286 -0.0562
  994YOPC   PO413062  12.798  16.218   5.177 -0.3819 -0.2358 -0.1426
  994YOPC   GL113063  12.916  16.571   5.565  0.1669 -0.1029 -0.0499
  994YOPC   GL213064  12.786  16.685   5.755  0.0056  0.0273  0.1318
  994YOPC   C1A13065  13.299  16.695   5.887  0.0739 -0.0405 -0.0800
  994YOPC   D2A13066  13.681  16.747   5.959 -0.3285  0.2275 -0.4851
  994YOPC   C3A13067  14.009  16.349   6.063 -0.0179 -0.3779  0.0885
  994YOPC   C4A13068  14.456  16.490   5.981  0.1438 -0.0888 -0.2074
  994YOPC   C1B13069  12.867  16.800   6.133 -0.1553 -0.1967 -0.0885
  994YOPC   C2B13070  13.171  16.794   6.498 -0.0281 -0.2131  0.2620
  994YOPC   D3B13071  13.091  16.659   6.943  0.0228  0.2048 -0.0408
  994YOPC   C4B13072  13.172  16.674   7.437 -0.1179 -0.0043  0.1857
  995YOPC   NC313073   6.867  15.733   5.169  0.0154 -0.2168 -0.1306
  995YOPC   PO413074   6.527  15.918   5.119  0.2686  0.2389  0.0892
  995YOPC   GL113075   6.517  15.535   5.498 -0.0106  0.3060  0.2957
  995YOPC   GL213076   6.335  15.446   5.742 -0.3580 -0.0233  0.1244
  995YOPC   C1A13077   6.692  15.118   5.722 -0.2050  0.0313 -0.1457
  995YOPC   D2A13078   6.864  14.986   6.021 -0.2170 -0.0451  0.2038
  995YOPC   C3A13079   7.164  14.837   6.236 -0.2272 -0.1459 -0.4845
  995YOPC   C4A13080   7.459  14.658   6.561 -0.0267 -0.0106 -0.0253
  995YOPC   C1B13081   6.163  15.555   6.193  0.2044  0.0945 -0.1609
  995YOPC   C2B13082   5.874  15.526   6.567  0.0575 -0.0421  0.1505
  995YOPC   D3B13083   5.716  15.587   7.043 -0.1178  0.0164  0.2832
  995YOPC   C4B13084   5.886  15.590   7.458  0.2177 -0.4443  0.0724
  996YOPC   NC313085   4.129  10.761   5.113  0.2346  0.1789  0.2308
  996YOPC   PO413086   3.820  11.100   5.395 -0.1696 -0.0099 -0.0343
  996YOPC   GL113087   3.660  11.171   5.844 -0.1020 -0.0584  0.1107
  996YOPC   GL213088   3.898  11.366   5.926 -0.2245  0.0624  0.3038
  996YOPC   C1A13089   3.511  11.424   6.279  0.5100  0.2397 -0.0770
  996YOPC   D2A13090   3.699  11.499   6.578 -0.3485  0.1784 -0.2486
  996YOPC   C3A13091   4.104  11.733   6.784 -0.2563  0.2334  0.0720
  996YOPC   C4A13092   4.418  11.709   7.203 -0.2655 -0.0984 -0.1044
  996YOPC   C1B13093   3.992  11.718   5.741  0.0208  0.1879 -0.1224
  996YOPC   C2B13094   4.339  12.114   5.777 -0.0823  0.0768  0.1483
  996YOPC   D3B13095   4.574  12.248   6.154  0.2883  0.0042  0.0460
  996YOPC   C4B13096   4.584  12.600   6.419  0.1345 -0.4460 -0.0068
  997YOPC   NC313097   6.300   1.285   5.201 -0.1063 -0.0414 -0.0372
  997YOPC   PO413098   6.261   0.958   5.477  0.3994  0.0526  0.3762
  997YOPC   GL113099   6.307   0.773   5.843  0.1904 -0.2120  0.2518
  997YOPC   GL213100   6.532   0.944   5.974 -0.1321 -0.2034 -0.1134
  997YOPC   C1A13101   6.394   0.436   6.193 -0.4177 -0.2407  0.1453
  997YOPC   D2A13102   6.322   0.376   6.622  0.1485 -0.1545 -0.4585
  997YOPC   C3A13103   6.451   0.585   7.054 -0.2476 -0.2506 -0.4415
  997YOPC   C4A13104   6.601   0.562   7.427 -0.0654 -0.2204  0.1093
  997YOPC   C1B13105   6.609   0.794   6.455 -0.2377 -0.0540  0.0992
  997YOPC   C2B13106   6.510   1.109   6.767  0.0778  0.0804 -0.0682
  997YOPC   D3B13107   6.219   0.979   7.216  0.0197  0.1736 -0.2634
  997YOPC   C4B13108   5.856   0.866   7.371 -0.3198 -0.1479  0.0916
  998YOPC   NC313109  10.068   1.311   5.440 -0.0919  0.0801  0.2115
  998YOPC   PO413110  10.035   1.685   5.572  0.1110  0.0293 -0.2133
  998YOPC   GL113111  10.313   1.808   5.948  0.0297 -0.0096 -0.1034
  998YOPC   GL213112  10.506   2.137   5.833  0.0821  0.3155 -0.2074
  998YOPC   C1A13113  10.420   2.022   6.360 -0.1379  0.2226 -0.0191
  998YOPC   D2A13114  10.505   1.952   6.727  0.0369  0.1353  0.0335
  998YOPC   C3A13115  10.454   1.773   7.210  0.0311  0.0880  0.3412
  998YOPC   C4A13116  10.686   1.583   7.567 -0.2411  0.0646 -0.2600
  998YOPC   C1B13117  10.177   2.388   6.112  0.2013 -0.1300 -0.0567
  998YOPC   C2B13118   9.964   2.438   6.483  0.1633  0.2931  0.0068
  998YOPC   D3B13119  10.120   2.254   6.914  0.1425  0.1580  0.0024
  998YOPC   C4B13120  10.036   2.244   7.344 -0.0599 -0.2142 -0.0673
  999YOPC   NC313121   8.755  14.847   4.678  0.2256 -0.1764  0.2649
  999YOPC   PO413122   8.559  14.741   5.115  0.0486 -0.1543  0.2305
  999YOPC   GL113123   8.355  14.687   5.577 -0.0530  0.0494 -0.1312
  999YOPC   GL213124   8.306  15.031   5.781 -0.0700 -0.0940  0.0443
  999YOPC   C1A13125   7.950  14.580   5.844  0.1163 -0.1308  0.0804
  999YOPC   D2A13126   7.506  14.626   5.853 -0.3726 -0.1034 -0.1754
  999YOPC   C3A13127   7.309  14.912   5.776 -0.0750  0.0756 -0.0922
  999YOPC   C4A13128   7.088  15.394   5.745 -0.1975 -0.3933  0.0097
  999YOPC   C1B13129   8.370  14.908   6.130  0.1920  0.1322  0.4198
  999YOPC   C2B13130   8.197  15.060   6.474 -0.0822 -0.3153  0.1243
  999YOPC   D3B13131   7.900  14.870   6.798  0.4529  0.1686  0.2590
  999YOPC   C4B13132   8.008  14.593   7.080  0.3624  0.0431 -0.0218
 1000YOPC   NC313133  13.097   7.117   5.989  0.0287  0.3743 -0.0116
 1000YOPC   PO413134  12.768   6.767   5.889 -0.4755 -0.0896  0.2411
 1000YOPC   GL113135  12.761   6.864   6.313  0.2576  0.3794  0.3611
 1000YOPC   GL213136  12.513   6.865   6.294 -0.1916  0.0486 -0.2309
 1000YOPC   C1A13137  12.968   6.931   6.642 -0.1087  0.2346  0.1201
 1000YOPC   D2A13138  12.797   7.035   7.111  0.1123 -0.1137 -0.0301
 1000YOPC   C3A13139  13.011   7.168   7.503  0.0551 -0.1116  0.0436
 1000YOPC   C4A13140  13.224   7.173   7.817  0.3493  0.0752 -0.3109
 1000YOPC   C1B13141  12.513   7.113   6.683 -0.4158  0.1503 -0.3487
 1000YOPC   C2B13142  12.188   7.420   6.871 -0.2052  0.0565 -0.0359
 1000YOPC   D3B13143  12.150   7.484   7.408  0.1103  0.4088 -0.0663
 1000YOPC   C4B13144  12.035   7.190   7.757 -0.2360 -0.0105 -0.1136
 1001YOPC   NC313145  16.522   9.869   5.780  0.3285 -0.3596 -0.1480
 1001YOPC   PO413146  16.069   9.770   5.753 -0.3995  0.2746 -0.0739
 1001YOPC   GL113147  15.884   9.815   6.102  0.0406 -0.1106 -0.0666
 1001YOPC   GL213148  15.587   9.668   6.219 -0.1721  0.1194  0.0854
 1001YOPC   C1A13149  15.788  10.006   6.582 -0.0407 -0.0968  0.0386
 1001YOPC   D2A13150  15.803  10.279   6.980  0.0262 -0.2734  0.1031
 1001YOPC   C3A13151  16.055   9.990   7.308  0.0898 -0.0316 -0.0158
 1001YOPC   C4A13152  15.987  10.003   7.806  0.0036 -0.0819 -0.0150
 1001YOPC   C1B13153  15.342   9.697   6.590  0.0930  0.4098 -0.0995
 1001YOPC   C2B13154  14.962   9.481   6.602 -0.1293 -0.0417 -0.1884
 1001YOPC   D3B13155  14.622   9.536   6.726 -0.3754  0.0550  0.0571
 1001YOPC   C4B13156  14.502   9.804   7.009  0.1887 -0.0251 -0.0094
 1002YOPC   NC313157  16.946  13.111   5.864  0.3717 -0.0922 -0.0959
 1002YOPC   PO413158  16.615  13.133   6.066  0.0616  0.0839  0.1018
 1002YOPC   GL113159  16.687  13.209   6.536  0.3769 -0.0711 -0.0479
 1002YOPC   GL213160  16.386  13.350   6.755 -0.0738 -0.2468  0.0753
 1002YOPC   C1A13161  16.847  13.287   6.946 -0.0398 -0.0748  0.3584
 1002YOPC   D2A13162  16.902  13.725   7.196  0.1357 -0.0318 -0.3958
 1002YOPC   C3A13163  17.121  13.600   7.640  0.1300 -0.2547  0.0457
 1002YOPC   C4A13164  17.111  13.269   7.871 -0.1334 -0.0913  0.0488
 1002YOPC   C1B13165  16.349  13.415   7.200 -0.3053 -0.0392 -0.0207
 1002YOPC   C2B13166  16.440  13.763   7.537 -0.1071  0.0091  0.3511
 1002YOPC   D3B13167  16.198  13.787   7.930  0.1639 -0.1757 -0.1487
 1002YOPC   C4B13168  16.082  14.056   8.352 -0.2388 -0.2575  0.0844
 1003YOPC   NC313169  14.630  14.164   5.939  0.1691 -0.0829 -0.0281
 1003YOPC   PO413170  14.950  14.443   5.772 -0.0862  0.2675 -0.1708
 1003YOPC   GL113171  15.044  14.604   6.168 -0.1598 -0.1369 -0.2417
 1003YOPC   GL213172  15.230  14.469   6.417  0.0841 -0.2575 -0.1045
 1003YOPC   C1A13173  15.402  14.927   6.458 -0.1252  0.0099  0.5313
 1003YOPC   D2A13174  15.702  15.065   6.772  0.1503  0.1170  0.0470
 1003YOPC   C3A13175  16.127  15.314   6.744  0.2686  0.2009 -0.0689
 1003YOPC   C4A13176  16.587  15.232   6.821 -0.1702 -0.0759 -0.0302
 1003YOPC   C1B13177  15.017  14.402   6.821 -0.0550  0.0068  0.0564
 1003YOPC   C2B13178  15.075  14.490   7.218 -0.0897 -0.0984  0.0125
 1003YOPC   D3B13179  14.989  14.766   7.539  0.1369 -0.2429 -0.2068
 1003YOPC   C4B13180  14.702  15.066   7.692 -0.2312 -0.1819  0.2054
 1004YOPC   NC313181  11.889  17.565   4.951 -0.1027  0.0182 -0.0702
 1004YOPC   PO413182  11.983  17.284   5.264  0.1847 -0.0936 -0.0278
 1004YOPC   GL113183  11.881  17.170   5.579 -0.2706 -0.1405  0.2751
 1004YOPC   GL213184  11.564  17.148   5.655 -0.2178 -0.1905  0.0610
 1004YOPC   C1A13185  11.950  17.044   5.941 -0.1653 -0.3794  0.1727
 1004YOPC   D2A13186  11.666  16.793   6.211  0.0159 -0.0021  0.0897
 1004YOPC   C3A13187  11.207  16.781   6.299 -0.0285  0.3021 -0.1915
 1004YOPC   C4A13188  10.884  16.961   6.249 -0.1240  0.3352 -0.2193
 1004YOPC   C1B13189  11.659  17.541   5.928  0.1487 -0.1994 -0.2705
 1004YOPC   C2B13190  11.837  18.047   5.864 -0.0632 -0.0043 -0.0465
 1004YOPC   D3B13191  11.962  18.211   6.357  0.0279 -0.1803 -0.0586
 1004YOPC   C4B13192  12.200  18.259   6.788 -0.1340  0.2417  0.2645
 1005YOPC   NC313193  11.742   4.502   5.768 -0.1963  0.1632 -0.0817
 1005YOPC   PO413194  12.155   4.349   5.830  0.2073  0.1100  0.3284
 1005YOPC   GL113195  12.172   4.140   6.234 -0.2916  0.1506  0.1578
 1005YOPC   GL213196  11.848   4.018   6.079 -0.0281 -0.4362  0.0848
 1005YOPC   C1A13197  12.305   3.937   6.548  0.0326 -0.1105  0.0962
 1005YOPC   D2A13198  12.456   3.817   6.951 -0.5280 -0.1360 -0.1090
 1005YOPC   C3A13199  12.255   3.814   7.329  0.0641  0.1823  0.1307
 1005YOPC   C4A13200  11.870   4.051   7.565  0.0228 -0.2432 -0.0395
 1005YOPC   C1B13201  11.594   3.812   6.452  0.0689 -0.1836 -0.2467
 1005YOPC   C2B13202  11.438   3.829   6.838  0.4670  0.2670 -0.0408
 1005YOPC   D3B13203  11.499   4.060   7.125 -0.1278  0.0978 -0.1586
 1005YOPC   C4B13204  11.443   4.303   7.440  0.0632 -0.1877  0.0755
 1006YOPC   NC313205   7.735   3.561   6.065 -0.2144 -0.0192 -0.2188
 1006YOPC   PO413206   7.793   3.157   6.072  0.1765 -0.2511 -0.0873
 1006YOPC   GL113207   7.727   3.165   6.442  0.1298  0.3923  0.1328
 1006YOPC   GL213208   7.457   3.153   6.538 -0.1335 -0.0297 -0.2741
 1006YOPC   C1A13209   7.896   3.235   6.885  0.2192 -0.0210  0.0703
 1006YOPC   D2A13210   7.896   3.036   7.298 -0.3371  0.1373  0.1308
 1006YOPC   C3A13211   7.592   3.045   7.574 -0.0572  0.0141  0.3470
 1006YOPC   C4A13212   7.429   2.691   7.709 -0.0471  0.3136  0.3592
 1006YOPC   C1B13213   7.394   3.195   7.029  0.3464  0.0941 -0.0897
 1006YOPC   C2B13214   7.204   2.884   7.274 -0.2235  0.0294  0.0378
 1006YOPC   D3B13215   7.090   3.128   7.672 -0.0305  0.0339  0.2005
 1006YOPC   C4B13216   7.129   2.975   8.099  0.2069  0.2581  0.1277
 1007YOPC   NC313217   2.065  14.525   6.179 -0.1107  0.1955 -0.1270
 1007YOPC   PO413218   2.429  14.375   6.034  0.1545 -0.0598 -0.4163
 1007YOPC   GL113219   2.537  14.528   6.349 -0.3278 -0.2371  0.0310
 1007YOPC   GL213220   2.407  14.203   6.542  0.0625  0.0810  0.0408
 1007YOPC   C1A13221   2.792  14.522   6.752 -0.2889  0.0630 -0.1122
 1007YOPC   D2A13222   2.783  14.701   7.138 -0.1307 -0.0993  0.1213
 1007YOPC   C3A13223   3.152  14.709   7.306 -0.2879 -0.1131 -0.3667
 1007YOPC   C4A13224   3.369  15.039   7.412  0.0747  0.0646  0.1418
 1007YOPC   C1B13225   2.408  14.197   6.967  0.2012 -0.3571 -0.2298
 1007YOPC   C2B13226   2.712  14.196   7.192  0.0506 -0.3408 -0.0468
 1007YOPC   D3B13227   2.798  14.326   7.548  0.1607 -0.2280 -0.5174
 1007YOPC   C4B13228   2.705  14.291   7.993 -0.2214 -0.0409  0.0887
 1008YOPC   NC313229   7.257   3.773   5.158  0.1328  0.2170  0.1122
 1008YOPC   PO413230   7.564   3.910   5.546  0.1728  0.1770  0.3704
 1008YOPC   GL113231   7.289   4.029   5.859  0.0693  0.1740 -0.0991
 1008YOPC   GL213232   7.151   3.816   6.087  0.3110 -0.1915 -0.1088
 1008YOPC   C1A13233   7.178   4.301   6.218  0.4280  0.0881 -0.0569
 1008YOPC   D2A13234   6.829   4.148   6.540  0.0349  0.0474 -0.0552
 1008YOPC   C3A13235   6.825   4.434   6.935 -0.0383  0.1561  0.0966
 1008YOPC   C4A13236   6.877   4.464   7.357  0.0141 -0.2190  0.1709
 1008YOPC   C1B13237   7.167   3.657   6.471  0.2896 -0.1972 -0.4133
 1008YOPC   C2B13238   7.061   3.521   6.912  0.1881 -0.0962  0.1014
 1008YOPC   D3B13239   6.930   3.953   7.109  0.1280 -0.1118  0.2406
 1008YOPC   C4B13240   7.249   4.236   7.168 -0.3936  0.3192  0.1600
 1009YOPC   NC313241  17.302   8.280   6.136 -0.1887  0.1996 -0.0818
 1009YOPC   PO413242  17.440   7.930   6.139 -0.4089  0.3416  0.4529
 1009YOPC   GL113243  17.263   8.011   6.523 -0.0608 -0.1244  0.1460
 1009YOPC   GL213244  17.516   7.712   6.565 -0.0337 -0.0453 -0.1365
 1009YOPC   C1A13245  17.050   8.176   6.923 -0.2214 -0.0763 -0.0693
 1009YOPC   D2A13246  16.902   8.511   7.279  0.0827  0.2464  0.1422
 1009YOPC   C3A13247  16.583   8.871   7.424  0.2588 -0.0303  0.1803
 1009YOPC   C4A13248  16.157   8.902   7.646 -0.0350  0.2326 -0.0659
 1009YOPC   C1B13249  17.534   7.870   6.937  0.0064 -0.1450 -0.0565
 1009YOPC   C2B13250  17.795   8.035   7.230  0.1483 -0.0028  0.2044
 1009YOPC   D3B13251  18.096   8.287   6.969 -0.1494 -0.0636  0.0218
 1009YOPC   C4B13252  18.543   8.230   6.779 -0.0799 -0.1009 -0.1799
 1010YOPC   NC313253   1.631  10.719   5.563 -0.1913 -0.2039 -0.1913
 1010YOPC   PO413254   1.493  10.512   5.922  0.3558 -0.1288 -0.0202
 1010YOPC   GL113255   1.806  10.462   6.293  0.0820  0.0890  0.0448
 1010YOPC   GL213256   1.805  10.708   6.482  0.2559  0.0585 -0.2156
 1010YOPC   C1A13257   1.912  10.298   6.728  0.0055  0.0080  0.3948
 1010YOPC   D2A13258   1.891  10.356   7.265 -0.3187 -0.0960 -0.1053
 1010YOPC   C3A13259   2.202  10.038   7.461 -0.0246  0.0926 -0.2945
 1010YOPC   C4A13260   2.260   9.683   7.701 -0.1522 -0.0199  0.0297
 1010YOPC   C1B13261   1.737  10.746   6.902 -0.2719 -0.1610  0.0537
 1010YOPC   C2B13262   1.597  10.767   7.289  0.2011 -0.0011  0.3691
 1010YOPC   D3B13263   1.534  10.996   7.643  0.3189 -0.1708  0.0004
 1010YOPC   C4B13264   1.119  11.303   7.886  0.0936  0.0967  0.0470
 1011YOPC   NC313265   8.845  16.989   5.429  0.2811 -0.3957  0.0917
 1011YOPC   PO413266   9.130  17.254   5.169 -0.0481  0.4283 -0.0403
 1011YOPC   GL113267   9.246  17.451   5.610  0.2463 -0.1490 -0.0632
 1011YOPC   GL213268   9.113  17.746   5.852 -0.0091 -0.1114  0.0640
 1011YOPC   C1A13269   9.404  17.386   6.134 -0.1151 -0.0606 -0.2322
 1011YOPC   D2A13270   9.540  17.464   6.472  0.1994  0.1023  0.2162
 1011YOPC   C3A13271   9.508  17.741   6.886  0.1828  0.0616 -0.0056
 1011YOPC   C4A13272   9.471  17.711   7.338  0.2584 -0.2312  0.1338
 1011YOPC   C1B13273   9.029  17.709   6.300  0.2035  0.0130 -0.1100
 1011YOPC   C2B13274   8.923  17.653   6.785  0.0627  0.0867 -0.0063
 1011YOPC   D3B13275   8.572  17.760   7.040 -0.0677 -0.2456  0.0555
 1011YOPC   C4B13276   8.343  18.028   7.283 -0.0983 -0.1538 -0.0386
 1012YOPC   NC313277   3.122  11.921   5.082  0.2097 -0.0709 -0.0137
 1012YOPC   PO413278   3.554  12.066   5.127  0.0998  0.2842  0.1801
 1012YOPC   GL113279   3.714  12.083   5.464 -0.0402 -0.0786  0.1594
 1012YOPC   GL213280   3.867  12.355   5.609  0.0678 -0.1770  0.2027
 1012YOPC   C1A13281   3.602  12.074   5.951  0.3074 -0.1003 -0.3322
 1012YOPC   D2A13282   3.496  12.413   6.359 -0.1175 -0.0512 -0.1385
 1012YOPC   C3A13283   3.362  12.389   6.898  0.1215  0.0231 -0.2389
 1012YOPC   C4A13284   3.306  12.144   7.252 -0.1328  0.1552 -0.1404
 1012YOPC   C1B13285   3.681  12.573   5.949 -0.2296 -0.1465 -0.0191
 1012YOPC   C2B13286   3.344  12.820   6.159 -0.1031 -0.0083 -0.0349
 1012YOPC   D3B13287   3.160  12.763   6.546 -0.0820  0.0162 -0.2774
 1012YOPC   C4B13288   3.284  12.876   6.987  0.0688 -0.3027  0.0028
 1013YOPC   NC313289   0.433   2.196   5.878  0.1800 -0.2291 -0.1368
 1013YOPC   PO413290   0.656   2.277   6.274  0.0218 -0.3596  0.0073
 1013YOPC   GL113291   0.676   2.209   6.696 -0.1025 -0.1300  0.2166
 1013YOPC   GL213292   0.967   2.465   6.868 -0.0512 -0.4491  0.2815
 1013YOPC   C1A13293   0.856   2.003   6.990 -0.1932 -0.2837  0.0202
 1013YOPC   D2A13294   0.980   1.868   7.338 -0.1573  0.2955 -0.1035
 1013YOPC   C3A13295   1.211   1.999   7.713  0.2823 -0.2561  0.0746
 1013YOPC   C4A13296   1.460   1.866   8.079 -0.0785 -0.0539  0.0426
 1013YOPC   C1B13297   1.412   2.612   6.880  0.2817 -0.3020 -0.3552
 1013YOPC   C2B13298   1.711   2.876   7.168  0.0943 -0.0681  0.0344
 1013YOPC   D3B13299   1.895   2.851   7.612  0.0128 -0.1295 -0.0251
 1013YOPC   C4B13300   1.894   2.836   8.050 -0.0889 -0.0393  0.1086
 1014YOPC   NC313301  10.409   8.931   5.573 -0.1247  0.3441 -0.2658
 1014YOPC   PO413302  10.451   8.652   5.929  0.4276 -0.1172 -0.0099
 1014YOPC   GL113303  10.273   8.551   6.327  0.1678 -0.0234  0.1981
 1014YOPC   GL213304  10.158   8.767   6.559 -0.0432 -0.2135 -0.0234
 1014YOPC   C1A13305  10.252   8.254   6.650 -0.2520  0.0267  0.0265
 1014YOPC   D2A13306  10.431   8.038   7.038  0.0761 -0.0132 -0.4275
 1014YOPC   C3A13307  10.241   7.606   7.280 -0.0996  0.2130  0.0668
 1014YOPC   C4A13308  10.146   7.253   7.259 -0.4575  0.3019 -0.2009
 1014YOPC   C1B13309  10.123   8.725   6.909 -0.1293  0.0670  0.0419
 1014YOPC   C2B13310  10.146   8.383   7.305  0.4391 -0.1997 -0.0137
 1014YOPC   D3B13311  10.031   8.491   7.754 -0.0274 -0.3874  0.1618
 1014YOPC   C4B13312   9.800   8.433   8.221 -0.1163  0.0675 -0.3945
 1015YOPC   NC313313   7.126  10.778   5.494  0.0263 -0.2440 -0.0429
 1015YOPC   PO413314   7.424  10.400   5.431 -0.1142  0.1324 -0.3996
 1015YOPC   GL113315   7.206  10.349   5.765  0.0366 -0.1624 -0.1556
 1015YOPC   GL213316   7.504  10.181   5.921  0.0432  0.1585 -0.3962
 1015YOPC   C1A13317   7.119  10.571   6.198 -0.0897 -0.0704  0.3188
 1015YOPC   D2A13318   7.180  10.819   6.478 -0.0224 -0.2588  0.0801
 1015YOPC   C3A13319   7.543  11.139   6.379 -0.0524 -0.0508 -0.1566
 1015YOPC   C4A13320   7.714  11.164   6.109 -0.0985 -0.3419  0.4775
 1015YOPC   C1B13321   7.539  10.103   6.372  0.2562 -0.3235  0.3140
 1015YOPC   C2B13322   7.516  10.106   6.875  0.0909  0.1751 -0.0576
 1015YOPC   D3B13323   7.789   9.889   7.116 -0.2786  0.1947  0.2667
 1015YOPC   C4B13324   7.971   9.958   7.522  0.0977 -0.1415 -0.0864
 1016YOPC   NC313325   8.831   5.927   5.776  0.3296  0.0840  0.3044
 1016YOPC   PO413326   8.864   5.419   5.748  0.0254 -0.0830 -0.0806
 1016YOPC   GL113327   9.020   5.403   6.088 -0.1130 -0.2220 -0.3981
 1016YOPC   GL213328   9.191   5.716   6.154 -0.1285 -0.3294 -0.1322
 1016YOPC   C1A13329   8.810   5.484   6.481 -0.1177  0.1381  0.1874
 1016YOPC   D2A13330   8.600   5.562   6.999  0.1896 -0.1621  0.5657
 1016YOPC   C3A13331   8.417   5.295   7.087 -0.0936 -0.2016 -0.1103
 1016YOPC   C4A13332   8.384   4.869   7.116 -0.0810  0.0332  0.0534
 1016YOPC   C1B13333   9.219   5.697   6.668 -0.1088 -0.2506  0.0864
 1016YOPC   C2B13334   9.091   5.681   7.014  0.0357  0.0117  0.1956
 1016YOPC   D3B13335   8.789   5.575   7.428 -0.0019  0.0850  0.0384
 1016YOPC   C4B13336   8.597   5.197   7.531 -0.1865 -0.0888 -0.0956
 1017YOPC   NC313337   2.572   8.634   5.724  0.0123  0.0743 -0.0770
 1017YOPC   PO413338   2.717   9.008   5.962 -0.0552 -0.4254 -0.1204
 1017YOPC   GL113339   2.583   9.153   6.354 -0.3577  0.2907  0.1159
 1017YOPC   GL213340   2.313   8.970   6.371 -0.2430  0.0098 -0.0601
 1017YOPC   C1A13341   2.656   9.162   6.871 -0.0630  0.1382  0.0934
 1017YOPC   D2A13342   2.953   9.283   7.174 -0.1679 -0.0096 -0.4467
 1017YOPC   C3A13343   3.123   9.450   7.466 -0.2375  0.0003 -0.0749
 1017YOPC   C4A13344   3.412   9.476   7.728 -0.0359  0.2941  0.0408
 1017YOPC   C1B13345   2.262   9.326   6.613 -0.1610  0.1787  0.1861
 1017YOPC   C2B13346   2.344   9.414   7.069  0.1966 -0.2702  0.1015
 1017YOPC   D3B13347   2.052   9.295   7.353 -0.1717  0.1310 -0.1822
 1017YOPC   C4B13348   1.743   9.252   7.684 -0.1477 -0.0379  0.0293
 1018YOPC   NC313349   1.732   1.499   5.809 -0.0844  0.3348 -0.0311
 1018YOPC   PO413350   1.569   1.061   5.848  0.0065  0.0248  0.0015
 1018YOPC   GL113351   1.562   0.956   6.267  0.0626 -0.0482  0.0481
 1018YOPC   GL213352   1.724   1.176   6.339 -0.0440  0.2533  0.0524
 1018YOPC   C1A13353   1.958   0.793   6.583 -0.5212 -0.0721 -0.1442
 1018YOPC   D2A13354   1.896   0.663   7.022 -0.0144 -0.1581 -0.1566
 1018YOPC   C3A13355   2.172   0.811   7.354  0.3066 -0.1018  0.1174
 1018YOPC   C4A13356   2.242   0.862   7.709 -0.5380  0.0136  0.0397
 1018YOPC   C1B13357   1.494   1.153   6.741 -0.4193  0.0161 -0.4067
 1018YOPC   C2B13358   1.627   1.018   7.237 -0.2292  0.2537 -0.3462
 1018YOPC   D3B13359   1.582   0.693   7.360  0.1713  0.2404  0.2755
 1018YOPC   C4B13360   1.266   0.474   7.650 -0.1183 -0.0496  0.2496
 1019YOPC   NC313361  16.537  10.619   5.635 -0.1413 -0.0672  0.2794
 1019YOPC   PO413362  16.498  10.692   6.022 -0.0141 -0.1302 -0.0727
 1019YOPC   GL113363  16.551  10.624   6.416  0.0792  0.0480 -0.0672
 1019YOPC   GL213364  16.780  10.858   6.556  0.1156  0.1402 -0.1904
 1019YOPC   C1A13365  16.590  10.358   6.789 -0.1628  0.1019 -0.1982
 1019YOPC   D2A13366  16.345  10.334   7.092  0.2653 -0.1029 -0.0165
 1019YOPC   C3A13367  16.259  10.394   7.491  0.0251  0.1083  0.0751
 1019YOPC   C4A13368  16.146  10.450   7.964 -0.1113 -0.2154 -0.1310
 1019YOPC   C1B13369  16.631  10.867   7.006  0.1125 -0.1167  0.2228
 1019YOPC   C2B13370  16.580  10.805   7.578 -0.1878 -0.0605  0.3812
 1019YOPC   D3B13371  16.705  10.440   7.757  0.1943  0.1158  0.6429
 1019YOPC   C4B13372  16.585  10.033   7.869  0.1113  0.2294 -0.1709
 1020YOPC   NC313373   1.283  14.635   5.889  0.4503  0.0076  0.0271
 1020YOPC   PO413374   0.923  14.830   6.056 -0.1018 -0.0372 -0.1466
 1020YOPC   GL113375   1.122  14.805   6.412 -0.3055  0.3027  0.0469
 1020YOPC   GL213376   0.945  14.463   6.661 -0.0129  0.3299 -0.3719
 1020YOPC   C1A13377   1.218  14.915   6.845  0.3060  0.1748  0.1194
 1020YOPC   D2A13378   1.124  14.893   7.212 -0.3634  0.0074  0.1311
 1020YOPC   C3A13379   0.858  14.807   7.419  0.0840 -0.0242  0.0609
 1020YOPC   C4A13380   0.667  15.073   7.748 -0.1321  0.0132 -0.1706
 1020YOPC   C1B13381   1.085  14.420   7.003  0.0372  0.1456 -0.1266
 1020YOPC   C2B13382   1.038  14.274   7.479 -0.0211  0.1815 -0.1249
 1020YOPC   D3B13383   1.348  14.154   7.699 -0.0169  0.2415 -0.0465
 1020YOPC   C4B13384   1.780  14.208   7.839  0.1662 -0.0917 -0.1313
 1021YOPC   NC313385  17.793  10.589   6.035 -0.0105  0.0242  0.0647
 1021YOPC   PO413386  18.118  10.281   6.103 -0.1202 -0.1172 -0.2402
 1021YOPC   GL113387  17.953  10.543   6.496  0.2964 -0.0376  0.0328
 1021YOPC   GL213388  17.727  10.389   6.775 -0.0002 -0.0249  0.1232
 1021YOPC   C1A13389  18.124  10.605   6.955  0.0847  0.1640 -0.1313
 1021YOPC   D2A13390  18.054  10.524   7.415  0.0019 -0.1194 -0.1090
 1021YOPC   C3A13391  17.869  10.239   7.768 -0.0193  0.3376  0.2203
 1021YOPC   C4A13392  17.916  10.397   8.211 -0.0797  0.1479  0.1175
 1021YOPC   C1B13393  17.501  10.334   7.097  0.1985 -0.1579  0.1173
 1021YOPC   C2B13394  17.400  10.397   7.431 -0.1008  0.0632  0.3747
 1021YOPC   D3B13395  17.583  10.638   7.822 -0.2089 -0.0891  0.0740
 1021YOPC   C4B13396  17.653  10.789   8.237 -0.0093 -0.1473  0.1083
 1022YOPC   NC313397  12.339  18.506   5.457 -0.2595  0.0532 -0.0304
 1022YOPC   PO413398  12.654  18.771   5.622  0.0823  0.0869  0.3168
 1022YOPC   GL113399  12.466  18.546   6.001 -0.0316  0.0250  0.0800
 1022YOPC   GL213400  12.511  18.263   6.009 -0.0400  0.0960 -0.3121
 1022YOPC   C1A13401  12.246  18.630   6.422  0.1526 -0.3888  0.1513
 1022YOPC   D2A13402  12.064  18.803   6.766 -0.0474  0.0247  0.0756
 1022YOPC   C3A13403  12.008  18.917   7.258  0.3454 -0.1627 -0.0081
 1022YOPC   C4A13404  11.660  19.020   7.409  0.2060 -0.2106  0.0558
 1022YOPC   C1B13405  12.398  17.960   6.351  0.0071 -0.2118  0.1937
 1022YOPC   C2B13406  12.149  17.755   6.655  0.1087  0.1873 -0.2790
 1022YOPC   D3B13407  12.202  17.842   7.055  0.2124 -0.0472 -0.1297
 1022YOPC   C4B13408  12.203  17.787   7.512  0.1461 -0.1811 -0.3865
 1023YOPC   NC313409   5.010   8.062   5.891 -0.3110  0.3092  0.1486
 1023YOPC   PO413410   4.793   8.191   6.222 -0.0687 -0.0102  0.1419
 1023YOPC   GL113411   4.652   7.995   6.540  0.1897  0.2567  0.0879
 1023YOPC   GL213412   4.408   7.828   6.681  0.2188  0.0142 -0.1689
 1023YOPC   C1A13413   4.797   7.832   7.010 -0.0595  0.0113  0.1898
 1023YOPC   D2A13414   4.963   7.560   7.294 -0.2143 -0.2457 -0.2026
 1023YOPC   C3A13415   4.835   7.158   7.293 -0.0053  0.2473 -0.4659
 1023YOPC   C4A13416   4.797   6.796   7.467  0.0210 -0.1274 -0.1789
 1023YOPC   C1B13417   4.346   7.780   7.056 -0.0563 -0.0040  0.1280
 1023YOPC   C2B13418   4.526   7.576   7.462  0.1659 -0.1420  0.2419
 1023YOPC   D3B13419   4.764   7.389   7.774  0.2781 -0.1991  0.1398
 1023YOPC   C4B13420   5.184   7.369   7.878 -0.3495 -0.2748  0.1040
 1024YOPC   NC313421   0.891   8.558   5.949 -0.0171 -0.0093  0.1115
 1024YOPC   PO413422   0.572   8.559   6.254 -0.4393  0.0476 -0.2343
 1024YOPC   GL113423   0.855   8.643   6.554 -0.0432 -0.0748 -0.1279
 1024YOPC   GL213424   0.876   8.976   6.746  0.0382 -0.2575 -0.2599
 1024YOPC   C1A13425   0.828   8.490   6.950  0.1827 -0.3127  0.2756
 1024YOPC   D2A13426   0.836   8.376   7.485 -0.0666  0.0832 -0.2990
 1024YOPC   C3A13427   0.479   8.440   7.727  0.0123 -0.0375  0.1990
 1024YOPC   C4A13428   0.163   8.265   7.655  0.1436 -0.0783  0.1656
 1024YOPC   C1B13429   1.141   9.158   6.978  0.0431 -0.0429  0.2800
 1024YOPC   C2B13430   1.582   9.044   7.008 -0.0208 -0.2289  0.2093
 1024YOPC   D3B13431   1.753   8.915   7.326  0.4627  0.3748  0.0728
 1024YOPC   C4B13432   2.088   8.908   7.715  0.1686 -0.1502  0.0557
 1025YOPC   NC313433  12.901  14.188   5.251  0.2106  0.1017  0.0758
 1025YOPC   PO413434  13.237  14.341   5.569 -0.0545 -0.1125  0.1754
 1025YOPC   GL113435  13.369  14.561   5.990  0.1105 -0.4809  0.1858
 1025YOPC   GL213436  13.441  14.167   6.179 -0.0387  0.3130 -0.0229
 1025YOPC   C1A13437  13.358  14.632   6.427  0.2572 -0.2264  0.0651
 1025YOPC   D2A13438  13.366  14.892   6.851  0.0042 -0.0101 -0.1944
 1025YOPC   C3A13439  13.436  14.991   7.237  0.0525  0.3152  0.1136
 1025YOPC   C4A13440  13.437  15.353   7.476 -0.2842 -0.2040 -0.1718
 1025YOPC   C1B13441  13.397  14.182   6.679 -0.1598 -0.0333 -0.1936
 1025YOPC   C2B13442  13.456  14.420   7.051 -0.1752  0.2240  0.0810
 1025YOPC   D3B13443  13.056  14.595   7.175  0.0027  0.1837 -0.1933
 1025YOPC   C4B13444  12.598  14.449   7.132 -0.3275 -0.0425 -0.2255
 1026YOPC   NC313445   2.769   7.151   5.762 -0.0445 -0.0541 -0.3578
 1026YOPC   PO413446   3.091   7.308   6.030  0.3123  0.0158 -0.1811
 1026YOPC   GL113447   3.153   7.587   6.391  0.1032 -0.2275  0.3180
 1026YOPC   GL213448   3.448   7.454   6.476  0.0243  0.0752 -0.0319
 1026YOPC   C1A13449   3.061   7.844   6.823 -0.0322 -0.1230  0.2287
 1026YOPC   D2A13450   3.089   7.671   7.177  0.1296 -0.2009  0.1193
 1026YOPC   C3A13451   2.999   7.692   7.647  0.1582  0.0043  0.2343
 1026YOPC   C4A13452   3.124   7.482   8.094 -0.1848  0.0954  0.0007
 1026YOPC   C1B13453   3.466   7.294   6.930 -0.0090  0.1072 -0.4375
 1026YOPC   C2B13454   3.239   6.965   7.171 -0.2562  0.2188 -0.1122
 1026YOPC   D3B13455   3.362   6.806   7.618 -0.0908 -0.0036 -0.0586
 1026YOPC   C4B13456   3.384   6.941   7.955  0.3810 -0.2729  0.1313
 1027YOPC   NC313457  15.679   7.355   6.291 -0.0771  0.0667 -0.1382
 1027YOPC   PO413458  15.464   7.786   6.368  0.3639  0.2671 -0.1247
 1027YOPC   GL113459  15.567   7.745   6.724  0.1653 -0.1200 -0.0212
 1027YOPC   GL213460  15.339   7.690   6.967  0.2900  0.0452 -0.1384
 1027YOPC   C1A13461  15.867   8.006   6.944 -0.0857  0.4155  0.2243
 1027YOPC   D2A13462  15.901   8.209   7.388 -0.0961  0.1129 -0.1620
 1027YOPC   C3A13463  16.027   7.940   7.726 -0.3353  0.2545 -0.2952
 1027YOPC   C4A13464  16.012   7.658   8.036  0.1295 -0.0334 -0.2491
 1027YOPC   C1B13465  15.358   7.771   7.411 -0.0871 -0.0327 -0.0253
 1027YOPC   C2B13466  15.581   7.866   7.827  0.1538  0.2392 -0.2310
 1027YOPC   D3B13467  15.477   8.127   8.116  0.1227  0.0223  0.1580
 1027YOPC   C4B13468  15.519   8.241   8.483  0.1089  0.0961  0.0586
 1028YOPC   NC313469  17.221  17.784   5.432  0.0106  0.2652  0.3810
 1028YOPC   PO413470  17.455  17.411   5.569  0.0268  0.1286 -0.0407
 1028YOPC   GL113471  17.525  17.378   6.037 -0.2490  0.0019  0.0788
 1028YOPC   GL213472  17.738  17.470   6.226  0.0544 -0.0821  0.0499
 1028YOPC   C1A13473  17.541  17.083   6.506  0.2004 -0.2952  0.4142
 1028YOPC   D2A13474  17.654  17.115   6.924 -0.0048  0.1509  0.1374
 1028YOPC   C3A13475  17.356  16.926   7.188 -0.0927  0.0190  0.0859
 1028YOPC   C4A13476  16.946  17.068   7.114 -0.0319 -0.0553  0.3214
 1028YOPC   C1B13477  17.807  17.456   6.582 -0.1336  0.1997  0.1519
 1028YOPC   C2B13478  17.869  17.531   6.989  0.4059 -0.1634 -0.1218
 1028YOPC   D3B13479  17.818  17.282   7.359 -0.0769 -0.0854  0.3186
 1028YOPC   C4B13480  17.682  17.302   7.715 -0.2290 -0.1869 -0.0323
 1029YOPC   NC313481  17.109  12.026   5.577 -0.0955  0.0096 -0.0552
 1029YOPC   PO413482  17.196  12.253   6.048 -0.2609 -0.3084  0.1297
 1029YOPC   GL113483  17.140  12.351   6.455  0.0196  0.1263 -0.2135
 1029YOPC   GL213484  16.863  12.301   6.564  0.1631  0.2410 -0.0209
 1029YOPC   C1A13485  17.184  12.221   6.882 -0.1165  0.0335  0.0361
 1029YOPC   D2A13486  17.071  12.361   7.293 -0.1062  0.0661  0.1842
 1029YOPC   C3A13487  17.316  12.173   7.614 -0.0074  0.3539 -0.0063
 1029YOPC   C4A13488  17.066  12.026   8.008 -0.0968 -0.1104 -0.4255
 1029YOPC   C1B13489  16.680  12.237   6.963 -0.1039  0.3205  0.2621
 1029YOPC   C2B13490  16.576  12.291   7.465 -0.3050  0.0390 -0.0278
 1029YOPC   D3B13491  16.365  12.613   7.756  0.2348  0.0574 -0.0977
 1029YOPC   C4B13492  15.949  12.829   7.799  0.1077  0.1816 -0.0299
 1030YOPC   NC313493   6.375  17.027   4.862  0.3998  0.1071  0.0235
 1030YOPC   PO413494   6.510  17.192   5.259  0.1104 -0.1088 -0.0217
 1030YOPC   GL113495   6.596  17.344   5.650  0.2311 -0.0315 -0.2828
 1030YOPC   GL213496   6.509  17.622   5.793 -0.2861 -0.0116  0.0106
 1030YOPC   C1A13497   6.930  17.286   5.873  0.2070 -0.1059 -0.0822
 1030YOPC   D2A13498   6.981  17.186   6.204  0.1491 -0.1184 -0.2157
 1030YOPC   C3A13499   6.835  17.308   6.464  0.1710 -0.0126 -0.2233
 1030YOPC   C4A13500   6.816  17.619   6.703 -0.2159  0.0104  0.0261
 1030YOPC   C1B13501   6.394  17.391   6.268 -0.2685  0.1620 -0.1585
 1030YOPC   C2B13502   6.167  17.450   6.669  0.1937 -0.2045 -0.1188
 1030YOPC   D3B13503   6.454  17.323   6.957  0.2223  0.0310 -0.3294
 1030YOPC   C4B13504   6.799  17.082   7.003  0.1567 -0.1030  0.0548
 1031YOPC   NC313505  13.894   5.637   5.620  0.1750  0.4664 -0.0438
 1031YOPC   PO413506  14.252   5.553   5.997 -0.0977  0.0395  0.1667
 1031YOPC   GL113507  14.160   5.639   6.398  0.0555  0.1569  0.3597
 1031YOPC   GL213508  14.426   5.405   6.616 -0.1573  0.0410 -0.2695
 1031YOPC   C1A13509  14.035   5.668   6.847 -0.1308  0.0780 -0.0091
 1031YOPC   D2A13510  13.836   5.776   7.275 -0.3362 -0.2736 -0.0368
 1031YOPC   C3A13511  13.631   6.169   7.423  0.3737 -0.6841 -0.1034
 1031YOPC   C4A13512  13.274   6.222   7.626 -0.3413 -0.1693 -0.2611
 1031YOPC   C1B13513  14.384   5.345   6.991  0.0173  0.1281 -0.0544
 1031YOPC   C2B13514  14.077   5.362   7.349 -0.2778  0.1759  0.4012
 1031YOPC   D3B13515  13.903   5.231   7.706 -0.1572 -0.2402 -0.2330
 1031YOPC   C4B13516  13.712   4.855   7.896 -0.1242  0.3188 -0.5582
 1032YOPC   NC313517   8.661   1.016   5.560  0.0243 -0.3049 -0.0040
 1032YOPC   PO413518   8.585   1.524   5.577  0.0886  0.1887  0.0469
 1032YOPC   GL113519   8.698   1.654   5.941 -0.0236 -0.2958  0.0051
 1032YOPC   GL213520   8.984   1.470   6.013  0.2889 -0.2657  0.0202
 1032YOPC   C1A13521   8.391   1.566   6.313  0.0252  0.2961 -0.0066
 1032YOPC   D2A13522   8.271   1.280   6.539 -0.1698  0.3591  0.0428
 1032YOPC   C3A13523   8.477   0.951   6.521 -0.3963  0.3127  0.1485
 1032YOPC   C4A13524   8.605   0.735   6.950  0.1871  0.0081 -0.1133
 1032YOPC   C1B13525   9.059   1.143   6.407  0.0860  0.2279 -0.1079
 1032YOPC   C2B13526   9.387   1.060   6.692 -0.0457  0.0935 -0.0614
 1032YOPC   D3B13527   9.178   1.238   7.086 -0.1688  0.4629  0.0190
 1032YOPC   C4B13528   9.154   1.624   7.156  0.0408 -0.0281 -0.0409
 1033YOPC   NC313529   0.561   4.330   6.473  0.1876  0.0218  0.1202
 1033YOPC   PO413530   0.717   4.843   6.582 -0.0724 -0.4198 -0.0995
 1033YOPC   GL113531   0.814   4.960   6.982  0.0275 -0.2071  0.0367
 1033YOPC   GL213532   0.491   5.035   7.001 -0.1921 -0.1414  0.2972
 1033YOPC   C1A13533   0.730   5.152   7.366  0.0537  0.0771  0.0196
 1033YOPC   D2A13534   0.485   5.271   7.748  0.1606 -0.2407  0.0133
 1033YOPC   C3A13535   0.636   5.333   8.132  0.0197  0.2134 -0.2547
 1033YOPC   C4A13536   1.011   5.655   7.980 -0.2521 -0.1995  0.1977
 1033YOPC   C1B13537   0.224   5.155   7.350 -0.1541 -0.0047  0.0302
 1033YOPC   C2B13538   0.027   5.083   7.782 -0.2184 -0.1685  0.1036
 1033YOPC   D3B13539  -0.400   5.125   7.851 -0.2767  0.1529 -0.0469
 1033YOPC   C4B13540  -0.511   5.114   8.294 -0.0758  0.1046  0.2235
 1034YOPC   NC313541  12.224  13.459   5.184  0.0640  0.0221  0.1314
 1034YOPC   PO413542  12.574  13.331   5.277  0.4947 -0.1349  0.0322
 1034YOPC   GL113543  12.462  13.281   5.725  0.1290 -0.0560  0.0276
 1034YOPC   GL213544  12.254  13.194   5.727  0.2919 -0.2883  0.0420
 1034YOPC   C1A13545  12.458  13.436   6.182 -0.2660  0.0020  0.2015
 1034YOPC   D2A13546  12.697  13.801   6.393  0.3701  0.1921 -0.0132
 1034YOPC   C3A13547  12.821  14.117   6.784  0.2013 -0.1514  0.1738
 1034YOPC   C4A13548  12.882  14.597   6.696 -0.4399  0.1476 -0.1272
 1034YOPC   C1B13549  11.980  13.213   6.064 -0.1656  0.2119 -0.0818
 1034YOPC   C2B13550  11.987  13.511   6.445  0.0253 -0.1400 -0.0217
 1034YOPC   D3B13551  11.881  14.007   6.618  0.1329 -0.0308  0.2287
 1034YOPC   C4B13552  11.995  14.437   6.447  0.0985 -0.3942  0.0164
 1035YOPC   NC313553   1.406   9.136   6.116 -0.4139 -0.0679 -0.1277
 1035YOPC   PO413554   1.030   9.030   6.228 -0.1572 -0.0313 -0.0251
 1035YOPC   GL113555   1.141   9.421   6.549  0.1974 -0.0966  0.0916
 1035YOPC   GL213556   1.415   9.281   6.564  0.1654  0.1599  0.0152
 1035YOPC   C1A13557   1.017   9.849   6.523 -0.0857  0.1718  0.1795
 1035YOPC   D2A13558   0.849  10.135   6.804  0.2399 -0.3661 -0.0997
 1035YOPC   C3A13559   0.880  10.177   7.262 -0.0489  0.0041 -0.1041
 1035YOPC   C4A13560   0.871  10.269   7.722 -0.1080 -0.2804  0.3556
 1035YOPC   C1B13561   1.850   9.449   6.859 -0.4315  0.3731  0.0884
 1035YOPC   C2B13562   1.864   9.880   7.049  0.1335  0.2413  0.4211
 1035YOPC   D3B13563   1.759   9.782   7.449  0.3002 -0.1070 -0.0982
 1035YOPC   C4B13564   1.766   9.682   7.965  0.2228  0.0616 -0.0888
 1036YOPC   NC313565   0.599   3.676   6.322 -0.2206  0.4300 -0.0794
 1036YOPC   PO413566   0.889   3.960   6.460 -0.1820  0.1468  0.1998
 1036YOPC   GL113567   0.786   4.067   6.854  0.2074  0.0094 -0.2991
 1036YOPC   GL213568   0.585   3.891   6.831  0.0795 -0.1370 -0.2669
 1036YOPC   C1A13569   0.869   3.931   7.248 -0.0624  0.0110  0.2780
 1036YOPC   D2A13570   1.168   3.950   7.517 -0.1401  0.3756  0.0977
 1036YOPC   C3A13571   0.981   4.021   7.973 -0.1012 -0.1563  0.0804
 1036YOPC   C4A13572   0.708   4.072   8.407  0.1298  0.2270  0.1813
 1036YOPC   C1B13573   0.251   3.567   7.075  0.1382 -0.0084 -0.3982
 1036YOPC   C2B13574  -0.188   3.417   7.274  0.0450  0.1074  0.3103
 1036YOPC   D3B13575  -0.284   3.432   7.721  0.1144 -0.1909  0.0550
 1036YOPC   C4B13576  -0.177   3.184   8.114 -0.2856 -0.0638  0.0876
 1037YOPC   NC313577   4.786   8.699   6.201  0.1409 -0.2672 -0.0516
 1037YOPC   PO413578   5.074   8.948   6.106  0.3097  0.1329 -0.1717
 1037YOPC   GL113579   5.193   8.674   6.540 -0.0793  0.4066  0.0253
 1037YOPC   GL213580   5.007   8.358   6.632 -0.1725 -0.3450 -0.0090
 1037YOPC   C1A13581   5.307   8.687   7.007 -0.0205  0.0382 -0.2209
 1037YOPC   D2A13582   5.406   8.691   7.468  0.1047 -0.2103  0.1618
 1037YOPC   C3A13583   5.504   8.388   7.832 -0.2200  0.2503  0.1960
 1037YOPC   C4A13584   5.639   8.272   8.178 -0.3127 -0.2300  0.1832
 1037YOPC   C1B13585   5.127   8.224   7.144  0.1083  0.0505  0.0626
 1037YOPC   C2B13586   4.982   8.436   7.530  0.1464  0.0828 -0.2543
 1037YOPC   D3B13587   4.833   8.707   7.308  0.0732 -0.1177 -0.0572
 1037YOPC   C4B13588   4.791   8.725   6.891  0.0461 -0.3665 -0.1665
 1038YOPC   NC313589   0.311  16.045   5.748 -0.2268  0.0173 -0.0057
 1038YOPC   PO413590   0.765  16.330   5.847 -0.2951 -0.1724  0.0130
 1038YOPC   GL113591   0.767  16.138   6.313 -0.0655 -0.0530  0.1547
 1038YOPC   GL213592   0.810  15.825   6.462  0.1450 -0.1385 -0.0460
 1038YOPC   C1A13593   0.882  16.241   6.749  0.0437  0.1656  0.0636
 1038YOPC   D2A13594   0.906  16.427   7.205 -0.0705  0.2665 -0.1434
 1038YOPC   C3A13595   1.096  16.203   7.489 -0.1289  0.0728  0.2130
 1038YOPC   C4A13596   1.215  16.152   8.031  0.1362  0.3697 -0.0522
 1038YOPC   C1B13597   0.776  15.730   6.889 -0.2329  0.0523 -0.2473
 1038YOPC   C2B13598   1.099  15.735   7.277 -0.2304 -0.0916 -0.2774
 1038YOPC   D3B13599   1.456  15.689   7.628 -0.0708  0.2041 -0.3082
 1038YOPC   C4B13600   1.523  15.450   7.953 -0.3061  0.2119 -0.3577
 1039YOPC   NC313601   2.758  13.156   5.447 -0.1411  0.1177 -0.0491
 1039YOPC   PO413602   3.021  12.778   5.417 -0.2419 -0.1902 -0.0190
 1039YOPC   GL113603   2.918  12.785   5.779  0.2639 -0.0347 -0.0784
 1039YOPC   GL213604   2.702  12.572   5.917  0.2090  0.0515  0.0512
 1039YOPC   C1A13605   2.856  13.005   6.213 -0.1827  0.1306  0.0132
 1039YOPC   D2A13606   2.388  13.239   6.336  0.4887 -0.1153  0.0669
 1039YOPC   C3A13607   2.278  13.277   6.742 -0.3877 -0.0241 -0.3084
 1039YOPC   C4A13608   2.376  13.310   7.191 -0.4875  0.1289 -0.0898
 1039YOPC   C1B13609   2.998  12.399   6.161  0.1718  0.1462 -0.1038
 1039YOPC   C2B13610   3.197  11.908   6.171  0.0655 -0.2032 -0.3306
 1039YOPC   D3B13611   3.396  11.909   6.626  0.1914  0.0556 -0.0248
 1039YOPC   C4B13612   3.497  11.825   6.916 -0.3502  0.1717 -0.0448
 1040YOPC   NC313613  17.138  16.956   5.762  0.0011 -0.0716 -0.1295
 1040YOPC   PO413614  16.916  16.674   5.543  0.2238  0.1044 -0.1988
 1040YOPC   GL113615  16.723  16.806   5.962  0.1656  0.1880 -0.1376
 1040YOPC   GL213616  16.919  16.986   6.234  0.1280 -0.1321 -0.0249
 1040YOPC   C1A13617  16.556  16.651   6.249  0.0548 -0.0509 -0.0231
 1040YOPC   D2A13618  16.801  16.604   6.657 -0.1326  0.0374 -0.0290
 1040YOPC   C3A13619  17.235  16.718   6.687  0.0857 -0.1761 -0.1022
 1040YOPC   C4A13620  17.735  16.665   6.756  0.0754 -0.0349 -0.1255
 1040YOPC   C1B13621  17.101  17.205   6.627  0.0827 -0.0463  0.0395
 1040YOPC   C2B13622  17.353  17.530   6.899 -0.0480  0.0848  0.1278
 1040YOPC   D3B13623  17.356  17.424   7.281  0.1227 -0.1672 -0.0139
 1040YOPC   C4B13624  17.291  17.647   7.545 -0.3614  0.3103 -0.0463
 1041YOPC   NC313625  14.688   2.869   5.797 -0.0826 -0.0406 -0.0761
 1041YOPC   PO413626  14.564   3.254   5.863  0.0968 -0.2219 -0.1751
 1041YOPC   GL113627  14.552   3.648   6.213  0.2103  0.0320 -0.2768
 1041YOPC   GL213628  14.736   3.915   6.205 -0.0527  0.1952  0.1681
 1041YOPC   C1A13629  14.574   3.569   6.642 -0.1749  0.1141  0.1969
 1041YOPC   D2A13630  14.673   3.936   7.048 -0.1057  0.4959  0.2371
 1041YOPC   C3A13631  14.633   3.777   7.453 -0.2875  0.1711  0.0684
 1041YOPC   C4A13632  14.801   3.807   7.892  0.1410  0.1560 -0.0212
 1041YOPC   C1B13633  14.549   4.122   6.618  0.2148  0.1314  0.0343
 1041YOPC   C2B13634  14.353   4.452   6.996  0.1498 -0.3079 -0.1666
 1041YOPC   D3B13635  14.356   4.426   7.531  0.2071 -0.0285  0.0780
 1041YOPC   C4B13636  14.318   4.427   8.011  0.1309  0.0195  0.3026
 1042YOPC   NC313637  14.633  17.161   5.197  0.0090 -0.0394 -0.2245
 1042YOPC   PO413638  14.279  17.353   5.387  0.0124  0.2406 -0.3087
 1042YOPC   GL113639  14.382  17.176   5.762  0.0587 -0.0740 -0.0981
 1042YOPC   GL213640  14.554  17.186   6.020 -0.0686  0.1017  0.2315
 1042YOPC   C1A13641  14.119  16.896   6.049 -0.0302  0.2856  0.0492
 1042YOPC   D2A13642  14.013  16.740   6.418  0.0616  0.1166 -0.3586
 1042YOPC   C3A13643  14.031  16.507   6.834 -0.1272 -0.1491  0.2008
 1042YOPC   C4A13644  13.785  16.206   7.077  0.1993  0.1258  0.4628
 1042YOPC   C1B13645  14.446  16.996   6.468 -0.0509  0.2131  0.0532
 1042YOPC   C2B13646  14.245  17.021   6.883 -0.1162  0.0851  0.0630
 1042YOPC   D3B13647  14.500  16.752   7.155 -0.1574 -0.2187 -0.1047
 1042YOPC   C4B13648  14.458  16.786   7.582 -0.0006 -0.3546 -0.6080
 1043YOPC   NC313649   2.904   6.249   5.826  0.1848  0.1710  0.0365
 1043YOPC   PO413650   3.103   6.095   6.241 -0.0029  0.3480 -0.1157
 1043YOPC   GL113651   3.062   6.052   6.587 -0.1149 -0.3437  0.0474
 1043YOPC   GL213652   3.139   5.768   6.699  0.0130  0.0807  0.2549
 1043YOPC   C1A13653   2.837   6.144   7.001  0.2185  0.0308  0.0695
 1043YOPC   D2A13654   2.598   6.017   7.332  0.1696  0.1816 -0.1285
 1043YOPC   C3A13655   2.734   6.123   7.707  0.0163 -0.1626  0.2939
 1043YOPC   C4A13656   2.866   6.085   8.105 -0.3016 -0.3817  0.1043
 1043YOPC   C1B13657   2.734   5.674   6.901 -0.0537  0.0042  0.0543
 1043YOPC   C2B13658   2.510   5.392   7.048 -0.1052 -0.0235  0.2613
 1043YOPC   D3B13659   2.600   5.378   7.397  0.3597 -0.1344 -0.0697
 1043YOPC   C4B13660   2.497   5.671   7.735  0.1688 -0.1272 -0.1688
 1044YOPC   NC313661  16.650  15.613   5.458  0.2898 -0.0571  0.3755
 1044YOPC   PO413662  16.678  15.271   5.678  0.0446  0.2175  0.2833
 1044YOPC   GL113663  16.609  15.193   6.107  0.3926 -0.2100  0.2705
 1044YOPC   GL213664  16.560  15.087   6.339 -0.0150 -0.3765  0.1606
 1044YOPC   C1A13665  16.633  15.560   6.364  0.4480  0.0579  0.0541
 1044YOPC   D2A13666  16.703  15.792   6.736 -0.0944 -0.2133 -0.0560
 1044YOPC   C3A13667  16.779  15.540   7.175 -0.2287 -0.1592  0.2728
 1044YOPC   C4A13668  17.120  15.366   7.381  0.0078 -0.2007 -0.1193
 1044YOPC   C1B13669  16.356  14.814   6.718  0.0376 -0.1444  0.1308
 1044YOPC   C2B13670  16.011  14.791   7.085 -0.0466  0.2261  0.1386
 1044YOPC   D3B13671  16.005  14.746   7.514 -0.1355 -0.2141  0.4073
 1044YOPC   C4B13672  16.027  14.689   7.948 -0.2131  0.0205 -0.3745
 1045YOPC   NC313673   6.739   5.745   5.129  0.1484 -0.1485 -0.1118
 1045YOPC   PO413674   6.831   5.475   5.436  0.5026 -0.0197 -0.0052
 1045YOPC   GL113675   6.823   5.286   5.803  0.0370  0.1393  0.1364
 1045YOPC   GL213676   6.851   5.551   6.059  0.0164 -0.1494 -0.0683
 1045YOPC   C1A13677   6.947   4.976   6.096 -0.0965 -0.3481  0.1588
 1045YOPC   D2A13678   7.028   4.796   6.589 -0.0153  0.0151  0.3324
 1045YOPC   C3A13679   7.297   4.522   6.623 -0.1829 -0.3234 -0.1304
 1045YOPC   C4A13680   7.348   4.048   6.673  0.0945 -0.3037 -0.0490
 1045YOPC   C1B13681   6.738   5.476   6.520  0.1958 -0.1347  0.0059
 1045YOPC   C2B13682   6.409   5.269   6.726  0.0318 -0.2353 -0.3110
 1045YOPC   D3B13683   6.500   4.770   6.645 -0.2449 -0.1869  0.2584
 1045YOPC   C4B13684   6.650   4.665   6.263 -0.0588 -0.4148 -0.3177
 1046YOPC   NC313685  13.752   2.863   5.528  0.1152  0.2536 -0.4298
 1046YOPC   PO413686  13.479   2.409   5.591  0.0193 -0.0488 -0.2407
 1046YOPC   GL113687  13.622   2.528   6.012  0.2174  0.2880  0.0472
 1046YOPC   GL213688  13.858   2.312   6.200  0.2631 -0.0999  0.1332
 1046YOPC   C1A13689  13.381   2.629   6.337  0.1971  0.2825  0.0591
 1046YOPC   D2A13690  13.215   2.822   6.703 -0.1650  0.0895 -0.0374
 1046YOPC   C3A13691  13.065   2.580   7.078 -0.0055  0.0114 -0.2266
 1046YOPC   C4A13692  13.026   2.441   7.529  0.1834  0.0421 -0.2247
 1046YOPC   C1B13693  13.778   2.322   6.557 -0.0113 -0.1831 -0.3586
 1046YOPC   C2B13694  13.409   2.352   6.812  0.2825 -0.0757  0.1676
 1046YOPC   D3B13695  13.190   2.078   7.137  0.1328 -0.5585 -0.0250
 1046YOPC   C4B13696  13.201   1.635   7.051  0.0417 -0.1545  0.2760
 1047YOPC   NC313697  10.026   9.641   5.636  0.0638  0.0927 -0.1485
 1047YOPC   PO413698  10.136  10.073   5.556  0.2004  0.0872 -0.2732
 1047YOPC   GL113699   9.738  10.117   5.797  0.0381  0.1216  0.3884
 1047YOPC   GL213700   9.815  10.468   5.930  0.1478 -0.2972  0.1789
 1047YOPC   C1A13701   9.658   9.887   6.236 -0.0081  0.1692  0.3116
 1047YOPC   D2A13702   9.291   9.547   6.306  0.0874 -0.3501  0.0433
 1047YOPC   C3A13703   9.356   9.468   6.733 -0.0468 -0.1096 -0.0904
 1047YOPC   C4A13704   9.293   9.475   7.140 -0.0426  0.1125 -0.4427
 1047YOPC   C1B13705   9.867  10.321   6.343 -0.2754  0.4400  0.3829
 1047YOPC   C2B13706   9.902  10.056   6.712 -0.0380 -0.3069  0.3037
 1047YOPC   D3B13707   9.919  10.212   7.079 -0.0843 -0.1247 -0.0986
 1047YOPC   C4B13708  10.009  10.057   7.458  0.1939  0.2140  0.1151
 1048YOPC   NC313709  12.574  11.597   5.099  0.0525 -0.3327  0.3644
 1048YOPC   PO413710  12.457  11.650   5.571 -0.1625  0.0800  0.1032
 1048YOPC   GL113711  12.697  11.907   5.903  0.2714  0.0335  0.1559
 1048YOPC   GL213712  12.608  12.057   6.111  0.1682 -0.0572 -0.1320
 1048YOPC   C1A13713  13.202  11.841   6.168  0.1255  0.0825  0.2102
 1048YOPC   D2A13714  13.287  11.754   6.618  0.0611 -0.0258  0.3631
 1048YOPC   C3A13715  13.291  12.101   6.950 -0.1883 -0.0975  0.0837
 1048YOPC   C4A13716  13.558  12.325   7.192  0.3227  0.1149  0.0256
 1048YOPC   C1B13717  12.799  12.017   6.471  0.0180 -0.1456 -0.0392
 1048YOPC   C2B13718  12.662  12.247   6.844 -0.1571 -0.0656  0.1530
 1048YOPC   D3B13719  12.624  12.832   6.882 -0.0407  0.0075 -0.0337
 1048YOPC   C4B13720  12.618  13.216   7.029  0.2851  0.0412 -0.1617
 1049YOPC   NC313721   4.338   4.488   6.283  0.0679 -0.0312  0.0876
 1049YOPC   PO413722   4.678   4.178   6.084 -0.0152  0.1422 -0.2727
 1049YOPC   GL113723   4.636   4.196   6.524 -0.2568 -0.2402 -0.0446
 1049YOPC   GL213724   4.807   4.405   6.518  0.0594 -0.1807 -0.1379
 1049YOPC   C1A13725   4.444   3.953   6.878  0.2953 -0.0646  0.1502
 1049YOPC   D2A13726   4.372   3.757   7.195 -0.0996  0.1152  0.0103
 1049YOPC   C3A13727   4.767   3.779   7.579  0.1354  0.0843  0.0316
 1049YOPC   C4A13728   5.043   3.794   7.884  0.1575 -0.1998  0.1448
 1049YOPC   C1B13729   5.069   4.669   6.881  0.5474 -0.3600 -0.2031
 1049YOPC   C2B13730   4.954   4.828   7.305 -0.0198 -0.1141  0.3205
 1049YOPC   D3B13731   4.780   4.774   7.523 -0.1120  0.1341 -0.1518
 1049YOPC   C4B13732   4.619   4.711   7.970  0.2199  0.1608 -0.1904
 1050YOPC   NC313733  12.823   1.176   5.662  0.2510  0.0431  0.0945
 1050YOPC   PO413734  13.195   1.443   5.766  0.1651 -0.1392  0.2462
 1050YOPC   GL113735  13.131   1.733   6.055  0.4123  0.3061 -0.0627
 1050YOPC   GL213736  13.070   1.660   6.291  0.0331 -0.0571  0.2189
 1050YOPC   C1A13737  13.066   2.147   6.103 -0.3315 -0.0051 -0.0151
 1050YOPC   D2A13738  13.077   2.211   6.489 -0.3495  0.0047 -0.0731
 1050YOPC   C3A13739  12.836   2.425   6.676 -0.0955 -0.0529  0.0749
 1050YOPC   C4A13740  12.487   2.331   6.765  0.4871 -0.1469 -0.1802
 1050YOPC   C1B13741  13.156   1.413   6.609 -0.1454 -0.1630 -0.0978
 1050YOPC   C2B13742  13.053   1.170   7.004 -0.1290  0.2994  0.1414
 1050YOPC   D3B13743  13.041   1.303   7.386  0.5008  0.1039  0.1648
 1050YOPC   C4B13744  12.876   1.433   7.807 -0.0643 -0.2502  0.0757
 1051YOPC   NC313745  18.059  12.369   5.840  0.3183  0.0233 -0.2053
 1051YOPC   PO413746  17.806  12.589   6.010 -0.0786  0.2359 -0.0509
 1051YOPC   GL113747  17.698  12.369   6.295 -0.1033 -0.1820  0.0873
 1051YOPC   GL213748  18.073  12.432   6.409  0.0211  0.5271 -0.2098
 1051YOPC   C1A13749  17.668  12.087   6.585  0.4321 -0.0819  0.3678
 1051YOPC   D2A13750  17.393  11.845   6.532 -0.2740 -0.0108 -0.5455
 1051YOPC   C3A13751  17.372  11.637   6.820 -0.1976  0.2377 -0.1857
 1051YOPC   C4A13752  17.612  11.339   7.040  0.0538 -0.1787 -0.1561
 1051YOPC   C1B13753  18.271  12.414   6.798  0.0630  0.0945 -0.0724
 1051YOPC   C2B13754  18.547  12.705   7.058 -0.1268 -0.1323  0.0008
 1051YOPC   D3B13755  18.437  12.747   7.494 -0.1755  0.0993  0.0532
 1051YOPC   C4B13756  18.499  12.720   7.986 -0.3065 -0.0385  0.3503
 1052YOPC   NC313757  14.994   6.650   6.241  0.4393 -0.1019  0.3877
 1052YOPC   PO413758  15.233   6.340   6.113 -0.0905  0.0637  0.0856
 1052YOPC   GL113759  15.351   6.307   6.481  0.2468 -0.3304 -0.0992
 1052YOPC   GL213760  15.112   6.372   6.834 -0.3974  0.1197  0.1806
 1052YOPC   C1A13761  15.686   6.144   6.821 -0.3137  0.1780 -0.2872
 1052YOPC   D2A13762  16.016   6.180   7.026 -0.1663 -0.0752 -0.1775
 1052YOPC   C3A13763  15.927   6.454   7.381  0.3469 -0.0637 -0.4606
 1052YOPC   C4A13764  15.885   6.876   7.443 -0.1954 -0.0155  0.2017
 1052YOPC   C1B13765  14.946   6.277   7.118 -0.0601 -0.0352 -0.0875
 1052YOPC   C2B13766  14.903   5.868   7.332 -0.0716 -0.0028  0.0767
 1052YOPC   D3B13767  14.869   5.668   7.761  0.1019 -0.1000  0.2070
 1052YOPC   C4B13768  14.644   5.798   8.036  0.1833  0.3185  0.4202
 1053YOPC   NC313769   5.279  13.108   5.106  0.1027 -0.1491  0.2052
 1053YOPC   PO413770   5.168  13.500   5.362 -0.0508 -0.3668  0.4002
 1053YOPC   GL113771   5.068  13.267   5.789 -0.0291  0.3816 -0.2859
 1053YOPC   GL213772   5.183  12.961   5.665  0.1863 -0.0206  0.0119
 1053YOPC   C1A13773   5.226  13.402   6.216 -0.1687  0.2072  0.1862
 1053YOPC   D2A13774   5.227  13.217   6.516 -0.1562 -0.1080 -0.0658
 1053YOPC   C3A13775   5.203  13.313   6.821  0.0567 -0.0723  0.2883
 1053YOPC   C4A13776   5.243  13.385   7.202 -0.1599 -0.1021 -0.0129
 1053YOPC   C1B13777   5.404  12.946   6.006 -0.0908 -0.0446  0.0429
 1053YOPC   C2B13778   5.711  13.207   6.278  0.1562 -0.0439  0.3542
 1053YOPC   D3B13779   5.650  13.184   6.760  0.1452  0.0271  0.0030
 1053YOPC   C4B13780   5.713  13.172   7.113 -0.3754 -0.1691 -0.1649
 1054YOPC   NC313781   5.572  15.992   5.270  0.1930 -0.0218  0.2197
 1054YOPC   PO413782   5.555  16.389   5.018 -0.0029  0.2081 -0.2416
 1054YOPC   GL113783   5.604  16.574   5.351 -0.0319 -0.4329  0.0583
 1054YOPC   GL213784   5.267  16.673   5.294  0.2997 -0.1328  0.1783
 1054YOPC   C1A13785   5.685  16.696   5.832  0.0478  0.0135  0.2371
 1054YOPC   D2A13786   5.693  16.644   6.202 -0.0049  0.1104  0.2618
 1054YOPC   C3A13787   5.642  16.520   6.585 -0.0622  0.0381  0.3026
 1054YOPC   C4A13788   5.677  16.656   6.997 -0.0168 -0.3178 -0.1375
 1054YOPC   C1B13789   5.218  16.918   5.797 -0.0762 -0.0889  0.1754
 1054YOPC   C2B13790   5.159  17.348   5.900  0.1173  0.1673  0.1149
 1054YOPC   D3B13791   4.835  17.643   5.877 -0.0627  0.0036 -0.0631
 1054YOPC   C4B13792   4.611  17.748   5.542 -0.0933  0.2039  0.0932
 1055YOPC   NC313793   6.174   8.105   5.985 -0.0483  0.1661  0.1446
 1055YOPC   PO413794   6.001   7.652   5.995  0.0613 -0.0317 -0.1628
 1055YOPC   GL113795   5.717   7.560   6.341  0.1905  0.0231 -0.0523
 1055YOPC   GL213796   5.711   7.737   6.546  0.0001  0.2058 -0.0622
 1055YOPC   C1A13797   5.422   7.319   6.552  0.1064  0.0330  0.2951
 1055YOPC   D2A13798   5.019   7.066   6.475  0.0321  0.2217  0.3751
 1055YOPC   C3A13799   4.834   6.874   6.821 -0.0433 -0.1399  0.2552
 1055YOPC   C4A13800   5.001   6.521   6.870 -0.1273  0.0272 -0.2445
 1055YOPC   C1B13801   5.807   7.786   6.886  0.5277  0.1819  0.0432
 1055YOPC   C2B13802   5.957   7.837   7.287 -0.0677  0.0569  0.1024
 1055YOPC   D3B13803   5.769   7.782   7.677 -0.1514  0.0455  0.1305
 1055YOPC   C4B13804   5.460   7.749   8.140  0.2913  0.2692 -0.1987
 1056YOPC   NC313805   5.829   4.228   5.771 -0.1264 -0.1342 -0.0511
 1056YOPC   PO413806   5.985   3.704   5.784 -0.3886 -0.1004  0.1199
 1056YOPC   GL113807   6.120   3.589   6.203 -0.0004  0.2530 -0.1629
 1056YOPC   GL213808   6.351   3.383   6.298  0.1495 -0.0018 -0.0450
 1056YOPC   C1A13809   5.706   3.469   6.394  0.1534 -0.1320  0.0766
 1056YOPC   D2A13810   5.371   3.508   6.606  0.1789 -0.1805 -0.4771
 1056YOPC   C3A13811   4.983   3.606   6.742  0.1738 -0.2108 -0.2015
 1056YOPC   C4A13812   4.822   3.763   7.056 -0.1435 -0.2187  0.0418
 1056YOPC   C1B13813   6.054   3.285   6.663  0.2112 -0.0656  0.0767
 1056YOPC   C2B13814   5.809   3.394   6.999 -0.0280 -0.3244  0.4282
 1056YOPC   D3B13815   5.623   3.728   6.969  0.2189 -0.2641  0.2263
 1056YOPC   C4B13816   5.287   4.079   6.890 -0.1322  0.1168  0.2400
 1057YOPC   NC313817   2.648  11.457   5.669  0.2016  0.1142  0.3126
 1057YOPC   PO413818   2.353  11.750   5.671  0.0613 -0.0135 -0.2861
 1057YOPC   GL113819   2.383  11.823   6.057 -0.0059 -0.0378  0.0088
 1057YOPC   GL213820   2.273  12.108   6.103 -0.2449 -0.0500 -0.0935
 1057YOPC   C1A13821   2.638  11.900   6.422  0.0645  0.3132  0.0183
 1057YOPC   D2A13822   2.561  12.134   6.905  0.1497  0.1004  0.0672
 1057YOPC   C3A13823   2.852  12.427   7.031  0.0668  0.1568 -0.0295
 1057YOPC   C4A13824   3.074  12.543   7.418 -0.0820  0.2870 -0.1852
 1057YOPC   C1B13825   2.228  12.167   6.563 -0.1879 -0.3264  0.1305
 1057YOPC   C2B13826   1.906  12.130   6.774 -0.0515 -0.0908  0.1908
 1057YOPC   D3B13827   1.997  12.253   7.126 -0.2655  0.2551  0.2722
 1057YOPC   C4B13828   2.308  12.158   7.349  0.2940 -0.5480 -0.2603
 1058YOPC   NC313829  17.808  18.228   5.979 -0.0307 -0.2205 -0.2027
 1058YOPC   PO413830  17.317  18.089   5.827  0.1771  0.0208 -0.1013
 1058YOPC   GL113831  17.446  17.895   6.229 -0.1483 -0.0125  0.1617
 1058YOPC   GL213832  17.199  17.694   6.390  0.1820 -0.1210 -0.0845
 1058YOPC   C1A13833  17.551  17.920   6.652 -0.2708 -0.0311  0.0935
 1058YOPC   D2A13834  17.610  17.997   7.089  0.0773  0.2937  0.0931
 1058YOPC   C3A13835  17.731  17.830   7.451 -0.1768  0.2141  0.0350
 1058YOPC   C4A13836  18.030  17.741   7.759  0.0270  0.2401  0.3676
 1058YOPC   C1B13837  16.926  17.719   6.730 -0.1100 -0.0405 -0.1396
 1058YOPC   C2B13838  16.731  17.503   6.970 -0.2502 -0.3406 -0.0999
 1058YOPC   D3B13839  16.865  17.508   7.358  0.3407 -0.3148 -0.3450
 1058YOPC   C4B13840  17.174  17.199   7.640  0.4602  0.0350 -0.3668
 1059YOPC   NC313841   5.038   2.691   5.283  0.0506 -0.2715  0.1810
 1059YOPC   PO413842   5.257   2.707   5.793  0.0630 -0.3816  0.2306
 1059YOPC   GL113843   5.168   2.402   6.032 -0.1636 -0.1002 -0.0317
 1059YOPC   GL213844   5.108   2.118   6.040  0.3081  0.0275  0.0145
 1059YOPC   C1A13845   5.098   2.339   6.516  0.6318  0.0503 -0.3340
 1059YOPC   D2A13846   5.099   2.603   6.859  0.2452  0.1110  0.2182
 1059YOPC   C3A13847   5.107   2.435   7.142  0.2149 -0.0287 -0.1137
 1059YOPC   C4A13848   5.227   2.540   7.606  0.0516 -0.0355 -0.0569
 1059YOPC   C1B13849   5.074   1.885   6.309  0.1306 -0.2794  0.0466
 1059YOPC   C2B13850   4.884   1.655   6.610 -0.1812 -0.2294  0.0770
 1059YOPC   D3B13851   4.903   1.191   6.659  0.3143 -0.1276 -0.1657
 1059YOPC   C4B13852   4.958   0.804   6.884 -0.1240 -0.0344  0.1593
 1060YOPC   NC313853   2.911   4.097   6.198  0.1417  0.2152  0.1300
 1060YOPC   PO413854   2.482   4.227   6.262  0.0089 -0.3315 -0.0177
 1060YOPC   GL113855   2.415   3.980   6.733 -0.4673 -0.1466  0.2984
 1060YOPC   GL213856   2.731   3.819   6.758 -0.4481 -0.2649  0.1144
 1060YOPC   C1A13857   2.261   3.788   6.949 -0.1323 -0.0573 -0.1355
 1060YOPC   D2A13858   2.241   3.831   7.369  0.2018  0.3512 -0.1812
 1060YOPC   C3A13859   2.543   3.642   7.636 -0.0319  0.0917  0.1096
 1060YOPC   C4A13860   2.692   3.289   7.814 -0.0193 -0.1599  0.0826
 1060YOPC   C1B13861   2.714   3.724   7.142 -0.0602  0.1844  0.2058
 1060YOPC   C2B13862   2.575   3.207   7.302  0.0806 -0.1389  0.1989
 1060YOPC   D3B13863   2.928   2.945   7.453  0.3432  0.1068  0.2639
 1060YOPC   C4B13864   2.841   2.785   7.906 -0.0398  0.0022  0.2175
 1061YOPC   NC313865   7.717   8.253   5.552 -0.0160  0.0622 -0.3029
 1061YOPC   PO413866   7.906   8.586   5.699  0.2461 -0.3422 -0.2002
 1061YOPC   GL113867   7.613   8.717   6.033 -0.2503 -0.0148 -0.0692
 1061YOPC   GL213868   7.650   9.008   6.101 -0.1443 -0.1103 -0.1333
 1061YOPC   C1A13869   7.412   8.631   6.351 -0.2566 -0.0357 -0.3105
 1061YOPC   D2A13870   7.006   8.726   6.430  0.2973  0.1310 -0.0519
 1061YOPC   C3A13871   6.794   8.936   6.697 -0.1803 -0.2998 -0.3656
 1061YOPC   C4A13872   6.567   8.807   7.073 -0.0195 -0.1186  0.3273
 1061YOPC   C1B13873   7.895   9.346   6.267  0.3543  0.4544 -0.0477
 1061YOPC   C2B13874   8.310   9.268   6.556 -0.1465  0.0908  0.0735
 1061YOPC   D3B13875   8.364   9.298   6.978 -0.0327 -0.0528 -0.1004
 1061YOPC   C4B13876   8.371   8.978   7.278 -0.0430 -0.2279  0.2117
 1062YOPC   NC313877   9.666  15.128   5.583  0.0541  0.0468 -0.0001
 1062YOPC   PO413878   9.264  14.768   5.516 -0.1470 -0.2670  0.1132
 1062YOPC   GL113879   9.142  14.853   5.924  0.3506  0.1321  0.1849
 1062YOPC   GL213880   8.807  14.754   5.928  0.4209  0.1171  0.0432
 1062YOPC   C1A13881   9.266  14.943   6.241  0.1043 -0.0499  0.0615
 1062YOPC   D2A13882   9.536  15.106   6.427 -0.3502 -0.2829  0.1305
 1062YOPC   C3A13883   9.520  15.182   6.800 -0.1088 -0.0452 -0.2815
 1062YOPC   C4A13884   9.612  15.149   7.218  0.0554  0.2062  0.5214
 1062YOPC   C1B13885   8.718  14.658   6.336 -0.0056  0.0017 -0.0515
 1062YOPC   C2B13886   8.408  14.625   6.587 -0.2644  0.1626  0.0904
 1062YOPC   D3B13887   8.363  14.987   6.941  0.0622  0.3141 -0.3385
 1062YOPC   C4B13888   8.664  15.015   7.254  0.1225 -0.1520 -0.2678
 1063YOPC   NC313889  11.451   6.497   5.968 -0.0316  0.0744 -0.2062
 1063YOPC   PO413890  11.730   6.266   5.771  0.2363  0.0371 -0.0910
 1063YOPC   GL113891  11.731   5.986   6.122  0.0468  0.2055  0.0767
 1063YOPC   GL213892  11.644   5.657   6.070 -0.0553 -0.0976 -0.0571
 1063YOPC   C1A13893  11.633   5.893   6.534 -0.2153 -0.4655 -0.1850
 1063YOPC   D2A13894  11.415   5.722   6.895  0.0993 -0.0845 -0.2035
 1063YOPC   C3A13895  11.102   6.019   7.112 -0.0299  0.4376  0.0387
 1063YOPC   C4A13896  10.614   6.113   7.084 -0.3023 -0.3380 -0.2342
 1063YOPC   C1B13897  11.450   5.365   6.426 -0.0574 -0.2553  0.1773
 1063YOPC   C2B13898  11.537   4.963   6.446 -0.0254 -0.0337  0.4220
 1063YOPC   D3B13899  11.908   4.924   6.735  0.3233  0.4134 -0.0908
 1063YOPC   C4B13900  12.250   4.827   6.816  0.1507  0.0270 -0.2500
 1064YOPC   NC313901  18.508   0.061   6.063 -0.1875  0.1354  0.2249
 1064YOPC   PO413902  18.133  -0.060   6.264 -0.0252  0.1620  0.2647
 1064YOPC   GL113903  18.441  -0.252   6.523 -0.1489  0.0570  0.0715
 1064YOPC   GL213904  18.335  -0.186   6.776 -0.0544 -0.2892  0.0670
 1064YOPC   C1A13905  18.704  -0.535   6.837 -0.0853 -0.1342 -0.0051
 1064YOPC   D2A13906  18.787  -0.416   7.227 -0.0865 -0.0675 -0.0007
 1064YOPC   C3A13907  18.983  -0.177   7.600 -0.0634  0.2117 -0.0028
 1064YOPC   C4A13908  19.297   0.089   7.671  0.1232 -0.0124 -0.1027
 1064YOPC   C1B13909  18.446   0.050   7.021 -0.1305  0.1960  0.0836
 1064YOPC   C2B13910  18.511  -0.028   7.432  0.2332  0.0899  0.3312
 1064YOPC   D3B13911  18.343   0.160   7.657  0.3358 -0.0680 -0.0903
 1064YOPC   C4B13912  18.104   0.167   7.977 -0.0002 -0.1894 -0.0477
 1065YOPC   NC313913   3.707   3.951   6.100  0.1086  0.2147  0.1362
 1065YOPC   PO413914   3.373   4.330   6.158  0.0215 -0.2278  0.1081
 1065YOPC   GL113915   3.552   4.176   6.567 -0.0135  0.1844 -0.1804
 1065YOPC   GL213916   3.605   4.509   6.723 -0.0952 -0.0275  0.0410
 1065YOPC   C1A13917   3.866   4.052   6.991 -0.4721  0.2489 -0.0458
 1065YOPC   D2A13918   3.906   4.063   7.460  0.3014 -0.1184  0.2232
 1065YOPC   C3A13919   3.514   4.038   7.717 -0.2305  0.2332 -0.1515
 1065YOPC   C4A13920   3.141   4.216   8.062 -0.0423 -0.3444 -0.0289
 1065YOPC   C1B13921   3.622   4.516   7.182  0.3991  0.1226  0.1162
 1065YOPC   C2B13922   3.585   4.753   7.462  0.2602  0.1566 -0.0393
 1065YOPC   D3B13923   3.862   4.502   7.691  0.2014  0.0636  0.2701
 1065YOPC   C4B13924   3.766   4.281   8.022  0.0649  0.0602 -0.1084
 1066YOPC   NC313925   2.487   2.321   5.992 -0.1976 -0.0694  0.2675
 1066YOPC   PO413926   2.903   2.430   5.908 -0.2948  0.2327  0.0556
 1066YOPC   GL113927   2.995   2.505   6.287 -0.1602  0.0706 -0.1092
 1066YOPC   GL213928   2.671   2.540   6.400 -0.1785  0.1443 -0.0229
 1066YOPC   C1A13929   3.056   2.459   6.701 -0.0264 -0.1286  0.0715
 1066YOPC   D2A13930   2.926   2.212   7.116 -0.0429  0.0987  0.3685
 1066YOPC   C3A13931   2.660   2.469   7.417 -0.0155 -0.1954  0.0299
 1066YOPC   C4A13932   2.392   2.663   7.818  0.2529 -0.0231 -0.1912
 1066YOPC   C1B13933   2.562   2.340   6.733  0.0279 -0.1376 -0.0797
 1066YOPC   C2B13934   2.378   2.187   7.098 -0.1807  0.1896 -0.0217
 1066YOPC   D3B13935   2.570   1.922   7.321 -0.2146  0.2300 -0.0101
 1066YOPC   C4B13936   2.665   1.752   7.757 -0.2131 -0.0941  0.2979
 1067YOPC   NC313937  18.537  11.102   6.152 -0.0782  0.3438 -0.2013
 1067YOPC   PO413938  18.797  11.476   6.248 -0.1757 -0.0264 -0.1375
 1067YOPC   GL113939  18.659  11.593   6.564 -0.0806 -0.2224  0.0005
 1067YOPC   GL213940  18.770  11.602   6.891 -0.2095 -0.1456  0.0639
 1067YOPC   C1A13941  18.314  11.535   6.918  0.0246  0.1471 -0.2884
 1067YOPC   D2A13942  18.011  11.681   7.165  0.5090  0.1741  0.2871
 1067YOPC   C3A13943  17.927  12.159   7.032  0.1064 -0.2461 -0.2690
 1067YOPC   C4A13944  18.043  12.448   7.296 -0.0308 -0.1301 -0.2952
 1067YOPC   C1B13945  19.026  11.581   7.221 -0.0441 -0.1519 -0.0818
 1067YOPC   C2B13946  19.424  11.609   7.555 -0.1865 -0.0174  0.0730
 1067YOPC   D3B13947  19.302  11.790   7.913 -0.0177 -0.1272 -0.2066
 1067YOPC   C4B13948  18.963  12.069   8.054  0.4257  0.2790 -0.1564
 1068YOPC   NC313949   0.636  13.476   5.627  0.3514 -0.1739  0.3174
 1068YOPC   PO413950   0.708  13.964   5.873  0.1580  0.2156 -0.3325
 1068YOPC   GL113951   0.721  13.827   6.254 -0.0830 -0.0422 -0.4211
 1068YOPC   GL213952   0.789  13.468   6.206  0.1084 -0.0163 -0.0388
 1068YOPC   C1A13953   0.821  13.791   6.652  0.1988 -0.0294 -0.1414
 1068YOPC   D2A13954   0.884  13.884   7.097 -0.3916  0.3627  0.2078
 1068YOPC   C3A13955   0.892  13.784   7.521  0.3516  0.0083 -0.0074
 1068YOPC   C4A13956   0.856  13.835   7.945 -0.2740 -0.0926 -0.2791
 1068YOPC   C1B13957   0.570  13.302   6.604  0.0818  0.0559 -0.3245
 1068YOPC   C2B13958   0.835  13.316   7.000 -0.1558  0.1519 -0.2656
 1068YOPC   D3B13959   0.755  13.275   7.302  0.3111 -0.2711 -0.0358
 1068YOPC   C4B13960   0.876  13.297   7.747 -0.2684  0.0269 -0.0161
 1069YOPC   NC313961  11.828  15.045   5.494  0.1056 -0.1791 -0.2245
 1069YOPC   PO413962  11.570  14.722   5.350  0.0247  0.2344 -0.2084
 1069YOPC   GL113963  11.676  14.258   5.472 -0.1233  0.0266  0.1783
 1069YOPC   GL213964  11.924  14.132   5.573  0.2450 -0.1657 -0.0557
 1069YOPC   C1A13965  11.761  14.248   5.988 -0.1368 -0.0532  0.1619
 1069YOPC   D2A13966  11.579  13.945   6.224 -0.1315 -0.1434  0.0313
 1069YOPC   C3A13967  11.497  13.477   6.251 -0.1420 -0.0282 -0.1308
 1069YOPC   C4A13968  11.623  13.188   6.380  0.2498 -0.0437 -0.2507
 1069YOPC   C1B13969  12.281  14.330   5.738  0.1665 -0.3161 -0.1285
 1069YOPC   C2B13970  12.316  14.632   6.052  0.4053  0.1706  0.0157
 1069YOPC   D3B13971  12.761  14.682   6.172 -0.4284  0.2263  0.1074
 1069YOPC   C4B13972  12.959  14.301   6.286 -0.2551  0.4395 -0.4673
 1070YOPC   NC313973  18.455   9.673   6.676  0.0348 -0.0342  0.1004
 1070YOPC   PO413974  18.887   9.745   6.355  0.1202 -0.4379  0.0835
 1070YOPC   GL113975  18.864   9.888   6.793  0.0161 -0.4181  0.0356
 1070YOPC   GL213976  18.688   9.758   7.097 -0.2092 -0.0189 -0.1771
 1070YOPC   C1A13977  18.931  10.201   7.100  0.1425 -0.1473  0.5082
 1070YOPC   D2A13978  19.039   9.980   7.504 -0.0380 -0.1010 -0.2997
 1070YOPC   C3A13979  18.980   9.595   7.543  0.0326 -0.1001  0.0148
 1070YOPC   C4A13980  18.669   9.107   7.530 -0.0803  0.1314 -0.1427
 1070YOPC   C1B13981  18.445   9.628   7.340  0.2188  0.1952  0.1478
 1070YOPC   C2B13982  18.124   9.732   7.583 -0.1377  0.0784 -0.2235
 1070YOPC   D3B13983  18.197   9.880   8.024  0.0414 -0.0599 -0.0269
 1070YOPC   C4B13984  18.555   9.769   8.278  0.0323  0.1854  0.0678
 1071YOPC   NC313985   6.492   2.058   5.713 -0.3495 -0.0534  0.1305
 1071YOPC   PO413986   6.785   1.778   5.720 -0.1687  0.2547 -0.3908
 1071YOPC   GL113987   6.617   1.687   6.097  0.4523 -0.1437  0.3716
 1071YOPC   GL213988   6.630   1.966   6.153 -0.0766 -0.0429 -0.0928
 1071YOPC   C1A13989   6.581   1.620   6.598 -0.0064 -0.0820 -0.3693
 1071YOPC   D2A13990   6.715   1.815   6.938 -0.0022 -0.0509 -0.0578
 1071YOPC   C3A13991   6.540   1.851   7.239  0.2888  0.0623 -0.1299
 1071YOPC   C4A13992   6.575   1.710   7.693 -0.1759 -0.0905 -0.2639
 1071YOPC   C1B13993   6.871   1.984   6.479  0.0491  0.0652 -0.1563
 1071YOPC   C2B13994   7.259   2.220   6.700  0.1793 -0.2536 -0.2871
 1071YOPC   D3B13995   7.359   2.107   7.062 -0.0175 -0.0718 -0.0136
 1071YOPC   C4B13996   7.095   1.894   7.276  0.2815 -0.0130 -0.0253
 1072YOPC   NC313997  13.817   9.383   6.013 -0.0808  0.0201  0.0892
 1072YOPC   PO413998  13.767   9.831   5.951  0.0296  0.1423  0.1135
 1072YOPC   GL113999  13.601   9.977   6.352 -0.2252  0.2038  0.0166
 1072YOPC   GL214000  13.272   9.960   6.517  0.2829  0.0393 -0.2019
 1072YOPC   C1A14001  13.708  10.077   6.806  0.0565  0.1714 -0.1410
 1072YOPC   D2A14002  13.739  10.280   7.176 -0.1627  0.1843 -0.1655
 1072YOPC   C3A14003  13.833  10.249   7.623  0.1279 -0.2617 -0.0670
 1072YOPC   C4A14004  13.802  10.261   8.043 -0.3614 -0.0218  0.2300
 1072YOPC   C1B14005  13.309   9.779   6.919 -0.1780 -0.1356  0.2682
 1072YOPC   C2B14006  13.416   9.915   7.379 -0.4356  0.0052  0.4045
 1072YOPC   D3B14007  13.180   9.746   7.734 -0.2206 -0.0164  0.2614
 1072YOPC   C4B14008  13.316   9.849   8.213  0.1854  0.1287 -0.2219
 1073YOPC   NC314009  11.528  10.186   6.020 -0.1338  0.1243  0.0156
 1073YOPC   PO414010  11.824   9.741   6.068 -0.2088  0.0125 -0.1705
 1073YOPC   GL114011  11.891   9.797   6.453 -0.0177  0.0561  0.0027
 1073YOPC   GL214012  11.973   9.476   6.491 -0.0908 -0.0928  0.1455
 1073YOPC   C1A14013  11.946   9.697   6.979 -0.1731 -0.1441 -0.1354
 1073YOPC   D2A14014  11.957   9.825   7.371  0.0045  0.3366 -0.0768
 1073YOPC   C3A14015  11.671   9.793   7.638 -0.3761 -0.2804 -0.0816
 1073YOPC   C4A14016  11.477   9.567   7.919  0.0996 -0.0649  0.0162
 1073YOPC   C1B14017  11.704   9.281   6.743 -0.3640 -0.4518  0.2749
 1073YOPC   C2B14018  11.680   9.376   7.184  0.2186 -0.1687  0.0793
 1073YOPC   D3B14019  11.434   9.311   7.517 -0.2488  0.1697 -0.1524
 1073YOPC   C4B14020  11.233   9.120   7.802  0.5867 -0.1671 -0.1538
 1074YOPC   NC314021   0.940   2.784   6.457  0.3231 -0.1144  0.0293
 1074YOPC   PO414022   0.526   2.686   6.602 -0.2377  0.0839 -0.0287
 1074YOPC   GL114023   0.399   2.599   6.943  0.0592 -0.1677  0.1320
 1074YOPC   GL214024   0.198   2.355   7.005 -0.0328 -0.1310  0.2496
 1074YOPC   C1A14025   0.545   2.548   7.268 -0.2156  0.0931 -0.0399
 1074YOPC   D2A14026   0.979   2.427   7.448 -0.1860 -0.1856  0.0601
 1074YOPC   C3A14027   0.995   2.504   8.004 -0.1544 -0.1616 -0.1580
 1074YOPC   C4A14028   0.696   2.695   8.237 -0.3182 -0.1600  0.3708
 1074YOPC   C1B14029   0.077   2.421   7.411  0.0081 -0.0830 -0.2545
 1074YOPC   C2B14030   0.008   2.714   7.735 -0.0016  0.0753 -0.3580
 1074YOPC   D3B14031   0.051   2.697   8.139  0.1467  0.1609  0.0976
 1074YOPC   C4B14032   0.022   2.812   8.522  0.3057  0.0429 -0.2035
 1075YOPC   NC314033  18.349  13.335   6.028  0.2437 -0.0352 -0.3889
 1075YOPC   PO414034  18.163  12.930   5.783 -0.3370 -0.2029  0.3894
 1075YOPC   GL114035  18.306  12.806   6.237  0.2073 -0.0074  0.0400
 1075YOPC   GL214036  18.064  12.931   6.289  0.0063 -0.0701  0.3198
 1075YOPC   C1A14037  18.596  12.668   6.521 -0.1906 -0.0463  0.2684
 1075YOPC   D2A14038  18.991  12.847   6.705 -0.1779 -0.4143  0.1376
 1075YOPC   C3A14039  19.099  12.772   7.141  0.2355 -0.1514 -0.2639
 1075YOPC   C4A14040  19.081  12.679   7.559  0.0294  0.2270  0.4230
 1075YOPC   C1B14041  18.153  12.944   6.673  0.4445 -0.0241  0.2372
 1075YOPC   C2B14042  18.132  13.180   7.206 -0.1256  0.1226  0.0638
 1075YOPC   D3B14043  17.972  12.923   7.609  0.3316  0.3341 -0.0659
 1075YOPC   C4B14044  18.058  12.749   8.051 -0.1813  0.1241 -0.0147
 1076YOPC   NC314045   5.743  18.283   5.385  0.0188  0.3063 -0.1066
 1076YOPC   PO414046   5.433  17.997   5.422 -0.0906 -0.1257  0.0798
 1076YOPC   GL114047   5.164  18.073   5.752 -0.0535 -0.0266 -0.0460
 1076YOPC   GL214048   5.363  18.370   5.893  0.0068  0.2904  0.0474
 1076YOPC   C1A14049   4.808  18.236   5.862 -0.3512 -0.1152  0.0898
 1076YOPC   D2A14050   4.516  18.141   6.115 -0.0338  0.1813  0.2385
 1076YOPC   C3A14051   4.137  17.887   5.871 -0.1049  0.1227  0.1198
 1076YOPC   C4A14052   3.829  17.745   5.698  0.0574  0.0151 -0.2681
 1076YOPC   C1B14053   5.122  18.053   6.250 -0.0438 -0.0205 -0.0966
 1076YOPC   C2B14054   4.735  17.795   6.372 -0.3993 -0.1279 -0.0947
 1076YOPC   D3B14055   4.572  17.572   6.770  0.2573 -0.1272 -0.4039
 1076YOPC   C4B14056   4.488  17.546   7.098  0.1904 -0.1138 -0.0603
 1077YOPC   NC314057   8.907  17.815   5.400 -0.0857  0.2153 -0.2080
 1077YOPC   PO414058   8.435  17.972   5.418  0.1864 -0.2905  0.1018
 1077YOPC   GL114059   8.247  17.856   5.737  0.1587 -0.3291  0.1387
 1077YOPC   GL214060   8.021  17.637   5.849  0.0112 -0.3165  0.1360
 1077YOPC   C1A14061   8.257  17.941   6.186 -0.0467 -0.1348  0.0884
 1077YOPC   D2A14062   8.196  17.835   6.594 -0.0973 -0.3074 -0.1150
 1077YOPC   C3A14063   8.240  17.463   6.828  0.3947 -0.1744  0.0682
 1077YOPC   C4A14064   8.365  17.290   7.303  0.1903 -0.0127  0.1221
 1077YOPC   C1B14065   7.856  17.553   6.257 -0.2592  0.0941  0.1171
 1077YOPC   C2B14066   7.929  17.179   6.544 -0.2347 -0.3944 -0.0757
 1077YOPC   D3B14067   7.530  17.201   6.772 -0.1139 -0.0323 -0.2775
 1077YOPC   C4B14068   7.355  17.493   6.952 -0.1373  0.0125  0.0576
 1078YOPC   NC314069  18.512   7.401   6.531  0.2279 -0.0321 -0.1027
 1078YOPC   PO414070  18.558   6.917   6.373  0.1264 -0.0698 -0.0633
 1078YOPC   GL114071  18.441   6.818   6.780  0.1325  0.1034  0.2839
 1078YOPC   GL214072  18.089   6.851   6.826 -0.3367  0.0426  0.0811
 1078YOPC   C1A14073  18.524   6.855   7.260  0.0813 -0.0379 -0.1544
 1078YOPC   D2A14074  18.652   6.743   7.676  0.3230 -0.1113 -0.0568
 1078YOPC   C3A14075  18.798   6.628   8.088 -0.3150 -0.3876 -0.0887
 1078YOPC   C4A14076  18.945   6.216   8.266 -0.1410  0.1691 -0.0664
 1078YOPC   C1B14077  17.994   6.944   7.193 -0.1820 -0.0055  0.1832
 1078YOPC   C2B14078  17.802   7.072   7.604 -0.0358 -0.0820  0.2450
 1078YOPC   D3B14079  18.010   7.038   7.913  0.1151  0.2893  0.0237
 1078YOPC   C4B14080  18.113   6.996   8.355 -0.0734  0.0500 -0.0414
 1079YOPC   NC314081  10.577   0.099   5.391 -0.0497  0.2469 -0.2378
 1079YOPC   PO414082  11.004   0.336   5.519  0.1247  0.1659  0.1326
 1079YOPC   GL114083  11.073   0.315   5.984  0.0109  0.3037  0.2807
 1079YOPC   GL214084  11.241   0.429   6.095 -0.0485 -0.0586 -0.2165
 1079YOPC   C1A14085  10.750   0.305   6.376 -0.1068 -0.1259 -0.1913
 1079YOPC   D2A14086  10.751   0.141   6.787 -0.1089  0.1252  0.2330
 1079YOPC   C3A14087  10.703   0.172   7.326 -0.0379 -0.0154  0.0291
 1079YOPC   C4A14088  10.876   0.378   7.681 -0.2254  0.0953 -0.1165
 1079YOPC   C1B14089  11.243   0.163   6.473  0.2546  0.2731 -0.0406
 1079YOPC   C2B14090  11.214  -0.067   6.850 -0.0864  0.1344 -0.4104
 1079YOPC   D3B14091  11.075  -0.247   7.352  0.4044 -0.0065 -0.2054
 1079YOPC   C4B14092  11.091  -0.584   7.495  0.1624  0.2386 -0.1392
 1080YOPC   NC314093  11.508  11.022   5.925  0.3012  0.0658  0.0040
 1080YOPC   PO414094  11.067  11.022   6.081 -0.0845 -0.1732 -0.2667
 1080YOPC   GL114095  10.873  11.134   6.419 -0.2061  0.1494  0.0330
 1080YOPC   GL214096  10.768  10.863   6.577 -0.0111  0.1292 -0.1002
 1080YOPC   C1A14097  10.911  11.379   6.748 -0.0053 -0.1370  0.1278
 1080YOPC   D2A14098  10.739  11.450   7.139  0.3150 -0.3052 -0.0898
 1080YOPC   C3A14099  10.862  11.842   7.347 -0.1652  0.1611  0.0465
 1080YOPC   C4A14100  10.947  12.122   7.700  0.1434  0.1617 -0.0685
 1080YOPC   C1B14101  10.519  11.015   6.930 -0.1405  0.2646  0.2701
 1080YOPC   C2B14102  10.431  10.935   7.235  0.0182  0.1930  0.1276
 1080YOPC   D3B14103  10.292  11.103   7.439 -0.1636  0.0213  0.1611
 1080YOPC   C4B14104  10.062  11.427   7.300  0.2834  0.4726  0.1318
 1081YOPC   NC314105  17.940  11.575   5.733 -0.0700  0.0586  0.0001
 1081YOPC   PO414106  18.152  11.939   6.048  0.1792 -0.1023 -0.2286
 1081YOPC   GL114107  18.290  12.018   6.383  0.3268 -0.0120 -0.0806
 1081YOPC   GL214108  18.169  11.925   6.581  0.0172  0.3521  0.0989
 1081YOPC   C1A14109  18.630  12.220   6.516 -0.2440 -0.0476 -0.1142
 1081YOPC   D2A14110  18.783  12.345   6.924 -0.1952 -0.1664 -0.1150
 1081YOPC   C3A14111  18.720  12.291   7.341  0.3207  0.3182  0.2133
 1081YOPC   C4A14112  18.647  12.314   7.767 -0.0169 -0.1586  0.1366
 1081YOPC   C1B14113  18.354  12.027   7.120 -0.2295 -0.2276  0.3041
 1081YOPC   C2B14114  18.357  11.987   7.535  0.2476  0.1668  0.0151
 1081YOPC   D3B14115  18.852  11.877   7.621 -0.1586  0.4695  0.0668
 1081YOPC   C4B14116  18.942  11.406   7.780 -0.1362  0.3916  0.1039
 1082YOPC   NC314117  16.513   1.134   6.415 -0.0428  0.0741  0.0743
 1082YOPC   PO414118  16.858   1.086   6.352  0.2158  0.1737  0.2916
 1082YOPC   GL114119  16.876   0.814   6.720 -0.1802  0.2875 -0.2580
 1082YOPC   GL214120  17.046   0.502   6.754 -0.2832 -0.0040 -0.2081
 1082YOPC   C1A14121  16.554   0.782   7.089  0.2937 -0.1518 -0.0245
 1082YOPC   D2A14122  16.237   0.625   7.374  0.3575 -0.1436 -0.2463
 1082YOPC   C3A14123  16.283   0.196   7.435  0.0109 -0.1269  0.0501
 1082YOPC   C4A14124  16.645  -0.098   7.498  0.2112  0.1560 -0.0656
 1082YOPC   C1B14125  17.259   0.131   6.720 -0.0077  0.0471 -0.0294
 1082YOPC   C2B14126  17.171  -0.337   6.758 -0.1703  0.2849  0.2219
 1082YOPC   D3B14127  17.093  -0.558   7.167 -0.0680 -0.1082  0.1483
 1082YOPC   C4B14128  16.932  -0.505   7.628  0.1638 -0.1115  0.4315
 1083YOPC   NC314129  15.968   1.757   6.076 -0.2214 -0.3177 -0.1201
 1083YOPC   PO414130  15.541   1.555   6.218  0.0506 -0.0772  0.2160
 1083YOPC   GL114131  15.755   1.407   6.581 -0.1009 -0.1795 -0.2981
 1083YOPC   GL214132  16.034   1.132   6.646 -0.0723 -0.2445 -0.0669
 1083YOPC   C1A14133  15.814   1.330   7.099  0.1030  0.2891 -0.0092
 1083YOPC   D2A14134  15.836   1.412   7.498 -0.0371  0.0564 -0.3861
 1083YOPC   C3A14135  15.533   1.084   7.698  0.2548  0.1369  0.1626
 1083YOPC   C4A14136  15.470   0.986   8.113  0.1044 -0.0607  0.0752
 1083YOPC   C1B14137  16.005   0.840   6.950  0.1260 -0.0067  0.1014
 1083YOPC   C2B14138  15.778   0.861   7.347 -0.0733  0.2203  0.0436
 1083YOPC   D3B14139  15.915   0.739   7.785 -0.0365  0.2040 -0.1702
 1083YOPC   C4B14140  15.868   0.443   8.150  0.3838 -0.0646 -0.0783
 1084YOPC   NC314141   6.246  11.153   5.321 -0.0167 -0.2421  0.0786
 1084YOPC   PO414142   5.968  11.506   5.183  0.0857 -0.0151  0.0589
 1084YOPC   GL114143   5.931  11.683   5.609 -0.2563  0.1178 -0.1594
 1084YOPC   GL214144   6.048  11.981   5.566 -0.0809 -0.0733 -0.1642
 1084YOPC   C1A14145   5.677  11.661   6.101 -0.1780 -0.3057  0.1457
 1084YOPC   D2A14146   5.425  11.819   6.385 -0.0606  0.1515  0.3149
 1084YOPC   C3A14147   5.321  11.755   6.835 -0.2531  0.4406  0.0483
 1084YOPC   C4A14148   5.588  11.834   7.167 -0.0047 -0.1444 -0.0646
 1084YOPC   C1B14149   6.167  11.754   6.053  0.5777 -0.2759 -0.0859
 1084YOPC   C2B14150   6.144  11.724   6.499 -0.0411  0.1855  0.3470
 1084YOPC   D3B14151   6.412  11.878   6.865 -0.4304  0.0078 -0.4084
 1084YOPC   C4B14152   6.499  12.124   7.228 -0.2015  0.1176  0.2334
 1085YOPC   NC314153   5.827   1.691   5.711  0.0778 -0.2271 -0.0900
 1085YOPC   PO414154   5.290   1.745   5.695  0.0270  0.2491  0.2062
 1085YOPC   GL114155   5.446   1.645   6.011  0.0343 -0.4764  0.0395
 1085YOPC   GL214156   5.728   1.583   6.260 -0.1103 -0.1864  0.1632
 1085YOPC   C1A14157   5.287   1.406   6.425  0.1363 -0.1194  0.1154
 1085YOPC   D2A14158   5.332   1.515   6.847 -0.1237  0.1779 -0.0721
 1085YOPC   C3A14159   5.092   1.419   7.126  0.1183 -0.1225  0.2227
 1085YOPC   C4A14160   4.709   1.405   7.141  0.0045 -0.1199  0.0855
 1085YOPC   C1B14161   5.758   1.608   6.666 -0.0725 -0.0618  0.0834
 1085YOPC   C2B14162   5.709   1.859   7.075 -0.1332 -0.4266 -0.1097
 1085YOPC   D3B14163   5.421   1.712   7.383  0.1306  0.0879 -0.2376
 1085YOPC   C4B14164   5.226   1.489   7.767  0.0789  0.1394 -0.1677
 1086YOPC   NC314165  13.971   7.207   5.756 -0.1739  0.0375  0.2261
 1086YOPC   PO414166  14.238   7.373   6.106  0.2634 -0.0347  0.1860
 1086YOPC   GL114167  13.999   7.471   6.404  0.4251 -0.1430  0.1541
 1086YOPC   GL214168  14.018   7.852   6.375  0.0908  0.0932  0.1625
 1086YOPC   C1A14169  14.117   7.578   6.814  0.0772 -0.3200  0.0476
 1086YOPC   D2A14170  14.307   7.793   7.166  0.0150 -0.0627  0.1046
 1086YOPC   C3A14171  14.441   7.527   7.424  0.3688  0.2367 -0.1595
 1086YOPC   C4A14172  14.247   7.296   7.749 -0.1024  0.0451  0.2745
 1086YOPC   C1B14173  14.455   7.881   6.635  0.2323 -0.2048  0.1217
 1086YOPC   C2B14174  14.827   7.729   6.919 -0.0707 -0.0310  0.1773
 1086YOPC   D3B14175  14.861   7.728   7.330  0.1063 -0.0216 -0.1451
 1086YOPC   C4B14176  15.041   7.664   7.801  0.0309  0.0959  0.0958
 1087YOPC   NC314177   5.526   3.503   5.745 -0.1666 -0.1326  0.1104
 1087YOPC   PO414178   5.486   3.930   5.952 -0.3098 -0.1670 -0.0672
 1087YOPC   GL114179   5.726   3.968   6.313 -0.2445 -0.3417 -0.1754
 1087YOPC   GL214180   5.630   4.125   6.480  0.1010 -0.0467 -0.0603
 1087YOPC   C1A14181   6.057   3.805   6.645 -0.0063  0.1024  0.0126
 1087YOPC   D2A14182   6.183   3.673   7.112  0.0578 -0.0405  0.0090
 1087YOPC   C3A14183   6.497   3.824   7.312 -0.0481 -0.1018 -0.0417
 1087YOPC   C4A14184   6.669   4.064   7.681 -0.0628 -0.1398  0.2023
 1087YOPC   C1B14185   5.837   4.259   6.826 -0.2858  0.1983 -0.0701
 1087YOPC   C2B14186   5.884   4.075   7.325  0.2731 -0.0310  0.0432
 1087YOPC   D3B14187   5.820   3.687   7.539  0.1989  0.0066 -0.2287
 1087YOPC   C4B14188   5.929   3.527   7.873  0.0086  0.1022 -0.0574
 1088YOPC   NC314189  11.316  12.699   4.983 -0.0400 -0.1819 -0.3257
 1088YOPC   PO414190  11.077  12.823   5.448 -0.2328 -0.0739  0.0899
 1088YOPC   GL114191  11.157  12.834   5.852 -0.2721  0.2420 -0.2025
 1088YOPC   GL214192  11.453  13.032   5.903  0.2696 -0.0128 -0.0729
 1088YOPC   C1A14193  11.182  12.881   6.298 -0.0349 -0.0919 -0.1570
 1088YOPC   D2A14194  11.156  12.956   6.757  0.3281 -0.0439 -0.0995
 1088YOPC   C3A14195  11.223  12.669   7.207  0.0545  0.3072 -0.1829
 1088YOPC   C4A14196  11.409  12.392   7.518 -0.2494 -0.1978 -0.0767
 1088YOPC   C1B14197  11.778  12.755   6.149 -0.0024 -0.2050 -0.1244
 1088YOPC   C2B14198  11.850  12.419   6.467 -0.1626  0.2646 -0.0965
 1088YOPC   D3B14199  11.877  12.292   6.973  0.0878 -0.0574 -0.3060
 1088YOPC   C4B14200  11.930  12.144   7.473  0.0053  0.1964 -0.2007
 1089YOPC   NC314201  17.344   2.569   5.826  0.0737 -0.3364  0.2976
 1089YOPC   PO414202  17.489   2.671   6.216  0.0040 -0.1376  0.0664
 1089YOPC   GL114203  17.366   2.652   6.616  0.1719  0.2576  0.1315
 1089YOPC   GL214204  17.139   2.384   6.691 -0.2870  0.0561  0.3030
 1089YOPC   C1A14205  17.489   2.841   6.941 -0.0491 -0.0683 -0.2241
 1089YOPC   D2A14206  17.247   2.909   7.243 -0.1650  0.0958  0.1169
 1089YOPC   C3A14207  17.297   2.975   7.672  0.6747 -0.4122 -0.0905
 1089YOPC   C4A14208  17.569   3.143   8.085  0.3028 -0.0881 -0.1756
 1089YOPC   C1B14209  17.262   2.431   7.087 -0.0723 -0.0330 -0.1554
 1089YOPC   C2B14210  17.200   2.456   7.535  0.0056 -0.0309  0.0072
 1089YOPC   D3B14211  16.892   2.717   7.759 -0.0021  0.0058 -0.3842
 1089YOPC   C4B14212  16.508   2.775   7.886 -0.2954  0.0659  0.1333
 1090YOPC   NC314213   8.929   0.050   5.586 -0.0822  0.0025 -0.1888
 1090YOPC   PO414214   9.040  -0.375   5.657 -0.0683 -0.1804  0.2542
 1090YOPC   GL114215   8.746  -0.493   6.051 -0.1594 -0.1186  0.0250
 1090YOPC   GL214216   8.481  -0.310   5.897 -0.0809  0.1784 -0.2367
 1090YOPC   C1A14217   8.644  -0.554   6.476 -0.1756  0.2554  0.0243
 1090YOPC   D2A14218   8.549  -0.343   6.850  0.2278  0.1880  0.0257
 1090YOPC   C3A14219   8.843  -0.156   7.154 -0.1688 -0.1782 -0.2455
 1090YOPC   C4A14220   9.054  -0.056   7.433 -0.0784 -0.0251 -0.0221
 1090YOPC   C1B14221   8.487  -0.087   6.234 -0.0151  0.2817  0.0096
 1090YOPC   C2B14222   8.765  -0.039   6.512  0.3727  0.0177 -0.0386
 1090YOPC   D3B14223   8.858   0.215   6.896  0.0633  0.3206 -0.3121
 1090YOPC   C4B14224   8.644   0.365   7.298  0.4138 -0.1124  0.4569
 1091YOPC   NC314225   3.485  17.440   5.279  0.0503 -0.0726  0.4177
 1091YOPC   PO414226   3.258  17.852   5.339  0.3916  0.0739  0.1187
 1091YOPC   GL114227   3.249  17.869   5.771 -0.0156  0.2632  0.0927
 1091YOPC   GL214228   3.466  17.631   6.088 -0.0707  0.1560  0.1875
 1091YOPC   C1A14229   3.160  18.181   6.138  0.1829 -0.1321  0.0712
 1091YOPC   D2A14230   3.208  18.282   6.508 -0.2605  0.0567 -0.1484
 1091YOPC   C3A14231   3.555  18.328   6.773  0.1283 -0.1127  0.0621
 1091YOPC   C4A14232   4.029  18.211   6.975 -0.1025  0.1107  0.3997
 1091YOPC   C1B14233   3.179  17.786   6.448 -0.1135 -0.2472 -0.0567
 1091YOPC   C2B14234   3.120  17.910   6.932 -0.4601 -0.2658  0.1245
 1091YOPC   D3B14235   3.433  18.067   7.242 -0.1613 -0.2451  0.1084
 1091YOPC   C4B14236   3.812  18.036   7.506 -0.0378 -0.4326 -0.0758
 1092YOPC   NC314237   6.359  13.461   4.687 -0.1569 -0.2358 -0.2124
 1092YOPC   PO414238   6.808  13.435   4.960 -0.2470 -0.2563 -0.2121
 1092YOPC   GL114239   6.887  13.503   5.437 -0.0201 -0.0409  0.1541
 1092YOPC   GL214240   7.153  13.482   5.674  0.1812  0.1610  0.0751
 1092YOPC   C1A14241   6.482  13.692   5.698 -0.1137 -0.1785  0.0995
 1092YOPC   D2A14242   6.599  13.655   6.163  0.0366  0.2232  0.1133
 1092YOPC   C3A14243   6.876  13.844   6.293  0.0014  0.1845 -0.0800
 1092YOPC   C4A14244   7.017  13.687   6.547  0.0067 -0.3301  0.1246
 1092YOPC   C1B14245   6.939  13.884   5.808 -0.2885  0.0478 -0.0942
 1092YOPC   C2B14246   6.528  14.076   5.931  0.3597 -0.0245 -0.0366
 1092YOPC   D3B14247   6.424  14.082   6.365 -0.0598  0.0761  0.1494
 1092YOPC   C4B14248   6.521  13.887   6.646 -0.1648  0.3885 -0.2287
 1093YOPC   NC314249  13.646   4.198   5.718 -0.0507 -0.0351  0.0023
 1093YOPC   PO414250  13.219   4.524   5.608 -0.0671 -0.1257 -0.1459
 1093YOPC   GL114251  13.000   4.734   5.954  0.1218  0.0558 -0.0414
 1093YOPC   GL214252  12.867   5.056   6.156 -0.2348 -0.0901  0.0383
 1093YOPC   C1A14253  12.842   4.522   6.276  0.2696 -0.1237  0.0702
 1093YOPC   D2A14254  12.471   4.418   6.523  0.2160  0.0388  0.2846
 1093YOPC   C3A14255  12.535   4.333   6.833 -0.2994 -0.2516  0.5404
 1093YOPC   C4A14256  12.750   4.286   7.249  0.0624  0.2764 -0.3871
 1093YOPC   C1B14257  12.701   4.969   6.540  0.1018  0.2038 -0.1258
 1093YOPC   C2B14258  12.815   4.710   6.888 -0.2899  0.4395  0.2457
 1093YOPC   D3B14259  12.542   4.753   7.273  0.0371 -0.0799  0.1268
 1093YOPC   C4B14260  12.337   4.763   7.662 -0.2924  0.3316 -0.2453
 1094YOPC   NC314261   7.374   2.826   5.788  0.0366 -0.2864  0.0137
 1094YOPC   PO414262   7.453   2.424   5.868 -0.0178 -0.2317  0.3318
 1094YOPC   GL114263   7.532   2.190   6.152  0.2851 -0.0720  0.4429
 1094YOPC   GL214264   7.668   1.896   6.033 -0.0289  0.1146 -0.1647
 1094YOPC   C1A14265   7.703   2.211   6.567  0.1580 -0.1717  0.0648
 1094YOPC   D2A14266   7.830   2.224   6.996 -0.0517 -0.0841  0.0253
 1094YOPC   C3A14267   7.950   1.951   7.114  0.2826 -0.0781 -0.4187
 1094YOPC   C4A14268   7.987   1.644   7.444 -0.0360 -0.0908  0.1660
 1094YOPC   C1B14269   7.934   1.744   6.379 -0.0960  0.2532  0.1686
 1094YOPC   C2B14270   8.036   1.626   6.763  0.0895  0.1690 -0.2040
 1094YOPC   D3B14271   8.446   1.680   6.927 -0.2495  0.0900  0.1322
 1094YOPC   C4B14272   8.717   1.647   7.342 -0.0676  0.2536 -0.0384
 1095YOPC   NC314273  14.392   0.042   5.716  0.2617 -0.2136 -0.0335
 1095YOPC   PO414274  14.486   0.332   5.967 -0.0165 -0.0072 -0.2735
 1095YOPC   GL114275  14.192   0.383   6.332  0.0498 -0.2176  0.2077
 1095YOPC   GL214276  14.041   0.087   6.253  0.0118  0.1365  0.1529
 1095YOPC   C1A14277  14.203   0.363   6.806 -0.0370  0.0173 -0.2015
 1095YOPC   D2A14278  14.458   0.319   7.148 -0.1852  0.3792  0.2387
 1095YOPC   C3A14279  14.320   0.352   7.612 -0.2046 -0.2564  0.0807
 1095YOPC   C4A14280  14.158   0.638   7.971  0.1870 -0.0543  0.1406
 1095YOPC   C1B14281  13.939  -0.131   6.561  0.0507 -0.0317 -0.0529
 1095YOPC   C2B14282  13.796  -0.216   7.036  0.2132  0.1802  0.1157
 1095YOPC   D3B14283  13.719  -0.585   7.285  0.1854 -0.0535 -0.3786
 1095YOPC   C4B14284  13.578  -0.915   7.211 -0.0955 -0.1123  0.1594
 1096YOPC   NC314285  17.559   7.263   6.331  0.3228  0.0132 -0.0195
 1096YOPC   PO414286  17.113   6.984   6.095  0.0236  0.0615  0.0306
 1096YOPC   GL114287  17.087   6.760   6.490  0.0011  0.2915  0.0798
 1096YOPC   GL214288  16.865   6.594   6.550 -0.2011 -0.0121 -0.0107
 1096YOPC   C1A14289  17.193   6.733   6.923  0.0002  0.1561  0.2056
 1096YOPC   D2A14290  16.987   6.828   7.264  0.1692  0.1306  0.0129
 1096YOPC   C3A14291  16.806   6.445   7.519  0.1283 -0.0341  0.0604
 1096YOPC   C4A14292  16.773   5.957   7.526 -0.0118 -0.1001  0.1073
 1096YOPC   C1B14293  16.714   6.555   6.976 -0.0495 -0.2148 -0.0125
 1096YOPC   C2B14294  16.502   6.234   7.193  0.3915 -0.0874  0.1263
 1096YOPC   D3B14295  16.324   6.254   7.622  0.1982 -0.0423  0.1287
 1096YOPC   C4B14296  16.563   6.166   7.916 -0.2669 -0.2129  0.1690
 1097YOPC   NC314297  12.863   2.352   5.034  0.1548 -0.1724  0.2282
 1097YOPC   PO414298  12.732   2.651   5.318  0.0817  0.1872 -0.3039
 1097YOPC   GL114299  12.690   2.662   5.760 -0.3545 -0.1163 -0.1727
 1097YOPC   GL214300  12.672   2.460   5.857  0.3807 -0.2550 -0.2884
 1097YOPC   C1A14301  12.914   2.775   6.232 -0.3012 -0.1782  0.2771
 1097YOPC   D2A14302  12.728   2.940   6.595 -0.1172  0.1414 -0.0083
 1097YOPC   C3A14303  12.634   2.799   6.930  0.1341 -0.2692  0.0229
 1097YOPC   C4A14304  12.568   2.705   7.320 -0.3170  0.0785 -0.3217
 1097YOPC   C1B14305  12.405   2.497   6.325 -0.0893  0.2886  0.2214
 1097YOPC   C2B14306  12.013   2.399   6.492  0.1381  0.0232 -0.0269
 1097YOPC   D3B14307  11.910   2.391   6.911  0.1591 -0.0505 -0.0208
 1097YOPC   C4B14308  12.156   2.428   7.226 -0.1010  0.0812 -0.0549
 1098YOPC   NC314309   1.047   7.133   5.881 -0.0357 -0.1837 -0.1458
 1098YOPC   PO414310   0.934   6.949   6.249  0.1749  0.1602  0.1170
 1098YOPC   GL114311   0.583   6.795   6.603 -0.0263 -0.2830 -0.1207
 1098YOPC   GL214312   0.324   6.619   6.531 -0.3495 -0.0418  0.0899
 1098YOPC   C1A14313   0.597   6.779   6.964 -0.0957 -0.0148 -0.0940
 1098YOPC   D2A14314   0.416   6.637   7.291  0.3799 -0.0774 -0.1766
 1098YOPC   C3A14315   0.612   6.764   7.709 -0.1198  0.2243  0.1011
 1098YOPC   C4A14316   0.764   6.695   8.000 -0.3173 -0.0438 -0.0227
 1098YOPC   C1B14317   0.227   6.500   6.886 -0.2797  0.0498  0.2541
 1098YOPC   C2B14318   0.006   6.199   7.019  0.1724  0.0690  0.0877
 1098YOPC   D3B14319   0.090   6.251   7.423  0.2527  0.0347 -0.1030
 1098YOPC   C4B14320   0.045   6.207   7.901 -0.1028 -0.2390 -0.0662
 1099YOPC   NC314321   1.263  16.228   5.698 -0.1623  0.3096 -0.0759
 1099YOPC   PO414322   1.461  16.677   5.653  0.2640 -0.1626  0.0087
 1099YOPC   GL114323   1.480  16.932   5.939 -0.1683  0.1464 -0.0935
 1099YOPC   GL214324   1.609  17.162   5.877  0.0633 -0.2357 -0.1739
 1099YOPC   C1A14325   1.244  17.012   6.401 -0.2713 -0.1946  0.0583
 1099YOPC   D2A14326   1.296  16.987   6.852  0.1229  0.2351  0.2964
 1099YOPC   C3A14327   1.321  17.070   7.231 -0.0953  0.1119 -0.1826
 1099YOPC   C4A14328   1.095  17.063   7.500 -0.1097  0.2052 -0.2322
 1099YOPC   C1B14329   1.629  17.247   6.301 -0.2320 -0.2467 -0.1548
 1099YOPC   C2B14330   1.718  17.442   6.622  0.2467 -0.0085 -0.2231
 1099YOPC   D3B14331   1.639  17.299   6.994  0.3244 -0.2256 -0.1068
 1099YOPC   C4B14332   1.900  17.193   7.275 -0.0352 -0.0958  0.3137
 1100YOPC   NC314333   0.429  12.407   5.912 -0.1026  0.1564  0.0019
 1100YOPC   PO414334   0.575  12.780   5.670  0.3199  0.0175 -0.1990
 1100YOPC   GL114335   0.688  12.771   6.180 -0.0983 -0.1004  0.0406
 1100YOPC   GL214336   0.554  12.464   6.408 -0.2887 -0.3557  0.1925
 1100YOPC   C1A14337   0.953  12.934   6.608  0.2771  0.1262  0.1068
 1100YOPC   D2A14338   1.246  12.924   6.976 -0.1791 -0.1982  0.1045
 1100YOPC   C3A14339   1.074  12.976   7.417  0.0641 -0.0593  0.0769
 1100YOPC   C4A14340   1.312  12.926   7.829 -0.4896 -0.2843 -0.1637
 1100YOPC   C1B14341   0.739  12.501   6.841 -0.0692 -0.1618  0.0530
 1100YOPC   C2B14342   1.070  12.526   7.091  0.1583  0.2232  0.1981
 1100YOPC   D3B14343   1.215  12.506   7.640 -0.0060  0.0738  0.2741
 1100YOPC   C4B14344   1.643  12.526   7.879 -0.2916  0.0927  0.2505
 1101YOPC   NC314345   8.884  16.186   4.876  0.0334 -0.0328  0.3654
 1101YOPC   PO414346   8.854  16.047   5.266 -0.0311  0.1704 -0.3740
 1101YOPC   GL114347   8.823  16.046   5.696  0.0653  0.1325  0.0890
 1101YOPC   GL214348   8.846  15.750   5.767 -0.0080  0.1893  0.2343
 1101YOPC   C1A14349   8.858  16.241   6.100  0.1849 -0.2666  0.1617
 1101YOPC   D2A14350   8.663  16.209   6.516  0.1485 -0.0883 -0.0289
 1101YOPC   C3A14351   8.764  16.387   6.939  0.3187  0.5536 -0.0736
 1101YOPC   C4A14352   8.619  16.500   7.286  0.0824  0.2208 -0.2644
 1101YOPC   C1B14353   8.837  15.764   6.241  0.0491  0.0452 -0.5008
 1101YOPC   C2B14354   8.884  15.669   6.631  0.0600  0.0567 -0.0585
 1101YOPC   D3B14355   8.896  15.883   6.873  0.1486  0.2272 -0.0748
 1101YOPC   C4B14356   8.929  16.049   7.372 -0.1636 -0.0448 -0.3465
 1102YOPC   NC314357   9.518  18.168   5.542 -0.0115  0.1269 -0.0879
 1102YOPC   PO414358   9.816  18.505   5.368  0.0421 -0.2499  0.2935
 1102YOPC   GL114359  10.179  18.359   5.693  0.1740 -0.1594  0.2839
 1102YOPC   GL214360   9.928  18.303   5.878  0.0150  0.2415  0.0244
 1102YOPC   C1A14361  10.350  18.427   6.104 -0.2409 -0.2526 -0.0854
 1102YOPC   D2A14362  10.250  18.744   6.330  0.0583  0.0054  0.0081
 1102YOPC   C3A14363  10.230  18.792   6.828 -0.0990 -0.0468  0.0098
 1102YOPC   C4A14364  10.167  18.716   7.313  0.1870  0.1040 -0.1494
 1102YOPC   C1B14365   9.891  18.299   6.250 -0.1159 -0.0064 -0.2761
 1102YOPC   C2B14366  10.288  18.291   6.555 -0.3042 -0.0105 -0.0980
 1102YOPC   D3B14367  10.092  18.317   6.922  0.2330  0.2229  0.0625
 1102YOPC   C4B14368  10.108  18.207   7.361 -0.1025 -0.0827  0.1504
 1103YOPC   NC314369  16.418   8.330   6.406 -0.2087 -0.0720  0.2618
 1103YOPC   PO414370  16.678   8.757   6.427  0.1373 -0.1157 -0.2570
 1103YOPC   GL114371  16.395   8.790   6.774 -0.1434  0.1017  0.1882
 1103YOPC   GL214372  16.548   9.032   6.922  0.0878  0.0123 -0.3009
 1103YOPC   C1A14373  16.179   8.692   7.154  0.2121  0.4035  0.2920
 1103YOPC   D2A14374  15.740   8.726   7.418  0.1548 -0.3826  0.0770
 1103YOPC   C3A14375  15.702   8.889   7.826 -0.1616  0.0841 -0.2430
 1103YOPC   C4A14376  15.656   8.687   8.220 -0.0838 -0.0536  0.1288
 1103YOPC   C1B14377  16.184   9.211   7.214  0.0162 -0.0262 -0.1337
 1103YOPC   C2B14378  15.733   9.453   7.320 -0.0346  0.1207 -0.2474
 1103YOPC   D3B14379  15.488   9.600   7.641  0.0200  0.0088  0.3961
 1103YOPC   C4B14380  15.313   9.742   8.051  0.1768  0.0725  0.5383
 1104YOPC   NC314381  13.512  15.024   5.076  0.1079 -0.1713 -0.0847
 1104YOPC   PO414382  13.889  15.273   5.216 -0.0053  0.1719 -0.4579
 1104YOPC   GL114383  13.732  15.307   5.571 -0.1367 -0.1319  0.0082
 1104YOPC   GL214384  14.007  15.549   5.810 -0.3096  0.1782 -0.0160
 1104YOPC   C1A14385  13.534  15.364   5.972 -0.0581 -0.1826  0.2050
 1104YOPC   D2A14386  13.162  15.576   6.091 -0.0667 -0.1964  0.0022
 1104YOPC   C3A14387  12.806  15.800   5.832 -0.0534 -0.1087  0.1678
 1104YOPC   C4A14388  12.334  15.763   5.859 -0.0874  0.0861 -0.2634
 1104YOPC   C1B14389  14.032  15.434   6.205 -0.1956  0.0863 -0.1256
 1104YOPC   C2B14390  14.100  15.715   6.531  0.0975 -0.3329  0.3342
 1104YOPC   D3B14391  13.826  16.037   6.546  0.0643 -0.2356 -0.2653
 1104YOPC   C4B14392  13.580  16.349   6.315  0.2107  0.2369 -0.3416
 1105YOPC   NC314393   2.906   1.593   5.923 -0.4157  0.4103 -0.0518
 1105YOPC   PO414394   2.751   1.979   5.761 -0.0861  0.2933  0.1039
 1105YOPC   GL114395   2.837   2.003   6.260 -0.0358 -0.1583  0.1455
 1105YOPC   GL214396   3.155   2.017   6.420 -0.0476 -0.0729  0.3541
 1105YOPC   C1A14397   2.700   1.863   6.618  0.4090  0.1490  0.0204
 1105YOPC   D2A14398   2.525   1.697   6.878 -0.2882 -0.0826 -0.0673
 1105YOPC   C3A14399   2.515   1.263   7.173  0.2431 -0.1188 -0.1353
 1105YOPC   C4A14400   2.601   1.273   7.520 -0.0859  0.1421 -0.2115
 1105YOPC   C1B14401   3.191   1.833   6.764 -0.1217  0.3298  0.1611
 1105YOPC   C2B14402   2.952   1.685   7.125 -0.0196  0.1135  0.0581
 1105YOPC   D3B14403   3.039   1.516   7.453 -0.0418 -0.2603 -0.0804
 1105YOPC   C4B14404   3.063   1.106   7.643  0.1601 -0.2731 -0.0173
 1106YOPC   NC314405   5.709   7.684   5.444  0.1330  0.1360  0.2190
 1106YOPC   PO414406   5.354   7.700   5.767  0.0542  0.1180 -0.2633
 1106YOPC   GL114407   5.245   7.704   6.221  0.0973 -0.1097 -0.1531
 1106YOPC   GL214408   5.243   7.936   6.468  0.1620 -0.2195 -0.3332
 1106YOPC   C1A14409   4.938   7.558   6.542 -0.1799 -0.0095 -0.2181
 1106YOPC   D2A14410   4.942   7.377   6.831 -0.1077 -0.1234 -0.2128
 1106YOPC   C3A14411   5.283   7.150   7.038 -0.1683  0.3892 -0.0771
 1106YOPC   C4A14412   5.288   7.247   7.411 -0.2675  0.0901 -0.1496
 1106YOPC   C1B14413   5.301   7.812   6.938  0.0222 -0.2994 -0.1932
 1106YOPC   C2B14414   5.449   7.793   7.295  0.1501  0.0337  0.0673
 1106YOPC   D3B14415   5.269   8.009   7.634 -0.0212 -0.0261  0.0475
 1106YOPC   C4B14416   4.839   7.920   7.642  0.2820  0.0348  0.2672
 1107YOPC   NC314417   6.714   8.053   6.005  0.1165  0.0768  0.2853
 1107YOPC   PO414418   6.589   7.739   5.786 -0.0659 -0.3128 -0.3583
 1107YOPC   GL114419   6.454   7.753   6.295 -0.3545  0.0986 -0.1394
 1107YOPC   GL214420   6.267   7.521   6.374 -0.1386  0.1519  0.1570
 1107YOPC   C1A14421   6.717   7.851   6.625  0.1909  0.1274 -0.0731
 1107YOPC   D2A14422   6.840   7.952   7.068  0.1068 -0.2066  0.0624
 1107YOPC   C3A14423   7.327   7.981   7.115 -0.0570  0.1042 -0.2145
 1107YOPC   C4A14424   7.616   7.614   7.262  0.0778 -0.2517  0.3651
 1107YOPC   C1B14425   6.363   7.616   6.859 -0.0628  0.0856 -0.3133
 1107YOPC   C2B14426   6.510   7.614   7.300  0.2877  0.0937 -0.0180
 1107YOPC   D3B14427   6.351   7.890   7.671 -0.0336 -0.2032 -0.0059
 1107YOPC   C4B14428   6.049   7.968   8.041  0.1500 -0.0026  0.0665
 1108YOPC   NC314429  14.291  11.659   6.040 -0.1638  0.0815  0.1028
 1108YOPC   PO414430  14.074  11.322   6.213 -0.3257 -0.0913 -0.4671
 1108YOPC   GL114431  14.257  11.510   6.615  0.1371 -0.0276  0.2206
 1108YOPC   GL214432  14.535  11.648   6.489 -0.1720 -0.1070  0.1209
 1108YOPC   C1A14433  14.274  11.555   7.068 -0.0832  0.1812  0.1513
 1108YOPC   D2A14434  14.320  11.377   7.574 -0.1538  0.0533 -0.0056
 1108YOPC   C3A14435  14.464  11.395   7.987 -0.2691 -0.0682  0.0944
 1108YOPC   C4A14436  14.424  11.253   8.346  0.2702 -0.0074  0.1432
 1108YOPC   C1B14437  14.843  11.468   6.771 -0.0063 -0.0746  0.0907
 1108YOPC   C2B14438  15.191  11.252   6.952 -0.1031  0.2374  0.1548
 1108YOPC   D3B14439  15.163  11.165   7.343 -0.2381  0.4595 -0.1650
 1108YOPC   C4B14440  15.126  10.846   7.618  0.1932  0.0395  0.3662
 1109YOPC   NC314441  14.303  15.538   5.435 -0.2319 -0.1090  0.2300
 1109YOPC   PO414442  14.358  15.080   5.702 -0.3547  0.0817 -0.2441
 1109YOPC   GL114443  14.057  14.952   5.991  0.1105 -0.0655  0.2158
 1109YOPC   GL214444  14.210  14.958   6.276  0.2476  0.2124  0.2050
 1109YOPC   C1A14445  13.668  14.887   6.168  0.2428 -0.2185  0.0080
 1109YOPC   D2A14446  13.414  15.268   6.480 -0.5324  0.1125  0.0883
 1109YOPC   C3A14447  13.681  15.327   6.776 -0.3186 -0.0023  0.1120
 1109YOPC   C4A14448  13.783  15.654   7.066 -0.2320 -0.0501 -0.1728
 1109YOPC   C1B14449  14.200  15.186   6.697 -0.2042 -0.1276 -0.0969
 1109YOPC   C2B14450  14.287  15.447   7.205  0.0017  0.2118 -0.1371
 1109YOPC   D3B14451  14.635  15.861   7.321 -0.2204 -0.1084 -0.0035
 1109YOPC   C4B14452  14.490  16.305   7.375 -0.0404  0.0247 -0.1766
 1110YOPC   NC314453   2.171   5.657   5.860 -0.0878 -0.0531 -0.0259
 1110YOPC   PO414454   1.908   5.505   6.139  0.1125 -0.3482  0.2255
 1110YOPC   GL114455   1.549   5.375   6.421  0.0622 -0.2150  0.0131
 1110YOPC   GL214456   1.441   5.615   6.656 -0.0278  0.4137  0.4668
 1110YOPC   C1A14457   1.562   5.159   6.798  0.2207  0.0110  0.0171
 1110YOPC   D2A14458   1.319   4.835   6.988  0.0104 -0.1266  0.0672
 1110YOPC   C3A14459   1.172   4.849   7.424 -0.1768 -0.0189 -0.2557
 1110YOPC   C4A14460   0.988   5.039   7.803  0.1461  0.3287 -0.0385
 1110YOPC   C1B14461   1.467   5.807   7.022 -0.0678  0.1693 -0.0302
 1110YOPC   C2B14462   1.466   5.854   7.469  0.0080  0.2138 -0.1435
 1110YOPC   D3B14463   1.193   6.012   7.670  0.4588 -0.0288  0.1038
 1110YOPC   C4B14464   0.948   6.189   8.037  0.0996 -0.0262  0.0763
 1111YOPC   NC314465  14.061   1.825   6.203 -0.0254 -0.0499  0.0673
 1111YOPC   PO414466  14.478   1.632   6.286  0.0180  0.0427  0.1492
 1111YOPC   GL114467  14.157   1.401   6.571 -0.3214  0.1290  0.1702
 1111YOPC   GL214468  13.776   1.382   6.549  0.0159 -0.0350 -0.0793
 1111YOPC   C1A14469  14.058   1.303   7.064  0.0858 -0.3568  0.1087
 1111YOPC   D2A14470  13.719   1.189   7.308  0.2441 -0.1117 -0.3129
 1111YOPC   C3A14471  13.464   1.549   7.395  0.0392  0.0096  0.3255
 1111YOPC   C4A14472  13.443   1.903   7.532  0.1146  0.0784 -0.4074
 1111YOPC   C1B14473  13.641   1.336   6.867  0.1361 -0.1331 -0.4203
 1111YOPC   C2B14474  13.593   1.841   6.968  0.0603  0.2360 -0.2098
 1111YOPC   D3B14475  13.716   2.143   7.174  0.1448  0.0478  0.0512
 1111YOPC   C4B14476  13.522   2.482   7.358  0.1009 -0.1949  0.0254
 1112YOPC   NC314477   7.632   1.032   5.557  0.2138  0.0969 -0.0465
 1112YOPC   PO414478   7.984   1.112   5.705 -0.2279  0.0959  0.1473
 1112YOPC   GL114479   7.833   1.334   6.122 -0.2725 -0.1076 -0.0026
 1112YOPC   GL214480   7.552   1.328   6.008 -0.1345  0.2504  0.1884
 1112YOPC   C1A14481   7.675   1.302   6.506 -0.0615 -0.0028 -0.4342
 1112YOPC   D2A14482   7.779   1.246   7.009 -0.0545  0.0469  0.0968
 1112YOPC   C3A14483   8.226   1.296   7.078  0.0298  0.0077  0.2799
 1112YOPC   C4A14484   8.538   1.116   7.246  0.3292 -0.3935 -0.1964
 1112YOPC   C1B14485   7.365   1.005   6.312 -0.0801 -0.1573  0.0919
 1112YOPC   C2B14486   7.498   0.876   6.813 -0.0997 -0.0184  0.2907
 1112YOPC   D3B14487   7.650   0.643   7.112 -0.0521  0.2513  0.2957
 1112YOPC   C4B14488   7.664   0.490   7.605 -0.1223  0.0312 -0.0771
 1113YOPC   NC314489  11.095  17.180   5.329 -0.3939 -0.1696 -0.0598
 1113YOPC   PO414490  10.662  17.173   5.175 -0.0216 -0.1655  0.2467
 1113YOPC   GL114491  10.578  17.131   5.600 -0.0748  0.1987  0.2226
 1113YOPC   GL214492  10.791  16.811   5.670  0.0248  0.3539  0.3811
 1113YOPC   C1A14493  10.294  17.215   5.921  0.1767 -0.0372  0.0227
 1113YOPC   D2A14494   9.986  17.389   6.164  0.0006  0.1580 -0.0637
 1113YOPC   C3A14495   9.979  17.310   6.552 -0.0157  0.0835 -0.1432
 1113YOPC   C4A14496  10.279  17.357   6.941  0.0367  0.0959 -0.1635
 1113YOPC   C1B14497  10.571  16.335   5.645 -0.0329 -0.0699  0.3706
 1113YOPC   C2B14498  10.511  16.027   6.104 -0.1772 -0.2036  0.2384
 1113YOPC   D3B14499  10.661  16.164   6.479  0.1584 -0.0745 -0.0794
 1113YOPC   C4B14500  10.734  16.602   6.568  0.0675  0.0136 -0.0985
 1114YOPC   NC314501   4.812   2.485   5.738  0.1323 -0.1928  0.0113
 1114YOPC   PO414502   4.658   2.877   5.706  0.3978  0.1593  0.3127
 1114YOPC   GL114503   4.860   2.828   6.056 -0.1293  0.1910 -0.2258
 1114YOPC   GL214504   4.895   3.055   6.253 -0.1842  0.0853  0.0728
 1114YOPC   C1A14505   4.692   2.701   6.489  0.1227 -0.2434  0.0477
 1114YOPC   D2A14506   4.589   2.884   6.880  0.1067  0.1322 -0.2486
 1114YOPC   C3A14507   4.858   2.906   7.249 -0.0098  0.0528 -0.2445
 1114YOPC   C4A14508   5.216   2.913   7.280 -0.0496  0.1114  0.0667
 1114YOPC   C1B14509   5.025   3.092   6.719 -0.0272  0.1650 -0.2879
 1114YOPC   C2B14510   5.285   3.380   7.046 -0.2628  0.1754 -0.3489
 1114YOPC   D3B14511   5.572   3.257   7.419 -0.2406  0.0957  0.1523
 1114YOPC   C4B14512   5.916   3.192   7.509  0.1730  0.3253  0.1565
 1115YOPC   NC314513  11.401   1.776   5.399 -0.2637  0.1716 -0.1637
 1115YOPC   PO414514  11.731   1.671   5.582  0.0396 -0.1389 -0.0580
 1115YOPC   GL114515  11.760   1.551   6.006  0.1629 -0.3103  0.0147
 1115YOPC   GL214516  12.063   1.598   6.002  0.0135 -0.1072  0.1826
 1115YOPC   C1A14517  11.709   1.553   6.482  0.2009  0.2301 -0.3507
 1115YOPC   D2A14518  11.329   1.653   6.681 -0.1988 -0.1464 -0.0041
 1115YOPC   C3A14519  10.882   1.514   6.819 -0.1010  0.1457 -0.2821
 1115YOPC   C4A14520  10.464   1.434   6.830  0.2362 -0.0905  0.1118
 1115YOPC   C1B14521  12.149   1.388   6.308  0.1199  0.1416  0.1358
 1115YOPC   C2B14522  12.150   1.361   6.707  0.2167  0.0302  0.0022
 1115YOPC   D3B14523  12.392   1.059   6.913  0.0665  0.1258 -0.2333
 1115YOPC   C4B14524  12.636   0.982   7.235  0.0035  0.2919 -0.4310
 1116YOPC   NC314525  12.592   8.064   5.743 -0.0936 -0.0020 -0.1968
 1116YOPC   PO414526  12.500   7.767   6.146 -0.1657  0.1238 -0.3126
 1116YOPC   GL114527  12.661   7.570   6.488 -0.0653 -0.1115  0.1675
 1116YOPC   GL214528  12.880   7.448   6.383 -0.2041 -0.1080 -0.1622
 1116YOPC   C1A14529  12.654   7.557   6.907 -0.3958  0.5007 -0.1461
 1116YOPC   D2A14530  12.642   7.434   7.405 -0.0391 -0.0784  0.0928
 1116YOPC   C3A14531  12.443   7.550   7.815 -0.0005  0.1277 -0.1266
 1116YOPC   C4A14532  12.265   7.776   8.157 -0.0629  0.1567  0.0177
 1116YOPC   C1B14533  13.119   7.415   6.725 -0.0614 -0.1792  0.1486
 1116YOPC   C2B14534  13.271   7.152   7.039 -0.0326 -0.0162 -0.0608
 1116YOPC   D3B14535  13.457   7.293   7.371 -0.2393  0.1299  0.0858
 1116YOPC   C4B14536  13.733   7.349   7.703 -0.0809 -0.2629 -0.0357
 1117YOPC   NC314537  12.062  15.806   4.954 -0.1826  0.0851  0.1045
 1117YOPC   PO414538  11.992  15.425   5.201 -0.2945 -0.2017  0.1777
 1117YOPC   GL114539  11.881  15.530   5.629 -0.1300  0.1718  0.1440
 1117YOPC   GL214540  12.125  15.311   5.778  0.0728 -0.0992 -0.1922
 1117YOPC   C1A14541  11.848  15.809   5.969  0.1119 -0.1309  0.4504
 1117YOPC   D2A14542  12.053  15.934   6.328  0.1311 -0.0286 -0.0116
 1117YOPC   C3A14543  12.356  15.778   6.578 -0.1470 -0.3901 -0.1649
 1117YOPC   C4A14544  12.625  15.448   6.766  0.3160  0.1079  0.0881
 1117YOPC   C1B14545  12.244  15.132   6.212  0.2078 -0.0885 -0.0085
 1117YOPC   C2B14546  12.475  14.952   6.482  0.3362  0.2093  0.1181
 1117YOPC   D3B14547  12.317  14.624   6.732  0.1487  0.1624  0.0461
 1117YOPC   C4B14548  12.349  14.156   6.693  0.0814 -0.3680 -0.1859
 1118YOPC   NC314549   9.609  17.093   5.337 -0.0711 -0.0458 -0.3043
 1118YOPC   PO414550   9.324  16.919   5.585 -0.2336 -0.0062  0.0018
 1118YOPC   GL114551   9.083  16.880   5.921 -0.0309 -0.1192  0.5063
 1118YOPC   GL214552   8.953  17.186   5.937  0.0336  0.0238  0.0140
 1118YOPC   C1A14553   8.942  16.712   6.211  0.0901  0.1118  0.0581
 1118YOPC   D2A14554   9.221  16.589   6.575 -0.0332 -0.0080 -0.1147
 1118YOPC   C3A14555   9.221  16.643   6.929  0.2584  0.3611  0.0681
 1118YOPC   C4A14556   9.122  16.600   7.303 -0.0790 -0.1655  0.2248
 1118YOPC   C1B14557   9.082  17.228   6.448  0.1216 -0.0952  0.0315
 1118YOPC   C2B14558   9.276  17.229   6.878  0.1616  0.0339  0.1364
 1118YOPC   D3B14559   9.428  17.087   7.238  0.1784  0.2142 -0.1877
 1118YOPC   C4B14560   9.721  16.723   7.321  0.1696  0.0609 -0.0951
 1119YOPC   NC314561   5.164   6.774   5.429  0.3753 -0.5086  0.2128
 1119YOPC   PO414562   5.004   7.017   5.793 -0.0114 -0.1701  0.1710
 1119YOPC   GL114563   4.704   6.899   6.151  0.4301  0.2090 -0.0110
 1119YOPC   GL214564   4.607   6.745   6.361 -0.0468  0.0370  0.3660
 1119YOPC   C1A14565   4.567   7.232   6.484 -0.1198  0.1810  0.1900
 1119YOPC   D2A14566   4.390   7.249   6.987 -0.2939  0.0413 -0.1569
 1119YOPC   C3A14567   4.323   6.863   7.296 -0.3412 -0.0107  0.3529
 1119YOPC   C4A14568   4.425   7.039   7.659 -0.0820 -0.0729 -0.1778
 1119YOPC   C1B14569   4.986   6.544   6.299 -0.2463  0.1389 -0.0181
 1119YOPC   C2B14570   5.147   6.216   6.116  0.1690  0.1915  0.2059
 1119YOPC   D3B14571   5.300   5.822   6.199 -0.3301  0.0538  0.2206
 1119YOPC   C4B14572   5.614   5.567   6.430 -0.4480 -0.1730  0.2110
 1120YOPC   NC314573  13.656  15.750   5.322 -0.0845  0.2689  0.1604
 1120YOPC   PO414574  13.681  16.160   5.211 -0.3314 -0.1969 -0.2194
 1120YOPC   GL114575  13.388  16.276   5.650  0.3182 -0.2478 -0.0755
 1120YOPC   GL214576  13.508  16.031   5.918  0.0182  0.0634  0.0357
 1120YOPC   C1A14577  13.039  16.271   5.992  0.0664  0.2270  0.1179
 1120YOPC   D2A14578  13.059  16.300   6.422 -0.1937  0.0613 -0.2554
 1120YOPC   C3A14579  13.372  16.301   6.756  0.3165 -0.0752 -0.2682
 1120YOPC   C4A14580  13.350  16.067   7.235 -0.1673  0.0296  0.0641
 1120YOPC   C1B14581  13.767  15.799   6.160 -0.1114 -0.2537  0.1204
 1120YOPC   C2B14582  14.239  15.887   6.110 -0.3365 -0.2197  0.1834
 1120YOPC   D3B14583  14.337  16.260   6.426  0.0334 -0.0964  0.0279
 1120YOPC   C4B14584  14.529  16.531   6.719  0.0051 -0.1087 -0.3667
 1121YOPC   NC314585   1.302   6.208   5.662 -0.0721  0.1144  0.0095
 1121YOPC   PO414586   0.971   6.159   6.058 -0.0003 -0.1148  0.0719
 1121YOPC   GL114587   1.147   6.029   6.369 -0.2762 -0.2553 -0.1967
 1121YOPC   GL214588   1.409   6.218   6.605  0.2966 -0.1757 -0.1304
 1121YOPC   C1A14589   1.017   5.921   6.733  0.3406  0.0841  0.3871
 1121YOPC   D2A14590   1.032   5.862   7.220  0.0645 -0.5596 -0.0037
 1121YOPC   C3A14591   0.730   5.675   7.423 -0.0522  0.1040 -0.0658
 1121YOPC   C4A14592   0.556   5.763   7.941 -0.1315  0.1827  0.3721
 1121YOPC   C1B14593   1.443   6.631   6.557 -0.6001  0.1281  0.0236
 1121YOPC   C2B14594   1.158   6.904   6.678  0.0153 -0.1288  0.1251
 1121YOPC   D3B14595   0.979   7.083   7.082 -0.0577  0.0387  0.1684
 1121YOPC   C4B14596   1.039   7.072   7.493  0.1060 -0.1481  0.2193
 1122YOPC   NC314597   5.769  12.889   5.173 -0.1281 -0.0006  0.3501
 1122YOPC   PO414598   5.538  12.739   5.384  0.2136  0.1522 -0.1006
 1122YOPC   GL114599   5.657  12.493   5.676 -0.0070  0.0464 -0.1932
 1122YOPC   GL214600   5.505  12.400   5.863 -0.1944  0.3021 -0.1221
 1122YOPC   C1A14601   5.940  12.219   5.994 -0.1449 -0.2856 -0.0110
 1122YOPC   D2A14602   5.892  12.129   6.379 -0.1608  0.0283 -0.1161
 1122YOPC   C3A14603   5.568  12.275   6.532 -0.1446 -0.0145 -0.2680
 1122YOPC   C4A14604   5.346  12.210   6.914 -0.4220  0.0870  0.0245
 1122YOPC   C1B14605   5.307  12.045   5.936  0.1040 -0.0292 -0.0617
 1122YOPC   C2B14606   4.961  11.855   6.083 -0.2989  0.2982 -0.0178
 1122YOPC   D3B14607   4.686  11.809   5.898  0.2381 -0.1874  0.0931
 1122YOPC   C4B14608   4.355  11.398   6.008  0.2419 -0.4256  0.5064
 1123YOPC   NC314609  16.208   7.835   6.020  0.0892  0.0482 -0.0178
 1123YOPC   PO414610  16.585   7.856   6.271  0.4538 -0.1455  0.0846
 1123YOPC   GL114611  16.763   7.881   6.598  0.1701 -0.1999  0.0952
 1123YOPC   GL214612  16.943   7.668   6.657  0.1375 -0.1891  0.1241
 1123YOPC   C1A14613  16.672   7.825   7.087 -0.1601  0.2733 -0.1744
 1123YOPC   D2A14614  16.978   7.824   7.335  0.0816  0.4280  0.0289
 1123YOPC   C3A14615  16.886   8.018   7.607 -0.1441  0.1962  0.1144
 1123YOPC   C4A14616  16.990   8.021   8.060  0.0418  0.3566  0.1968
 1123YOPC   C1B14617  17.091   7.567   6.959 -0.2257 -0.0775 -0.0683
 1123YOPC   C2B14618  17.337   7.481   7.394 -0.1330 -0.0119  0.3428
 1123YOPC   D3B14619  17.476   7.873   7.673  0.1277  0.1798  0.0366
 1123YOPC   C4B14620  17.806   8.098   7.695 -0.0267  0.0733 -0.1609
 1124YOPC   NC314621  13.172   5.199   5.718  0.0517 -0.1151 -0.0415
 1124YOPC   PO414622  13.396   5.549   5.795  0.0191 -0.0657  0.2156
 1124YOPC   GL114623  13.208   5.666   6.212  0.5160 -0.3116  0.1524
 1124YOPC   GL214624  13.020   5.937   6.338  0.0731 -0.0288  0.0852
 1124YOPC   C1A14625  13.058   5.338   6.463  0.2108 -0.0641 -0.0637
 1124YOPC   D2A14626  13.032   5.203   6.798 -0.2395  0.4092  0.1291
 1124YOPC   C3A14627  12.983   5.073   7.182  0.2526 -0.1542 -0.1226
 1124YOPC   C4A14628  13.032   4.742   7.350 -0.2172 -0.1045  0.1198
 1124YOPC   C1B14629  13.045   5.723   6.812  0.0904 -0.0533 -0.1002
 1124YOPC   C2B14630  12.865   5.620   7.167 -0.1153  0.1158 -0.2782
 1124YOPC   D3B14631  13.071   5.518   7.563 -0.2729 -0.4785 -0.2307
 1124YOPC   C4B14632  13.163   5.754   7.925 -0.1023 -0.1397 -0.1623
 1125YOPC   NC314633   4.768  14.675   5.563  0.0091 -0.0846 -0.1203
 1125YOPC   PO414634   4.245  14.774   5.726 -0.2744 -0.1873 -0.0028
 1125YOPC   GL114635   4.226  14.829   6.179  0.1409 -0.0482  0.1367
 1125YOPC   GL214636   4.335  15.154   6.233  0.0464  0.0034  0.1022
 1125YOPC   C1A14637   4.151  14.710   6.518  0.1431 -0.0054  0.1972
 1125YOPC   D2A14638   4.270  14.390   6.809 -0.0700  0.5671 -0.3716
 1125YOPC   C3A14639   4.232  14.175   7.324  0.1340  0.0024 -0.1285
 1125YOPC   C4A14640   4.467  14.201   7.630  0.1410  0.1665 -0.0939
 1125YOPC   C1B14641   4.530  14.993   6.695  0.1402 -0.0116 -0.0545
 1125YOPC   C2B14642   4.566  14.983   7.074 -0.2443  0.0075  0.2834
 1125YOPC   D3B14643   4.356  15.165   7.329 -0.1734  0.1752 -0.0107
 1125YOPC   C4B14644   4.584  15.405   7.616  0.0174 -0.2163  0.1310
 1126YOPC   NC314645  16.958  11.877   6.238 -0.0649 -0.1131  0.1048
 1126YOPC   PO414646  16.852  11.611   5.795  0.1542  0.0414  0.1689
 1126YOPC   GL114647  16.851  11.370   6.224 -0.0789 -0.1196 -0.1527
 1126YOPC   GL214648  17.255  11.388   6.319  0.3616  0.0713  0.2025
 1126YOPC   C1A14649  16.875  11.358   6.704  0.0047 -0.5694 -0.2062
 1126YOPC   D2A14650  16.935  11.250   7.122  0.2337  0.0012  0.2287
 1126YOPC   C3A14651  17.050  11.380   7.580 -0.0320  0.1157 -0.0129
 1126YOPC   C4A14652  16.931  11.562   7.927  0.0828  0.1026 -0.4741
 1126YOPC   C1B14653  17.323  11.125   6.717  0.0052  0.1156 -0.1064
 1126YOPC   C2B14654  17.204  10.793   7.145  0.2385 -0.0115 -0.3623
 1126YOPC   D3B14655  17.120  10.900   7.554 -0.1403 -0.2035 -0.2025
 1126YOPC   C4B14656  17.108  10.677   7.991  0.2575 -0.4925 -0.0194
 1127YOPC   NC314657   8.633  15.704   4.769 -0.1371  0.0013  0.0540
 1127YOPC   PO414658   8.434  15.644   5.260 -0.1723  0.2223  0.0745
 1127YOPC   GL114659   8.370  15.510   5.625 -0.1159 -0.0658  0.3642
 1127YOPC   GL214660   8.070  15.721   5.716 -0.0017 -0.0704 -0.1544
 1127YOPC   C1A14661   8.125  15.386   6.054 -0.0187  0.1937 -0.2446
 1127YOPC   D2A14662   7.857  15.509   6.339 -0.1082  0.0710  0.0348
 1127YOPC   C3A14663   7.954  15.435   6.685 -0.1327 -0.1746 -0.1238
 1127YOPC   C4A14664   8.118  15.525   7.039 -0.1595  0.1461  0.3426
 1127YOPC   C1B14665   8.444  15.841   5.985  0.1695 -0.1534 -0.2544
 1127YOPC   C2B14666   8.294  15.756   6.446 -0.1956 -0.2430  0.0484
 1127YOPC   D3B14667   8.370  16.000   6.895 -0.3779  0.2726 -0.0398
 1127YOPC   C4B14668   7.976  16.038   7.082 -0.0784 -0.1710 -0.0177
 1128YOPC   NC314669  18.511   5.998   6.207 -0.2405 -0.2993  0.1282
 1128YOPC   PO414670  18.037   6.208   6.112 -0.1697  0.0181  0.2282
 1128YOPC   GL114671  17.923   6.149   6.444 -0.0244  0.2045  0.1630
 1128YOPC   GL214672  17.660   5.941   6.588 -0.2535 -0.0105  0.1750
 1128YOPC   C1A14673  17.953   6.217   6.858  0.0208  0.3193 -0.3116
 1128YOPC   D2A14674  18.182   6.467   7.228 -0.0964 -0.0090  0.2336
 1128YOPC   C3A14675  18.110   6.556   7.677  0.3132  0.1285 -0.0725
 1128YOPC   C4A14676  18.301   6.584   8.005 -0.1369 -0.0151  0.3734
 1128YOPC   C1B14677  17.649   5.836   7.038  0.0759  0.0696  0.1103
 1128YOPC   C2B14678  17.745   6.140   7.307 -0.0440 -0.1024 -0.1519
 1128YOPC   D3B14679  17.689   6.051   7.690  0.1358  0.0655 -0.0078
 1128YOPC   C4B14680  17.569   6.214   8.117  0.0171 -0.1726  0.2298
 1129YOPC   NC314681  10.900  13.683   5.350 -0.3121  0.0307  0.0304
 1129YOPC   PO414682  10.571  13.689   5.502 -0.0803  0.1006 -0.2817
 1129YOPC   GL114683  10.649  13.723   5.877  0.4544  0.1697  0.1464
 1129YOPC   GL214684  10.968  13.769   5.887 -0.0259  0.3598 -0.2279
 1129YOPC   C1A14685  10.619  13.539   6.282 -0.1742  0.1508 -0.2708
 1129YOPC   D2A14686  10.666  13.705   6.757  0.0150 -0.0657  0.0952
 1129YOPC   C3A14687  10.816  13.884   7.091  0.1377 -0.2546 -0.2404
 1129YOPC   C4A14688  11.024  14.218   7.064 -0.2400 -0.1525 -0.2035
 1129YOPC   C1B14689  11.116  13.790   6.293 -0.2952  0.1988  0.1317
 1129YOPC   C2B14690  11.226  13.892   6.660 -0.0813 -0.1262  0.0851
 1129YOPC   D3B14691  11.502  13.655   6.758  0.1558 -0.3246  0.3029
 1129YOPC   C4B14692  11.653  13.277   6.919  0.1390 -0.1062 -0.0208
 1130YOPC   NC314693  17.270   1.431   6.280 -0.0172  0.1932  0.0173
 1130YOPC   PO414694  16.858   1.829   6.322 -0.0385  0.0938  0.1063
 1130YOPC   GL114695  16.893   1.504   6.592  0.0323  0.1802  0.4244
 1130YOPC   GL214696  17.097   1.379   6.727  0.0808  0.0086  0.0290
 1130YOPC   C1A14697  16.760   1.625   7.150 -0.0663  0.3411  0.5105
 1130YOPC   D2A14698  16.604   1.602   7.496  0.0352  0.2527 -0.2543
 1130YOPC   C3A14699  16.409   1.670   7.847 -0.0573  0.1482  0.0269
 1130YOPC   C4A14700  16.529   1.645   8.300  0.0291 -0.1676 -0.1213
 1130YOPC   C1B14701  17.211   1.334   7.112 -0.2042  0.0507  0.0799
 1130YOPC   C2B14702  16.923   1.227   7.350 -0.1187  0.0120  0.3210
 1130YOPC   D3B14703  16.974   1.505   7.804  0.1736  0.2596  0.1249
 1130YOPC   C4B14704  17.041   1.640   8.215 -0.2453  0.0691  0.2838
 1131YOPC   NC314705   2.444   0.843   6.003  0.1594  0.1821 -0.1329
 1131YOPC   PO414706   2.869   0.686   5.948  0.3693 -0.0743  0.0372
 1131YOPC   GL114707   3.043   0.422   6.192  0.2852 -0.0680  0.0683
 1131YOPC   GL214708   3.128   0.106   6.108  0.2413 -0.3754 -0.0457
 1131YOPC   C1A14709   3.095   0.192   6.592 -0.4021 -0.0805 -0.1732
 1131YOPC   D2A14710   3.087  -0.086   6.922  0.0177 -0.2215  0.2956
 1131YOPC   C3A14711   3.328  -0.017   7.250 -0.1390  0.0857  0.2374
 1131YOPC   C4A14712   3.669   0.184   7.261  0.0940  0.0454  0.1541
 1131YOPC   C1B14713   3.507   0.003   6.302 -0.3106 -0.1383  0.1589
 1131YOPC   C2B14714   3.873   0.079   6.521 -0.3111 -0.1616  0.0427
 1131YOPC   D3B14715   3.981   0.493   6.576  0.2276 -0.2854  0.1780
 1131YOPC   C4B14716   3.989   0.942   6.764  0.0882 -0.0608  0.0506
 1132YOPC   NC314717  15.224   1.937   6.323 -0.0169 -0.1307 -0.1046
 1132YOPC   PO414718  15.329   2.338   6.304 -0.2190  0.1305 -0.0336
 1132YOPC   GL114719  15.153   2.297   6.676  0.2334  0.1527  0.1488
 1132YOPC   GL214720  15.210   2.115   6.819  0.0184  0.1615  0.1816
 1132YOPC   C1A14721  15.063   2.704   6.996  0.2696  0.3825 -0.4324
 1132YOPC   D2A14722  14.734   2.830   7.274  0.0028 -0.1671  0.1198
 1132YOPC   C3A14723  14.487   2.638   7.592  0.1934 -0.2576 -0.2636
 1132YOPC   C4A14724  14.443   2.298   7.846 -0.0416 -0.0134  0.2374
 1132YOPC   C1B14725  15.064   2.126   7.250  0.1717 -0.0943 -0.0251
 1132YOPC   C2B14726  14.934   2.403   7.542 -0.1009 -0.2999  0.2233
 1132YOPC   D3B14727  15.128   2.466   7.996 -0.4059 -0.0061  0.1589
 1132YOPC   C4B14728  15.385   2.549   8.292  0.0143  0.1026 -0.0354
 1133YOPC   NC314729   0.270  18.302   5.767 -0.0874 -0.3346  0.0823
 1133YOPC   PO414730  -0.063  18.146   5.983 -0.0455  0.0745 -0.2289
 1133YOPC   GL114731   0.114  17.904   6.302 -0.0985 -0.0371  0.1445
 1133YOPC   GL214732  -0.178  17.654   6.418  0.0335 -0.1942  0.0325
 1133YOPC   C1A14733   0.232  17.553   6.681  0.3334  0.0610 -0.2234
 1133YOPC   D2A14734   0.199  17.625   7.184  0.0515  0.0992  0.1188
 1133YOPC   C3A14735   0.456  17.706   7.475  0.0290 -0.1744  0.0093
 1133YOPC   C4A14736   0.828  17.490   7.445  0.0664 -0.0956  0.0802
 1133YOPC   C1B14737  -0.246  17.418   6.896 -0.0343  0.2241 -0.0460
 1133YOPC   C2B14738  -0.308  17.431   7.374 -0.0369  0.0102  0.0863
 1133YOPC   D3B14739  -0.046  17.655   7.664 -0.0143 -0.0071  0.1817
 1133YOPC   C4B14740   0.131  17.999   7.708 -0.1776 -0.1117  0.1729
 1134YOPC   NC314741   6.983  13.866   5.067  0.2210  0.3548 -0.0187
 1134YOPC   PO414742   7.316  13.954   5.345 -0.2429  0.1179  0.0294
 1134YOPC   GL114743   7.390  14.024   5.791 -0.0314 -0.1935 -0.0282
 1134YOPC   GL214744   7.727  14.105   5.841  0.0178  0.3691 -0.0476
 1134YOPC   C1A14745   7.355  13.846   6.095  0.0614 -0.0790 -0.1346
 1134YOPC   D2A14746   7.502  13.721   6.446 -0.2121  0.3139 -0.1381
 1134YOPC   C3A14747   7.380  13.931   6.887 -0.3569 -0.0373 -0.0965
 1134YOPC   C4A14748   7.395  13.901   7.377  0.1770 -0.2161 -0.2480
 1134YOPC   C1B14749   7.629  14.233   6.265  0.1909  0.0478 -0.0465
 1134YOPC   C2B14750   7.677  14.231   6.662  0.0786  0.1389  0.4153
 1134YOPC   D3B14751   7.820  14.051   7.117 -0.0669 -0.1063  0.0050
 1134YOPC   C4B14752   8.056  14.165   7.360  0.1493 -0.0141 -0.1034
 1135YOPC   NC314753   2.360  17.569   5.617  0.3483 -0.1946  0.0168
 1135YOPC   PO414754   1.992  17.459   5.775 -0.0643  0.0056  0.2805
 1135YOPC   GL114755   2.116  17.453   6.185 -0.3839  0.1335 -0.1431
 1135YOPC   GL214756   1.984  17.788   6.271 -0.2596 -0.0569  0.2235
 1135YOPC   C1A14757   2.373  17.203   6.465 -0.0566 -0.0378  0.2091
 1135YOPC   D2A14758   2.290  17.159   6.897 -0.4117 -0.0077  0.2669
 1135YOPC   C3A14759   2.405  17.514   7.171 -0.1654 -0.2792 -0.1878
 1135YOPC   C4A14760   2.761  17.650   7.265 -0.0241 -0.3627 -0.0262
 1135YOPC   C1B14761   1.558  17.855   6.518  0.0216  0.0706  0.0939
 1135YOPC   C2B14762   1.618  17.908   7.026  0.0329 -0.0484  0.0703
 1135YOPC   D3B14763   1.834  17.736   7.372  0.6474  0.0130 -0.0613
 1135YOPC   C4B14764   2.131  17.617   7.560 -0.0784 -0.1041 -0.2560
 1136YOPC   NC314765   8.393   7.610   5.493  0.1041  0.0036  0.0760
 1136YOPC   PO414766   7.917   7.844   5.668  0.4914  0.2052  0.1328
 1136YOPC   GL114767   8.115   8.059   5.942  0.1471 -0.0347 -0.1081
 1136YOPC   GL214768   7.868   8.306   6.155  0.1066 -0.1782 -0.3239
 1136YOPC   C1A14769   8.312   7.862   6.308 -0.0452  0.1319  0.1126
 1136YOPC   D2A14770   8.318   7.735   6.678 -0.4461 -0.0710  0.1391
 1136YOPC   C3A14771   7.991   7.756   6.708  0.4776 -0.0445  0.1295
 1136YOPC   C4A14772   7.562   7.674   6.729  0.0026 -0.0306  0.1206
 1136YOPC   C1B14773   7.840   8.240   6.554 -0.2718 -0.1652  0.1461
 1136YOPC   C2B14774   7.723   8.180   6.941 -0.0742 -0.1324 -0.1924
 1136YOPC   D3B14775   7.836   8.094   7.410  0.0598  0.1415  0.1614
 1136YOPC   C4B14776   7.905   8.179   7.862  0.0152 -0.1669  0.0105
 1137YOPC   NC314777  17.116  14.051   5.751  0.4386  0.1182  0.2776
 1137YOPC   PO414778  16.888  13.908   6.020  0.2200 -0.0848  0.2424
 1137YOPC   GL114779  16.764  14.000   6.389 -0.1132 -0.0524 -0.0396
 1137YOPC   GL214780  16.643  13.776   6.658 -0.1973 -0.0265 -0.3683
 1137YOPC   C1A14781  16.704  14.315   6.702 -0.2013  0.0505 -0.2190
 1137YOPC   D2A14782  16.561  14.516   7.023  0.1773 -0.2079 -0.1214
 1137YOPC   C3A14783  16.558  14.875   7.215  0.1327  0.0604  0.4569
 1137YOPC   C4A14784  16.287  15.202   7.289 -0.3495 -0.0866 -0.0755
 1137YOPC   C1B14785  16.471  13.978   7.028  0.0232 -0.5432  0.1818
 1137YOPC   C2B14786  16.346  14.251   7.389  0.0697  0.3872 -0.4226
 1137YOPC   D3B14787  16.479  14.620   7.622 -0.0897  0.1282  0.0579
 1137YOPC   C4B14788  16.710  14.996   7.655 -0.0672 -0.3252 -0.0647
 1138YOPC   NC314789  13.014   6.000   5.853 -0.0248  0.1679 -0.0027
 1138YOPC   PO414790  12.573   6.035   5.821  0.0330  0.3252  0.0057
 1138YOPC   GL114791  12.546   6.046   6.279  0.2131  0.1499  0.0302
 1138YOPC   GL214792  12.670   6.346   6.315  0.0341 -0.2397  0.2710
 1138YOPC   C1A14793  12.549   5.976   6.663  0.5271 -0.1455  0.1221
 1138YOPC   D2A14794  12.424   6.070   7.081  0.0627 -0.3524 -0.3119
 1138YOPC   C3A14795  12.374   5.772   7.411  0.2713 -0.0763  0.1716
 1138YOPC   C4A14796  12.166   5.697   7.736  0.0799  0.0094  0.1042
 1138YOPC   C1B14797  12.533   6.609   6.718  0.0161  0.3855 -0.2339
 1138YOPC   C2B14798  12.498   6.631   7.147  0.0612 -0.1117 -0.0128
 1138YOPC   D3B14799  12.523   6.521   7.609  0.1860  0.0321  0.1627
 1138YOPC   C4B14800  12.315   6.621   7.986 -0.0258 -0.0342 -0.1071
 1139YOPC   NC314801  15.251   8.222   6.136 -0.1497 -0.3406 -0.0872
 1139YOPC   PO414802  15.116   8.641   6.261  0.3446  0.2082  0.3908
 1139YOPC   GL114803  15.072   8.422   6.664 -0.2058  0.0302 -0.1396
 1139YOPC   GL214804  15.162   8.045   6.686  0.2729 -0.1947  0.2564
 1139YOPC   C1A14805  14.724   8.346   6.917 -0.0935  0.1703  0.0802
 1139YOPC   D2A14806  14.512   8.228   7.286 -0.0506  0.0126  0.1191
 1139YOPC   C3A14807  14.520   7.941   7.695 -0.0085  0.1811  0.1879
 1139YOPC   C4A14808  14.499   7.863   8.054  0.0511 -0.2411  0.1904
 1139YOPC   C1B14809  15.127   8.128   7.168  0.2414  0.2786  0.0835
 1139YOPC   C2B14810  15.307   8.272   7.579 -0.1096 -0.2239  0.1586
 1139YOPC   D3B14811  15.296   8.632   7.851 -0.2099  0.0011  0.2088
 1139YOPC   C4B14812  15.306   9.020   8.093  0.0585 -0.0589 -0.2094
 1140YOPC   NC314813  13.754   8.628   6.044  0.2588 -0.2440  0.0927
 1140YOPC   PO414814  13.733   8.296   6.428 -0.4029 -0.1919 -0.0614
 1140YOPC   GL114815  13.852   8.288   6.780  0.1622 -0.0010 -0.2904
 1140YOPC   GL214816  14.052   8.151   6.909 -0.1823  0.1267  0.3934
 1140YOPC   C1A14817  13.445   8.257   7.125 -0.1306 -0.5256  0.0341
 1140YOPC   D2A14818  13.175   8.162   7.405 -0.0654  0.0891  0.2038
 1140YOPC   C3A14819  13.066   8.246   7.840  0.0703  0.1510  0.0807
 1140YOPC   C4A14820  13.226   8.074   8.180 -0.0206  0.2560 -0.0834
 1140YOPC   C1B14821  14.017   8.187   7.283 -0.0911  0.1766 -0.1918
 1140YOPC   C2B14822  14.131   8.365   7.642  0.0398 -0.3132  0.2931
 1140YOPC   D3B14823  14.011   8.492   8.085 -0.0228  0.0490  0.0690
 1140YOPC   C4B14824  14.030   8.861   8.336  0.0773  0.0720 -0.0335
 1141YOPC   NC314825   2.136   7.845   5.854 -0.2548 -0.1980  0.0668
 1141YOPC   PO414826   2.058   7.528   6.045 -0.2918  0.3368 -0.2208
 1141YOPC   GL114827   1.802   7.505   6.413  0.1029  0.1095  0.0278
 1141YOPC   GL214828   1.733   7.290   6.435 -0.0033  0.0757 -0.0482
 1141YOPC   C1A14829   1.728   7.719   6.788  0.0695  0.0992 -0.0947
 1141YOPC   D2A14830   1.516   7.928   7.090 -0.2060 -0.1846 -0.0303
 1141YOPC   C3A14831   1.693   8.039   7.491  0.2636 -0.0066  0.0011
 1141YOPC   C4A14832   2.007   7.949   7.776  0.0258  0.2287  0.1159
 1141YOPC   C1B14833   1.725   7.129   6.774  0.2006  0.2741  0.1586
 1141YOPC   C2B14834   1.542   6.828   7.062  0.0549  0.1308 -0.1664
 1141YOPC   D3B14835   1.460   6.828   7.457 -0.0025 -0.1225 -0.0687
 1141YOPC   C4B14836   1.420   6.987   7.872  0.0424 -0.0872  0.3324
 1142YOPC   NC314837   5.481  11.093   5.406  0.2490 -0.2478 -0.1499
 1142YOPC   PO414838   5.829  11.136   5.578  0.1193  0.1013  0.2022
 1142YOPC   GL114839   5.976  11.233   5.917 -0.2208  0.2055 -0.0765
 1142YOPC   GL214840   5.723  11.095   6.115  0.0786  0.2087 -0.0397
 1142YOPC   C1A14841   6.299  11.255   6.349  0.3465  0.2619  0.2265
 1142YOPC   D2A14842   6.455  11.228   6.755  0.0147 -0.0220  0.2238
 1142YOPC   C3A14843   6.613  11.486   7.074 -0.0499 -0.4154  0.0911
 1142YOPC   C4A14844   6.755  11.697   7.331  0.1832  0.0581 -0.0519
 1142YOPC   C1B14845   5.826  11.312   6.468  0.3221 -0.0872 -0.1140
 1142YOPC   C2B14846   5.776  11.447   6.820  0.0888 -0.0629  0.1017
 1142YOPC   D3B14847   6.073  11.663   7.211  0.1419  0.1535  0.0427
 1142YOPC   C4B14848   6.123  11.985   7.532  0.0391  0.0032  0.1044
 1143YOPC   NC314849  11.918   2.563   5.275 -0.3850 -0.1476  0.1438
 1143YOPC   PO414850  11.634   2.584   5.671 -0.2433  0.0202  0.1832
 1143YOPC   GL114851  11.345   2.509   5.995  0.2006 -0.2226  0.3584
 1143YOPC   GL214852  11.224   2.695   6.055 -0.2811 -0.1772 -0.0604
 1143YOPC   C1A14853  11.458   2.305   6.378  0.0345  0.1022 -0.2751
 1143YOPC   D2A14854  11.627   2.039   6.659 -0.0277  0.0113 -0.0182
 1143YOPC   C3A14855  11.542   2.014   7.026 -0.0092  0.1461 -0.0210
 1143YOPC   C4A14856  11.467   1.668   7.341  0.0147  0.0791  0.1479
 1143YOPC   C1B14857  11.100   2.609   6.506 -0.2980  0.0919  0.0122
 1143YOPC   C2B14858  11.054   2.764   6.928 -0.2834 -0.0192  0.1189
 1143YOPC   D3B14859  11.225   2.439   7.246  0.2056  0.3149  0.0534
 1143YOPC   C4B14860  11.367   2.123   7.512 -0.3646 -0.5776 -0.1031
 1144ERGO   ROH14861  13.440   1.218   6.211  0.0135 -0.0924 -0.0464
 1144ERGO    R114862  13.412   0.983   6.366  0.0776 -0.1083 -0.0583
 1144ERGO    R214863  13.600   0.905   6.552  0.0354  0.0055  0.0354
 1144ERGO    R314864  13.386   0.902   6.720 -0.0463 -0.1189 -0.0696
 1144ERGO    R414865  13.616   0.850   6.893 -0.1048 -0.0030  0.0412
 1144ERGO    R514866  13.436   0.728   6.877 -0.0315 -0.0994 -0.0543
 1144ERGO    C114867  13.425   0.815   7.249 -0.2632 -0.1247 -0.0539
 1144ERGO    C214868  13.471   0.982   7.664 -0.2239  0.1141 -0.0322
 1145ERGO   ROH14869   1.331   8.764   6.520  0.1373 -0.2779 -0.1003
 1145ERGO    R114870   1.309   8.596   6.747  0.3222 -0.2096 -0.0299
 1145ERGO    R214871   1.521   8.549   6.918  0.3373  0.2261  0.0854
 1145ERGO    R314872   1.345   8.634   7.108  0.1108  0.0273 -0.0304
 1145ERGO    R414873   1.503   8.426   7.241  0.2556  0.1994  0.0708
 1145ERGO    R514874   1.286   8.435   7.227  0.2512 -0.0437 -0.0762
 1145ERGO    C114875   1.328   8.435   7.607 -0.0046 -0.0028 -0.0464
 1145ERGO    C214876   1.459   8.400   7.959  0.0708  0.4075 -0.1428
 1146ERGO   ROH14877  12.648   4.221   5.949  0.1286  0.0221 -0.0378
 1146ERGO    R114878  12.658   4.020   6.149  0.1933 -0.0461 -0.1078
 1146ERGO    R214879  12.896   3.920   6.247  0.2324  0.0969 -0.0381
 1146ERGO    R314880  12.789   3.990   6.487  0.0683 -0.0672 -0.0627
 1146ERGO    R414881  12.999   3.796   6.553  0.2069  0.1101 -0.0249
 1146ERGO    R514882  12.790   3.787   6.614  0.1945 -0.0952 -0.1167
 1146ERGO    C114883  12.959   3.789   6.956  0.0380 -0.0362 -0.0403
 1146ERGO    C214884  12.899   3.713   7.265 -0.2851 -0.1992 -0.0945
 1147ERGO   ROH14885   0.621   9.981   8.977  0.1367 -0.2757  0.1448
 1147ERGO    R114886   0.765   9.958   8.734 -0.1437 -0.1339 -0.0419
 1147ERGO    R214887   0.675  10.065   8.496 -0.2547  0.3233  0.1917
 1147ERGO    R314888   0.919  10.185   8.495 -0.0923  0.0014  0.1192
 1147ERGO    R414889   0.806  10.243   8.231 -0.1608  0.2805  0.2100
 1147ERGO    R514890   1.000  10.153   8.272 -0.2562  0.0019  0.0602
 1147ERGO    C114891   1.111  10.459   8.075  0.0464 -0.0466  0.1525
 1147ERGO    C214892   1.409  10.543   7.745 -0.1911 -0.2323 -0.1358
 1148ERGO   ROH14893  16.897  11.817   6.739 -0.0478  0.0010  0.0482
 1148ERGO    R114894  16.848  11.725   7.002 -0.1376 -0.0038  0.0321
 1148ERGO    R214895  16.982  11.826   7.222 -0.0456 -0.1619  0.0620
 1148ERGO    R314896  16.731  11.870   7.315 -0.0123  0.0536  0.0499
 1148ERGO    R414897  16.896  11.853   7.556 -0.0646 -0.1303  0.0532
 1148ERGO    R514898  16.716  11.738   7.514 -0.1587  0.0451  0.0247
 1148ERGO    C114899  16.609  11.910   7.837 -0.0443  0.0906  0.0367
 1148ERGO    C214900  16.573  12.222   8.098 -0.0518 -0.2269  0.0202
 1149ERGO   ROH14901   6.868  15.871   5.687  0.0940  0.0883  0.0719
 1149ERGO    R114902   6.873  15.799   5.961  0.0841  0.0118  0.0551
 1149ERGO    R214903   6.699  15.614   6.070  0.0687 -0.0240  0.0056
 1149ERGO    R314904   6.929  15.496   6.154  0.0705 -0.0454 -0.0381
 1149ERGO    R414905   6.725  15.402   6.342  0.1544  0.0902  0.0850
 1149ERGO    R514906   6.914  15.498   6.393  0.1880  0.0572 -0.0419
 1149ERGO    C114907   6.955  15.168   6.580  0.2060  0.1365  0.0902
 1149ERGO    C214908   7.073  14.887   6.777  0.3800  0.0309  0.1666
 1150ERGO   ROH14909  14.773   3.370   7.745 -0.2245  0.2038 -0.0044
 1150ERGO    R114910  14.541   3.271   7.874 -0.1709 -0.0543 -0.1012
 1150ERGO    R214911  14.478   3.002   7.882  0.2639 -0.1549  0.0985
 1150ERGO    R314912  14.467   3.045   8.150 -0.0244  0.0825  0.0537
 1150ERGO    R414913  14.326   2.792   8.110  0.1148 -0.0189  0.1260
 1150ERGO    R514914  14.250   2.968   8.214 -0.0649  0.0512 -0.1029
 1150ERGO    C114915  14.227   2.710   8.494 -0.2427  0.2832  0.0999
 1150ERGO    C214916  14.188   2.461   8.724 -0.4853  0.3990 -0.0805
 1151ERGO   ROH14917  12.547  16.190   5.692  0.2230 -0.0329  0.1125
 1151ERGO    R114918  12.451  16.267   5.947  0.0706  0.1452  0.0046
 1151ERGO    R214919  12.509  16.125   6.177 -0.4621  0.0247  0.0793
 1151ERGO    R314920  12.598  16.366   6.265 -0.1006 -0.1376  0.1746
 1151ERGO    R414921  12.535  16.218   6.509 -0.2456 -0.1646  0.1169
 1151ERGO    R514922  12.461  16.415   6.455  0.0165 -0.0335  0.2306
 1151ERGO    C114923  12.635  16.498   6.784  0.2198 -0.4272  0.2282
 1151ERGO    C214924  12.593  16.591   7.150  0.3229  0.3378 -0.0734
 1152ERGO   ROH14925   3.785  13.932   6.274  0.4476  0.2762  0.1816
 1152ERGO    R114926   3.640  13.882   6.512  0.2302  0.1698  0.0304
 1152ERGO    R214927   3.692  13.664   6.674  0.0914  0.1039 -0.0104
 1152ERGO    R314928   3.716  13.854   6.866 -0.0927  0.0261  0.0916
 1152ERGO    R414929   3.836  13.614   6.983  0.1930  0.0931 -0.0597
 1152ERGO    R514930   3.679  13.736   7.071  0.0683 -0.1301  0.0324
 1152ERGO    C114931   3.944  13.763   7.345  0.0793  0.0138  0.0073
 1152ERGO    C214932   3.874  14.092   7.625 -0.0007 -0.0358  0.1038
 1153ERGO   ROH14933  11.627   7.290   6.292  0.2379 -0.0048  0.0647
 1153ERGO    R114934  11.752   7.310   6.545  0.1416  0.2389  0.0972
 1153ERGO    R214935  11.723   7.530   6.709 -0.2819  0.2175  0.0700
 1153ERGO    R314936  11.645   7.344   6.891 -0.0160  0.0946  0.0623
 1153ERGO    R414937  11.702   7.585   7.050 -0.1775  0.0992  0.0957
 1153ERGO    R514938  11.785   7.385   7.082  0.0292  0.1751  0.0063
 1153ERGO    C114939  11.616   7.442   7.419  0.1328 -0.0851  0.1034
 1153ERGO    C214940  11.540   7.522   7.730 -0.0585 -0.1727  0.1570
 1154ERGO   ROH14941   2.786   9.656   6.260  0.0225  0.0011 -0.0477
 1154ERGO    R114942   2.571   9.743   6.422  0.0145  0.1448 -0.1320
 1154ERGO    R214943   2.590   9.758   6.698 -0.1693 -0.1325 -0.0967
 1154ERGO    R314944   2.510  10.014   6.657  0.2135  0.0191  0.0671
 1154ERGO    R414945   2.473   9.970   6.945 -0.1959 -0.2295 -0.0257
 1154ERGO    R514946   2.323  10.043   6.804  0.0689  0.1114 -0.1363
 1154ERGO    C114947   2.330  10.334   7.050  0.1479 -0.1437  0.1693
 1154ERGO    C214948   2.492  10.483   7.285 -0.0850 -0.0770 -0.2572
 1155ERGO   ROH14949   8.058   2.341   5.922 -0.0005  0.1266 -0.2001
 1155ERGO    R114950   8.049   2.218   6.177 -0.0321  0.1056 -0.2116
 1155ERGO    R214951   8.269   2.095   6.290 -0.0888 -0.0422 -0.2631
 1155ERGO    R314952   8.216   2.263   6.497  0.0515 -0.0306 -0.2350
 1155ERGO    R414953   8.392   2.058   6.611 -0.0021 -0.1166 -0.3039
 1155ERGO    R514954   8.197   2.119   6.687  0.0481 -0.0346 -0.2375
 1155ERGO    C114955   8.413   2.194   6.992  0.1802 -0.1491 -0.3013
 1155ERGO    C214956   8.472   2.064   7.270  0.3689  0.1815  0.1672
 1156ERGO   ROH14957   7.766   0.821   6.102 -0.0406  0.2840  0.1281
 1156ERGO    R114958   7.958   0.780   6.307  0.0352  0.4430  0.0907
 1156ERGO    R214959   7.955   0.922   6.544 -0.2658  0.1857  0.2487
 1156ERGO    R314960   7.954   0.674   6.655  0.2243  0.0504 -0.0216
 1156ERGO    R414961   8.070   0.848   6.861 -0.4048  0.1327  0.2873
 1156ERGO    R514962   8.158   0.665   6.781  0.1304  0.4196  0.1713
 1156ERGO    C114963   8.137   0.572   7.150 -0.0256 -0.0252  0.0562
 1156ERGO    C214964   8.173   0.471   7.408  0.0801  0.1197  0.2188
 1157ERGO   ROH14965  13.603   6.513   6.715 -0.1022  0.1784  0.0320
 1157ERGO    R114966  13.502   6.651   6.941 -0.1467  0.1814  0.0109
 1157ERGO    R214967  13.234   6.652   7.007 -0.1313 -0.0197  0.0956
 1157ERGO    R314968  13.325   6.563   7.247  0.0235  0.1474  0.0999
 1157ERGO    R414969  13.083   6.716   7.312 -0.0603 -0.0033  0.1270
 1157ERGO    R514970  13.282   6.744   7.398 -0.0495  0.1769  0.0409
 1157ERGO    C114971  13.082   6.670   7.715  0.1264  0.1631  0.1493
 1157ERGO    C214972  12.881   6.753   7.887 -0.0505  0.0322  0.3405
 1158ERGO   ROH14973   9.906   8.699   6.049  0.0445 -0.1393  0.0190
 1158ERGO    R114974   9.720   8.613   6.244  0.0220 -0.0350  0.0443
 1158ERGO    R214975   9.789   8.442   6.450 -0.0282 -0.0141  0.0786
 1158ERGO    R314976   9.685   8.639   6.605  0.0434  0.0549  0.0399
 1158ERGO    R414977   9.713   8.410   6.786 -0.0710  0.0716  0.0776
 1158ERGO    R514978   9.532   8.526   6.751 -0.0179  0.1440  0.0449
 1158ERGO    C114979   9.571   8.577   7.127 -0.0288  0.1862  0.0406
 1158ERGO    C214980   9.641   8.463   7.426  0.0729 -0.0445 -0.0742
 1159ERGO   ROH14981   6.168  17.385   7.409 -0.0200  0.1669 -0.1292
 1159ERGO    R114982   5.930  17.539   7.409 -0.0836  0.0693 -0.0727
 1159ERGO    R214983   5.709  17.470   7.560 -0.0083 -0.0030  0.0069
 1159ERGO    R314984   5.734  17.723   7.655 -0.0815  0.0194 -0.0335
 1159ERGO    R414985   5.508  17.609   7.804 -0.0971  0.0034 -0.0694
 1159ERGO    R514986   5.509  17.796   7.690 -0.1045 -0.0178 -0.1036
 1159ERGO    C114987   5.415  17.929   8.035 -0.2174  0.0283 -0.1516
 1159ERGO    C214988   5.390  17.870   8.279 -0.0515  0.0896 -0.0482
 1160ERGO   ROH14989  13.151   9.016   6.840 -0.2585 -0.1276  0.0245
 1160ERGO    R114990  13.111   8.837   7.055 -0.1755 -0.0719  0.0864
 1160ERGO    R214991  13.306   8.785   7.244 -0.1202  0.0175  0.0551
 1160ERGO    R314992  13.111   8.857   7.419 -0.0918  0.0350  0.0805
 1160ERGO    R414993  13.313   8.724   7.584 -0.0370  0.1174  0.0726
 1160ERGO    R514994  13.101   8.675   7.575 -0.0291  0.0801  0.1354
 1160ERGO    C114995  13.133   8.755   7.946  0.0383  0.1919  0.1066
 1160ERGO    C214996  13.070   8.623   8.310 -0.1360  0.1585  0.0721
 1161ERGO   ROH14997   6.169   8.966   6.180  0.0106 -0.0437 -0.2704
 1161ERGO    R114998   6.231   9.147   6.389 -0.1183  0.0051 -0.2713
 1161ERGO    R214999   6.094   9.150   6.629  0.0336 -0.2565 -0.1697
 1161ERGO    R315000   6.343   9.123   6.734  0.1521  0.0868 -0.3527
 1161ERGO    R415001   6.183   9.234   6.953  0.1149 -0.3100 -0.1795
 1161ERGO    R515002   6.370   9.315   6.875 -0.0667  0.0439 -0.2560
 1161ERGO    C115003   6.469   9.258   7.239  0.2735 -0.0188 -0.3570
 1161ERGO    C215004   6.650   9.384   7.489  0.1513 -0.3096  0.0958
 1162ERGO   ROH15005  11.193  14.185   6.015 -0.2398 -0.0806  0.1971
 1162ERGO    R115006  11.247  14.389   6.204 -0.1245 -0.1059  0.1927
 1162ERGO    R215007  11.232  14.347   6.477 -0.0003 -0.1311  0.1968
 1162ERGO    R315008  11.486  14.445   6.473  0.0106 -0.1633  0.0851
 1162ERGO    R415009  11.431  14.393   6.756  0.1053 -0.0902  0.1153
 1162ERGO    R515010  11.501  14.581   6.669  0.0979 -0.1198  0.0479
 1162ERGO    C115011  11.785  14.512   6.914  0.1770 -0.0965 -0.0370
 1162ERGO    C215012  12.088  14.324   7.094 -0.0219  0.2104 -0.0000
 1163ERGO   ROH15013  16.497   1.227   6.892  0.1670  0.1865  0.0389
 1163ERGO    R115014  16.428   1.284   7.161  0.2362  0.1236  0.0703
 1163ERGO    R215015  16.234   1.144   7.298  0.1040  0.2456  0.0096
 1163ERGO    R315016  16.434   1.107   7.479  0.0793 -0.0386 -0.0158
 1163ERGO    R415017  16.187   1.093   7.637  0.0713  0.0907 -0.0170
 1163ERGO    R515018  16.358   1.223   7.675  0.1896 -0.0835  0.0540
 1163ERGO    C115019  16.346   1.030   8.003  0.0292 -0.2662 -0.0563
 1163ERGO    C215020  16.114   0.977   8.205 -0.2754 -0.3208 -0.0442
 1164ERGO   ROH15021   0.290   7.171   6.879 -0.1570  0.0333  0.1914
 1164ERGO    R115022   0.291   7.170   7.162 -0.1028 -0.0590  0.1919
 1164ERGO    R215023   0.522   7.138   7.311 -0.0805 -0.1652  0.1390
 1164ERGO    R315024   0.442   7.370   7.427 -0.0014 -0.1819  0.2272
 1164ERGO    R415025   0.596   7.233   7.634  0.0548 -0.2539  0.1344
 1164ERGO    R515026   0.394   7.310   7.653  0.0752 -0.2281  0.2299
 1164ERGO    C115027   0.564   7.507   7.932  0.2078 -0.3212  0.2146
 1164ERGO    C215028   0.500   7.551   8.272  0.0028 -0.0789  0.1870
 1165ERGO   ROH15029   0.891   3.360   6.593  0.0862  0.0389 -0.0383
 1165ERGO    R115030   0.903   3.461   6.858  0.0658  0.0081 -0.0256
 1165ERGO    R215031   0.708   3.409   7.046  0.0402  0.0045 -0.0537
 1165ERGO    R315032   0.919   3.322   7.193  0.0158 -0.0309 -0.0392
 1165ERGO    R415033   0.714   3.390   7.391 -0.0392 -0.1355 -0.0590
 1165ERGO    R515034   0.919   3.463   7.387 -0.0462 -0.1093  0.0190
 1165ERGO    C115035   0.916   3.297   7.730 -0.1083 -0.2503 -0.0485
 1165ERGO    C215036   0.801   3.241   8.037  0.1156 -0.1172 -0.0338
 1166ERGO   ROH15037   4.631  13.475   5.954  0.1359  0.0220 -0.0265
 1166ERGO    R115038   4.712  13.562   6.211  0.1493 -0.0062 -0.0209
 1166ERGO    R215039   4.539  13.569   6.427  0.1067  0.1576 -0.0565
 1166ERGO    R315040   4.732  13.417   6.544 -0.0353  0.0209  0.0022
 1166ERGO    R415041   4.564  13.508   6.766 -0.1020  0.0387 -0.0608
 1166ERGO    R515042   4.780  13.530   6.750 -0.0831 -0.0696  0.0618
 1166ERGO    C115043   4.759  13.330   7.074 -0.3567 -0.1590 -0.0082
 1166ERGO    C215044   4.896  13.048   7.231 -0.0248 -0.1174 -0.1246
 1167ERGO   ROH15045  11.475  15.317   5.730  0.0205 -0.0716  0.0047
 1167ERGO    R115046  11.507  15.302   6.011  0.1412 -0.2266 -0.0178
 1167ERGO    R215047  11.755  15.280   6.131  0.2087 -0.0061 -0.1317
 1167ERGO    R315048  11.672  15.499   6.269 -0.0066 -0.2015  0.0623
 1167ERGO    R415049  11.899  15.396   6.423  0.4940  0.1956 -0.3455
 1167ERGO    R515050  11.699  15.439   6.499  0.5152 -0.2248  0.0138
 1167ERGO    C115051  11.905  15.670   6.722  0.4579  0.1298 -0.2879
 1167ERGO    C215052  11.897  15.868   7.039  0.0310 -0.2658 -0.1184
 1168ERGO   ROH15053   2.804   5.323   6.581  0.1248  0.1740 -0.0075
 1168ERGO    R115054   2.936   5.210   6.804  0.0734  0.2026  0.0384
 1168ERGO    R215055   3.172   5.314   6.906  0.0825  0.1839  0.0462
 1168ERGO    R315056   3.030   5.318   7.138  0.0476  0.2684  0.0231
 1168ERGO    R415057   3.310   5.302   7.222  0.0218  0.2352  0.0747
 1168ERGO    R515058   3.149   5.169   7.283 -0.0096  0.2845  0.0810
 1168ERGO    C115059   3.258   5.299   7.624 -0.0463  0.3445  0.0696
 1168ERGO    C215060   3.304   5.378   7.952  0.0859 -0.0907  0.2255
 1169ERGO   ROH15061  16.468  18.027   6.524 -0.3353  0.1860  0.0875
 1169ERGO    R115062  16.456  17.926   6.789 -0.4687  0.0496  0.0319
 1169ERGO    R215063  16.636  18.002   6.985 -0.2447 -0.4317  0.0342
 1169ERGO    R315064  16.409  18.063   7.122 -0.0907 -0.0395  0.1259
 1169ERGO    R415065  16.581  17.931   7.319 -0.2831 -0.4478  0.0237
 1169ERGO    R515066  16.376  17.877   7.269 -0.4084 -0.0328  0.0661
 1169ERGO    C115067  16.336  17.947   7.642 -0.1606 -0.0891  0.1035
 1169ERGO    C215068  16.301  18.133   7.914  0.1245 -0.2276 -0.0671
 1170ERGO   ROH15069   1.221  13.300   6.514  0.0043  0.2766  0.1366
 1170ERGO    R115070   1.358  13.396   6.742  0.0924  0.0006  0.2022
 1170ERGO    R215071   1.240  13.565   6.926  0.3297  0.2054  0.1602
 1170ERGO    R315072   1.318  13.374   7.104 -0.0984  0.0421  0.1868
 1170ERGO    R415073   1.300  13.621   7.262  0.6769  0.1911  0.1057
 1170ERGO    R515074   1.472  13.488   7.248  0.3158 -0.3117  0.0539
 1170ERGO    C115075   1.408  13.474   7.624  0.4772  0.0293  0.0990
 1170ERGO    C215076   1.317  13.348   8.015  0.0431 -0.2994  0.0495
 1171ERGO   ROH15077   6.939  12.340   5.952 -0.0006 -0.0055  0.0720
 1171ERGO    R115078   7.093  12.446   6.165  0.0018 -0.1337  0.1340
 1171ERGO    R215079   7.055  12.701   6.264  0.1410 -0.1199  0.1483
 1171ERGO    R315080   7.031  12.570   6.501 -0.0237 -0.1294  0.1281
 1171ERGO    R415081   7.087  12.847   6.576  0.0191 -0.1503  0.1767
 1171ERGO    R515082   7.196  12.670   6.642 -0.0675 -0.1875  0.2231
 1171ERGO    C115083   7.083  12.809   6.979 -0.2065 -0.1772  0.1743
 1171ERGO    C215084   6.933  12.986   7.194 -0.0432  0.3656  0.0480
 1172ERGO   ROH15085  13.866  14.448   6.209  0.0528 -0.0159  0.0511
 1172ERGO    R115086  13.833  14.479   6.488 -0.0968 -0.0424  0.0372
 1172ERGO    R215087  14.033  14.577   6.651 -0.1435 -0.1672  0.1695
 1172ERGO    R315088  13.841  14.754   6.727 -0.1004 -0.0823  0.0842
 1172ERGO    R415089  14.061  14.795   6.918  0.0134  0.1344 -0.0858
 1172ERGO    R515090  13.852  14.753   6.966  0.0397  0.1853  0.0832
 1172ERGO    C115091  13.896  15.088   7.145  0.1451  0.3898 -0.3146
 1172ERGO    C215092  13.914  15.384   7.505  0.2893  0.3473  0.0437
 1173ERGO   ROH15093   8.525  14.335   5.851  0.1339 -0.1659 -0.1550
 1173ERGO    R115094   8.382  14.332   6.096  0.2116  0.0209 -0.1050
 1173ERGO    R215095   8.175  14.155   6.146  0.0052  0.2722 -0.0255
 1173ERGO    R315096   8.324  14.094   6.365  0.0124  0.1004 -0.0779
 1173ERGO    R415097   8.053  14.013   6.436 -0.0109  0.2213 -0.0577
 1173ERGO    R515098   8.182  14.145   6.550  0.0808  0.1006 -0.0298
 1173ERGO    C115099   8.121  13.873   6.810 -0.0136  0.0303 -0.1256
 1173ERGO    C215100   8.127  13.580   7.144 -0.0101 -0.1203  0.2324
 1174ERGO   ROH15101   3.200  11.016   6.064  0.0325 -0.3287 -0.2725
 1174ERGO    R115102   3.338  10.906   6.285 -0.0001 -0.2951 -0.2370
 1174ERGO    R215103   3.272  10.966   6.546  0.2865  0.1467 -0.2624
 1174ERGO    R315104   3.256  10.696   6.571 -0.1654  0.1938  0.0886
 1174ERGO    R415105   3.386  10.787   6.819  0.6743  0.2660 -0.3369
 1174ERGO    R515106   3.460  10.634   6.681  0.0300 -0.0495 -0.3776
 1174ERGO    C115107   3.436  10.428   7.001  0.4758  0.3799 -0.0509
 1174ERGO    C215108   3.569  10.347   7.386 -0.1461 -0.0032  0.1555
 1175ERGO   ROH15109  12.414   2.969   6.138 -0.3971  0.2229 -0.1928
 1175ERGO    R115110  12.193   2.990   6.314 -0.2490  0.0658  0.0188
 1175ERGO    R215111  12.173   2.843   6.547  0.0612  0.0272  0.0272
 1175ERGO    R315112  12.139   3.088   6.660  0.0152 -0.0051  0.0817
 1175ERGO    R415113  12.108   2.898   6.882  0.0309 -0.0604  0.0352
 1175ERGO    R515114  11.967   3.054   6.823  0.0108 -0.0697  0.0627
 1175ERGO    C115115  12.037   3.160   7.183 -0.0300 -0.1417  0.0912
 1175ERGO    C215116  12.155   2.953   7.435  0.0353  0.1520 -0.2437
 1176ERGO   ROH15117  14.577   7.323   6.649 -0.0489 -0.0463  0.0509
 1176ERGO    R115118  14.468   7.233   6.894 -0.1504  0.0356  0.0367
 1176ERGO    R215119  14.421   6.965   6.947 -0.1366  0.0491  0.1211
 1176ERGO    R315120  14.573   7.015   7.166 -0.2455  0.1583  0.1730
 1176ERGO    R415121  14.358   6.842   7.263 -0.1818  0.0414  0.1090
 1176ERGO    R515122  14.415   7.036   7.345 -0.3241  0.0831  0.1131
 1176ERGO    C115123  14.464   6.818   7.654 -0.3105  0.1393  0.1507
 1176ERGO    C215124  14.375   6.854   8.052 -0.0240  0.0557  0.1040
 1177ERGO   ROH15125   9.274  10.202   6.273 -0.1018  0.0606 -0.1096
 1177ERGO    R115126   9.253  10.038   6.503 -0.1096 -0.0105 -0.1611
 1177ERGO    R215127   9.430  10.054   6.714 -0.0991 -0.0977 -0.1650
 1177ERGO    R315128   9.203  10.089   6.860 -0.0881 -0.1199 -0.1416
 1177ERGO    R415129   9.419  10.098   7.057 -0.0457  0.1441 -0.1916
 1177ERGO    R515130   9.243   9.969   7.063  0.0251  0.0473 -0.0616
 1177ERGO    C115131   9.199  10.155   7.393 -0.0045  0.2643 -0.1852
 1177ERGO    C215132   9.257  10.200   7.687  0.0654  0.1385  0.1577
 1178ERGO   ROH15133   0.532  10.614   7.170  0.0460  0.0937  0.1393
 1178ERGO    R115134   0.551  10.555   7.446 -0.0370  0.1742  0.1622
 1178ERGO    R215135   0.379  10.664   7.633 -0.3259 -0.0521  0.0336
 1178ERGO    R315136   0.338  10.404   7.700  0.0322 -0.1090  0.0559
 1178ERGO    R415137   0.315  10.550   7.953 -0.2633 -0.0950  0.0312
 1178ERGO    R515138   0.445  10.379   7.913  0.0043  0.0818  0.0966
 1178ERGO    C115139   0.239  10.239   8.202  0.1093 -0.1734  0.0507
 1178ERGO    C215140   0.189  10.166   8.534 -0.0178 -0.0201 -0.3627
 1179ERGO   ROH15141  14.310  12.871   6.497  0.1383 -0.0287  0.1374
 1179ERGO    R115142  14.300  13.035   6.727  0.0972 -0.0859  0.1770
 1179ERGO    R215143  14.065  13.092   6.860  0.0383  0.0681  0.0143
 1179ERGO    R315144  14.201  12.997   7.075 -0.2001 -0.1065  0.0921
 1179ERGO    R415145  13.968  13.135   7.189 -0.0269  0.2976 -0.0329
 1179ERGO    R515146  14.178  13.169   7.241  0.0104 -0.0291  0.0428
 1179ERGO    C115147  14.040  13.070   7.583 -0.2888  0.2673  0.0125
 1179ERGO    C215148  13.899  13.185   7.929 -0.2093 -0.0575 -0.0803
 1180ERGO   ROH15149   9.819   1.447   5.913  0.2902 -0.1894  0.0965
 1180ERGO    R115150   9.892   1.470   6.185  0.2004  0.0246  0.1038
 1180ERGO    R215151  10.055   1.673   6.279  0.1210  0.1282  0.0079
 1180ERGO    R315152   9.849   1.716   6.451  0.0615  0.2063 -0.0811
 1180ERGO    R415153  10.090   1.733   6.617  0.0111  0.0893  0.0264
 1180ERGO    R515154   9.916   1.606   6.653 -0.0666  0.1579 -0.0578
 1180ERGO    C115155   9.916   1.808   6.976 -0.1086  0.1399 -0.0464
 1180ERGO    C215156   9.905   1.751   7.362  0.1105 -0.3883 -0.2198
 1181ERGO   ROH15157   5.739  15.146   6.207 -0.1596  0.4330 -0.0282
 1181ERGO    R115158   5.655  15.068   6.466 -0.1456  0.3262 -0.0535
 1181ERGO    R215159   5.831  15.039   6.677 -0.0893 -0.0197 -0.1297
 1181ERGO    R315160   5.661  15.212   6.800  0.1358  0.0760  0.0495
 1181ERGO    R415161   5.732  15.018   7.008 -0.1096 -0.2063 -0.1474
 1181ERGO    R515162   5.531  15.074   6.946 -0.0341  0.1083 -0.0820
 1181ERGO    C115163   5.515  15.169   7.315  0.0899 -0.2251  0.0105
 1181ERGO    C215164   5.494  15.360   7.662 -0.0988  0.3316  0.0138
 1182ERGO   ROH15165  10.568   6.750   6.301 -0.2306  0.2074 -0.0078
 1182ERGO    R115166  10.639   6.855   6.555 -0.3259  0.1191  0.0554
 1182ERGO    R215167  10.457   6.880   6.761 -0.3275 -0.2693  0.1059
 1182ERGO    R315168  10.641   6.736   6.899 -0.1113 -0.1278 -0.0271
 1182ERGO    R415169  10.429   6.793   7.094 -0.0073 -0.2673  0.1369
 1182ERGO    R515170  10.642   6.835   7.117 -0.0139 -0.1098 -0.0325
 1182ERGO    C115171  10.585   6.606   7.417  0.3820 -0.1332  0.0302
 1182ERGO    C215172  10.556   6.570   7.764 -0.2155  0.1414 -0.4260
 1183ERGO   ROH15173   6.580   2.452   6.030  0.1203 -0.0968 -0.0947
 1183ERGO    R115174   6.585   2.549   6.296 -0.0329 -0.1096 -0.0845
 1183ERGO    R215175   6.564   2.383   6.515  0.0125 -0.1439 -0.0940
 1183ERGO    R315176   6.795   2.506   6.589 -0.0938  0.0134 -0.0256
 1183ERGO    R415177   6.719   2.343   6.822  0.0760 -0.1947 -0.1335
 1183ERGO    R515178   6.763   2.557   6.821 -0.1167 -0.1636  0.0033
 1183ERGO    C115179   7.025   2.435   7.070  0.0131 -0.0767 -0.0924
 1183ERGO    C215180   7.042   2.428   7.434  0.1396  0.0109 -0.2830
 1184ERGO   ROH15181  14.066   5.123   6.373  0.2340 -0.1950  0.0387
 1184ERGO    R115182  13.940   5.098   6.625  0.1349  0.0524  0.0163
 1184ERGO    R215183  13.933   4.859   6.765 -0.2906  0.0828  0.0498
 1184ERGO    R315184  14.041   5.010   6.964 -0.0831 -0.0660  0.0550
 1184ERGO    R415185  13.942   4.769   7.098 -0.5468  0.1006  0.0635
 1184ERGO    R515186  13.894   4.975   7.150 -0.2101  0.2051  0.0195
 1184ERGO    C115187  14.047   4.857   7.479 -0.5012 -0.0287  0.0763
 1184ERGO    C215188  14.297   4.872   7.714  0.0819  0.2687  0.0847
 1185ERGO   ROH15189   4.037   4.723   6.995  0.2080  0.2256 -0.0702
 1185ERGO    R115190   4.104   4.600   7.241  0.0820  0.2593 -0.0188
 1185ERGO    R215191   4.244   4.363   7.256 -0.2101  0.0885  0.0781
 1185ERGO    R315192   4.409   4.508   7.416 -0.0103 -0.0375 -0.0089
 1185ERGO    R415193   4.476   4.228   7.474 -0.4348 -0.1048  0.2023
 1185ERGO    R515194   4.421   4.381   7.619 -0.2262  0.0881  0.0863
 1185ERGO    C115195   4.766   4.285   7.752 -0.3781 -0.3357  0.1929
 1185ERGO    C215196   5.119   4.297   7.968  0.0264 -0.3435  0.0866
 1186ERGO   ROH15197   1.881  11.269   6.351  0.1323 -0.3257 -0.0116
 1186ERGO    R115198   1.939  11.155   6.604 -0.0218 -0.2336  0.0665
 1186ERGO    R215199   2.103  11.280   6.789  0.0337 -0.2636  0.0329
 1186ERGO    R315200   1.888  11.245   6.953 -0.0336  0.0018  0.0067
 1186ERGO    R415201   2.115  11.288   7.134  0.0029 -0.2693  0.0349
 1186ERGO    R515202   1.975  11.121   7.138 -0.2056 -0.1027  0.0215
 1186ERGO    C115203   1.921  11.260   7.489 -0.0782 -0.0236  0.0115
 1186ERGO    C215204   1.979  11.089   7.886  0.2313 -0.3442 -0.0895
 1187ERGO   ROH15205   2.670   6.720   6.720  0.0725 -0.1121  0.1734
 1187ERGO    R115206   2.687   6.634   6.989  0.2297  0.0504  0.2157
 1187ERGO    R215207   2.762   6.804   7.194  0.0262  0.2613  0.1126
 1187ERGO    R315208   2.527   6.721   7.305  0.1543 -0.0068  0.1956
 1187ERGO    R415209   2.718   6.720   7.527  0.2072  0.3960  0.1724
 1187ERGO    R515210   2.592   6.554   7.464  0.4247  0.1715  0.2867
 1187ERGO    C115211   2.473   6.594   7.824  0.4329  0.2228  0.2851
 1187ERGO    C215212   2.577   6.528   8.104  0.1640  0.1554  0.2989
 1188ERGO   ROH15213  10.847  10.601   6.973 -0.0679  0.1350 -0.0056
 1188ERGO    R115214  10.847  10.518   7.244 -0.1587 -0.0596 -0.0632
 1188ERGO    R215215  10.850  10.697   7.454  0.2457 -0.2058  0.0641
 1188ERGO    R315216  10.630  10.558   7.533 -0.0127  0.1629  0.0182
 1188ERGO    R415217  10.718  10.701   7.774  0.2728 -0.0937  0.0745
 1188ERGO    R515218  10.681  10.487   7.756 -0.1255 -0.0272 -0.0142
 1188ERGO    C115219  10.434  10.573   8.033  0.0460  0.3177  0.0374
 1188ERGO    C215220  10.231  10.606   8.271  0.4394 -0.0562  0.1494
 1189ERGO   ROH15221   7.050   9.463   6.176  0.1260 -0.0212 -0.1871
 1189ERGO    R115222   7.068   9.237   6.345  0.1899 -0.0194 -0.1915
 1189ERGO    R215223   7.307   9.105   6.392  0.2507  0.1230 -0.0958
 1189ERGO    R315224   7.243   9.151   6.653  0.1101  0.0709 -0.1199
 1189ERGO    R415225   7.522   9.059   6.658  0.1020  0.0500  0.0134
 1189ERGO    R515226   7.356   8.976   6.772  0.0324  0.0366 -0.0956
 1189ERGO    C115227   7.588   9.075   7.058 -0.1165 -0.0414  0.0544
 1189ERGO    C215228   7.740   9.066   7.423  0.1184 -0.5277 -0.0465
 1190ERGO   ROH15229   1.704  15.421   6.458 -0.3584 -0.0980  0.1559
 1190ERGO    R115230   1.624  15.265   6.681 -0.2568 -0.0422  0.2325
 1190ERGO    R215231   1.731  15.016   6.734 -0.3146 -0.0807  0.1823
 1190ERGO    R315232   1.785  15.126   6.977 -0.0925 -0.0710  0.1299
 1190ERGO    R415233   1.818  14.839   7.018 -0.1920 -0.0752  0.1484
 1190ERGO    R515234   1.692  14.973   7.135 -0.0479 -0.0041  0.2186
 1190ERGO    C115235   1.919  14.840   7.411  0.0880 -0.0631  0.0795
 1190ERGO    C215236   1.960  14.635   7.710 -0.0778 -0.0200 -0.0178
 1191ERGO   ROH15237   0.385  15.087   6.184  0.2035  0.3272 -0.0890
 1191ERGO    R115238   0.451  15.211   6.429  0.1122  0.2656 -0.0339
 1191ERGO    R215239   0.322  15.437   6.521 -0.0132  0.1599  0.0387
 1191ERGO    R315240   0.281  15.285   6.743  0.0414  0.0565 -0.0202
 1191ERGO    R415241   0.311  15.558   6.845 -0.1343  0.0465  0.0790
 1191ERGO    R515242   0.423  15.382   6.909 -0.0381  0.0862  0.0355
 1191ERGO    C115243   0.267  15.485   7.241 -0.1535 -0.1165  0.0471
 1191ERGO    C215244   0.164  15.683   7.548  0.1983  0.1546  0.2225
 1192ERGO   ROH15245   0.557  14.179   6.554  0.0258 -0.1447  0.2251
 1192ERGO    R115246   0.476  14.185   6.825 -0.0149 -0.0884  0.2126
 1192ERGO    R215247   0.645  14.263   7.029 -0.0143 -0.1422  0.2337
 1192ERGO    R315248   0.443  14.436   7.086  0.0497 -0.0531  0.1873
 1192ERGO    R415249   0.588  14.403   7.340 -0.0055 -0.1026  0.2166
 1192ERGO    R515250   0.374  14.375   7.307 -0.0136 -0.0132  0.1795
 1192ERGO    C115251   0.365  14.648   7.574  0.0598  0.0041  0.1629
 1192ERGO    C215252   0.369  14.715   7.830  0.1008 -0.0169  0.1351
 1193ERGO   ROH15253   3.302  16.006   6.170 -0.1813  0.2463 -0.0599
 1193ERGO    R115254   3.143  15.945   6.396 -0.0760 -0.0363 -0.0580
 1193ERGO    R215255   3.181  15.717   6.547  0.2979  0.0007 -0.0878
 1193ERGO    R315256   3.199  15.895   6.752  0.0241  0.0082 -0.0664
 1193ERGO    R415257   3.115  15.644   6.878  0.0376 -0.0415 -0.1463
 1193ERGO    R515258   3.017  15.838   6.896 -0.0797 -0.0896 -0.2296
 1193ERGO    C115259   3.094  15.769   7.264 -0.3709 -0.0591 -0.1603
 1193ERGO    C215260   3.249  15.942   7.526 -0.0145 -0.1218 -0.1243
 1194ERGO   ROH15261   3.636   9.233   6.229  0.0114 -0.3227  0.0453
 1194ERGO    R115262   3.563   9.375   6.464  0.0579 -0.2145 -0.0044
 1194ERGO    R215263   3.513   9.249   6.704 -0.0931 -0.1240  0.0167
 1194ERGO    R315264   3.701   9.422   6.797  0.0142 -0.2396  0.0161
 1194ERGO    R415265   3.541   9.352   7.033 -0.1852  0.0612 -0.0325
 1194ERGO    R515266   3.585   9.553   6.961  0.0434 -0.0265 -0.1340
 1194ERGO    C115267   3.734   9.574   7.312 -0.1382  0.0604 -0.0616
 1194ERGO    C215268   3.656   9.896   7.640  0.1807  0.1372  0.1480
 1195ERGO   ROH15269   1.986   5.853   6.570  0.0016 -0.0376  0.1333
 1195ERGO    R115270   1.924   5.790   6.839  0.0025 -0.0307  0.1349
 1195ERGO    R215271   2.119   5.738   7.028  0.0020 -0.0460  0.1301
 1195ERGO    R315272   1.992   5.935   7.166  0.0220 -0.0347  0.1328
 1195ERGO    R415273   2.168   5.805   7.363  0.0625 -0.0094  0.1143
 1195ERGO    R515274   1.953   5.839   7.383  0.0647 -0.0135  0.1505
 1195ERGO    C115275   2.078   6.030   7.689  0.1165  0.0224  0.1075
 1195ERGO    C215276   2.313   6.136   7.964  0.0211  0.0217  0.2465
 1196ERGO   ROH15277   8.021   7.333   6.420  0.0109  0.0498 -0.0631
 1196ERGO    R115278   8.007   7.247   6.689 -0.0346  0.0216 -0.0745
 1196ERGO    R215279   8.208   7.297   6.872 -0.0090 -0.1059 -0.0675
 1196ERGO    R315280   8.005   7.404   7.018  0.0454 -0.0199 -0.0537
 1196ERGO    R415281   8.244   7.448   7.181  0.0838 -0.0690 -0.0957
 1196ERGO    R515282   8.059   7.351   7.245  0.0624 -0.0019 -0.0532
 1196ERGO    C115283   8.074   7.636   7.498  0.1891  0.0333 -0.0991
 1196ERGO    C215284   8.160   7.687   7.847 -0.0793 -0.0062  0.6356
 1197ERGO   ROH15285  16.639   4.737   6.413 -0.2183 -0.1791 -0.1110
 1197ERGO    R115286  16.626   4.811   6.686 -0.1427 -0.1364 -0.1186
 1197ERGO    R215287  16.595   4.626   6.889  0.1014 -0.1230 -0.0661
 1197ERGO    R315288  16.819   4.745   6.987  0.0584  0.0721 -0.1988
 1197ERGO    R415289  16.634   4.737   7.214  0.1669 -0.0109 -0.1120
 1197ERGO    R515290  16.737   4.913   7.137 -0.0006  0.0487 -0.2046
 1197ERGO    C115291  16.867   4.913   7.495  0.1645  0.2376 -0.2633
 1197ERGO    C215292  17.035   4.966   7.837 -0.1937 -0.1551  0.1916
 1198ERGO   ROH15293  15.683   2.426   6.648 -0.2852 -0.1670 -0.1233
 1198ERGO    R115294  15.539   2.527   6.870 -0.2186 -0.1249 -0.0970
 1198ERGO    R215295  15.509   2.384   7.105 -0.1344 -0.0768 -0.0483
 1198ERGO    R315296  15.611   2.610   7.217 -0.1044 -0.0454 -0.1416
 1198ERGO    R415297  15.456   2.484   7.432  0.0705 -0.0405 -0.0259
 1198ERGO    R515298  15.437   2.689   7.361 -0.0160 -0.0595 -0.0343
 1198ERGO    C115299  15.521   2.753   7.727  0.2179  0.0101 -0.1004
 1198ERGO    C215300  15.396   2.981   8.045  0.0487  0.2837  0.2887
 1199ERGO   ROH15301   4.027   9.430   6.420 -0.1290  0.2737 -0.1219
 1199ERGO    R115302   4.141   9.442   6.679 -0.1716  0.2844 -0.1034
 1199ERGO    R215303   4.202   9.682   6.804 -0.3155  0.2933 -0.0481
 1199ERGO    R315304   4.047   9.579   7.003 -0.2897  0.1729 -0.0895
 1199ERGO    R415305   4.273   9.704   7.141 -0.2572  0.0659 -0.0440
 1199ERGO    R515306   4.204   9.499   7.165 -0.2681  0.0545 -0.1678
 1199ERGO    C115307   4.169   9.621   7.524 -0.1990 -0.1795 -0.0803
 1199ERGO    C215308   4.068   9.578   7.840 -0.0237  0.1192  0.0691
 1200ERGO   ROH15309   7.010   9.877   6.078 -0.3201 -0.0242  0.0073
 1200ERGO    R115310   7.057  10.091   6.259 -0.1866 -0.0561  0.0112
 1200ERGO    R215311   6.882  10.153   6.463 -0.0940 -0.0163  0.0747
 1200ERGO    R315312   7.104  10.128   6.618 -0.0503 -0.1016 -0.0004
 1200ERGO    R415313   6.967  10.365   6.722  0.0282 -0.0878  0.0940
 1200ERGO    R515314   7.175  10.353   6.657  0.0098 -0.1212  0.0247
 1200ERGO    C115315   7.225  10.465   7.018  0.1403 -0.2097  0.0349
 1200ERGO    C215316   7.161  10.744   7.119  0.3927 -0.1486  0.4730
 1201ERGO   ROH15317   5.738  14.214   5.883 -0.0032  0.1347 -0.0605
 1201ERGO    R115318   5.929  14.272   6.084 -0.0132  0.0484 -0.0244
 1201ERGO    R215319   5.999  14.530   6.152  0.1215  0.0206 -0.0376
 1201ERGO    R315320   5.933  14.448   6.403  0.0139  0.0839 -0.0457
 1201ERGO    R415321   6.090  14.692   6.444  0.1872 -0.0378 -0.0263
 1201ERGO    R515322   6.127  14.497   6.534  0.0229 -0.0575 -0.0109
 1201ERGO    C115323   6.081  14.709   6.849  0.1244 -0.0126 -0.0273
 1201ERGO    C215324   6.162  14.909   7.224  0.0602  0.2625  0.4836
 1202ERGO   ROH15325  17.240   1.886   6.612  0.0789 -0.0023  0.0316
 1202ERGO    R115326  17.213   1.789   6.876  0.3309  0.0688  0.0871
 1202ERGO    R215327  17.368   1.882   7.086  0.1491  0.5400  0.0275
 1202ERGO    R315328  17.126   1.927   7.202  0.0445  0.0474  0.0212
 1202ERGO    R415329  17.317   1.928   7.424  0.0360  0.3954  0.0303
 1202ERGO    R515330  17.136   1.807   7.409  0.2707  0.0359  0.0041
 1202ERGO    C115331  17.061   1.997   7.731 -0.1277 -0.1513  0.0260
 1202ERGO    C215332  17.181   2.130   8.147 -0.0093 -0.1758  0.0979
 1203ERGO   ROH15333   1.163  17.399   6.128  0.2664  0.0517 -0.1594
 1203ERGO    R115334   1.192  17.545   6.368  0.2809  0.0524 -0.1612
 1203ERGO    R215335   1.002  17.540   6.569  0.1044  0.3550 -0.3105
 1203ERGO    R315336   1.215  17.469   6.723 -0.1156  0.0743 -0.1271
 1203ERGO    R415337   1.049  17.635   6.898 -0.0055  0.3695 -0.2990
 1203ERGO    R515338   1.260  17.663   6.855  0.0743  0.0419 -0.1444
 1203ERGO    C115339   1.275  17.623   7.234 -0.2761  0.1141 -0.1200
 1203ERGO    C215340   1.178  17.887   7.478 -0.1520 -0.1217 -0.1891
 1204ERGO   ROH15341  12.609   5.550   6.356 -0.3099 -0.1989 -0.0583
 1204ERGO    R115342  12.608   5.465   6.627 -0.1824 -0.0776 -0.0191
 1204ERGO    R215343  12.423   5.556   6.811 -0.2220 -0.1515 -0.0233
 1204ERGO    R315344  12.379   5.290   6.848  0.0106 -0.1738  0.1073
 1204ERGO    R415345  12.264   5.418   7.085 -0.1048 -0.1558  0.0431
 1204ERGO    R515346  12.411   5.257   7.083  0.0380 -0.0299  0.1252
 1204ERGO    C115347  12.131   5.088   7.280  0.1819 -0.1792  0.2044
 1204ERGO    C215348  11.985   4.826   7.289 -0.0878  0.3034  0.2049
 1205ERGO   ROH15349   4.577   6.207   6.373  0.0774  0.0301  0.0504
 1205ERGO    R115350   4.670   6.258   6.636 -0.0722  0.2854  0.0570
 1205ERGO    R215351   4.509   6.369   6.831 -0.3928 -0.1281  0.0455
 1205ERGO    R315352   4.585   6.150   6.972  0.1843  0.0588  0.0517
 1205ERGO    R415353   4.549   6.359   7.174 -0.2853  0.0009  0.0369
 1205ERGO    R515354   4.726   6.236   7.145  0.0203  0.4276  0.0098
 1205ERGO    C115355   4.643   6.147   7.507  0.3192  0.2515  0.0378
 1205ERGO    C215356   4.501   6.083   7.906 -0.1319  0.1753  0.1208
 1206ERGO   ROH15357   0.335  14.316   9.901 -0.3038  0.0932  0.1216
 1206ERGO    R115358   0.163  14.285   9.679 -0.2140  0.4168  0.0021
 1206ERGO    R215359   0.176  14.448   9.456  0.4220  0.2414 -0.1014
 1206ERGO    R315360   0.199  14.211   9.324 -0.1158  0.0738  0.0790
 1206ERGO    R415361   0.103  14.400   9.122  0.4356  0.1927 -0.0981
 1206ERGO    R515362   0.012  14.209   9.174 -0.0750  0.4406  0.0083
 1206ERGO    C115363   0.081  14.150   8.803 -0.0615  0.0072  0.0731
 1206ERGO    C215364   0.016  14.304   8.467 -0.0348  0.0298 -0.4351
 1207ERGO   ROH15365  18.375   2.010   6.966  0.0758  0.0962 -0.1718
 1207ERGO    R115366  18.471   1.846   7.176 -0.0449 -0.0206 -0.2084
 1207ERGO    R215367  18.538   1.946   7.424  0.0682 -0.1174 -0.2045
 1207ERGO    R315368  18.363   1.756   7.512 -0.0865  0.0179 -0.2102
 1207ERGO    R415369  18.507   1.841   7.752 -0.0313 -0.0848 -0.2016
 1207ERGO    R515370  18.484   1.637   7.680 -0.1856 -0.0732 -0.1989
 1207ERGO    C115371  18.326   1.602   8.025 -0.2344  0.0612 -0.2052
 1207ERGO    C215372  18.145   1.486   8.259  0.1896 -0.1756  0.0592
 1208ERGO   ROH15373   0.864   2.971   6.903 -0.3038 -0.0438 -0.0127
 1208ERGO    R115374   0.950   2.854   7.146 -0.1128 -0.1004 -0.1060
 1208ERGO    R215375   1.207   2.883   7.243 -0.1201  0.1286 -0.1547
 1208ERGO    R315376   1.079   2.972   7.465 -0.1671 -0.1524 -0.0643
 1208ERGO    R415377   1.349   2.904   7.557  0.0391  0.3792 -0.2398
 1208ERGO    R515378   1.162   2.832   7.641  0.2286 -0.0128 -0.1281
 1208ERGO    C115379   1.312   3.000   7.949  0.0877  0.2614 -0.2045
 1208ERGO    C215380   1.239   3.076   8.185 -0.2789 -0.3675  0.1257
 1209ERGO   ROH15381  17.972   9.589   6.927 -0.2132 -0.1596 -0.2614
 1209ERGO    R115382  17.977   9.463   7.181 -0.1072 -0.0124 -0.1886
 1209ERGO    R215383  17.909   9.198   7.217 -0.1122  0.0103 -0.0016
 1209ERGO    R315384  18.154   9.185   7.334 -0.0584  0.0634 -0.1076
 1209ERGO    R415385  17.982   9.019   7.504  0.0422  0.0723 -0.0015
 1209ERGO    R515386  18.108   9.185   7.569  0.0484  0.0988 -0.0878
 1209ERGO    C115387  18.254   8.903   7.781  0.1823  0.1582 -0.1009
 1209ERGO    C215388  18.393   8.647   7.848  0.3452  0.0184 -0.1736
 1210ERGO   ROH15389   6.128   8.079   6.529 -0.1670 -0.0378 -0.0286
 1210ERGO    R115390   6.109   8.170   6.797 -0.0628 -0.1887  0.0315
 1210ERGO    R215391   6.260   8.063   7.002  0.1877 -0.1486 -0.1295
 1210ERGO    R315392   6.331   8.322   7.041 -0.0307 -0.0976 -0.0538
 1210ERGO    R415393   6.388   8.191   7.297  0.3231 -0.1853 -0.1711
 1210ERGO    R515394   6.266   8.369   7.267  0.1200 -0.2845  0.0314
 1210ERGO    C115395   6.529   8.508   7.505  0.1968 -0.1588 -0.1244
 1210ERGO    C215396   6.556   8.784   7.662 -0.0302  0.2291  0.1434
 1211ERGO   ROH15397   7.062   6.660   6.168 -0.0350  0.1889 -0.1259
 1211ERGO    R115398   7.099   6.839   6.385 -0.0786  0.1160 -0.0583
 1211ERGO    R215399   6.903   6.886   6.573 -0.0415 -0.1077  0.0381
 1211ERGO    R315400   7.099   6.817   6.748  0.0736 -0.0503 -0.0666
 1211ERGO    R415401   6.889   6.936   6.915  0.1195 -0.1240  0.0477
 1211ERGO    R515402   7.100   6.994   6.910  0.0997 -0.0547 -0.0606
 1211ERGO    C115403   7.066   6.900   7.278  0.3212 -0.0795 -0.0450
 1211ERGO    C215404   7.073   6.685   7.638 -0.1015  0.1213 -0.0081
 1212ERGO   ROH15405  15.519   0.234   6.481 -0.1772 -0.1135  0.0921
 1212ERGO    R115406  15.435   0.438   6.659 -0.1222 -0.1108  0.1158
 1212ERGO    R215407  15.254   0.393   6.863 -0.0598 -0.1078  0.1734
 1212ERGO    R315408  15.451   0.501   7.017 -0.0109 -0.1067  0.1102
 1212ERGO    R415409  15.230   0.449   7.203 -0.0223  0.0752  0.1469
 1212ERGO    R515410  15.334   0.638   7.174  0.0511  0.0196  0.0462
 1212ERGO    C115411  15.401   0.582   7.546  0.0455  0.1827  0.0722
 1212ERGO    C215412  15.407   0.563   7.852  0.1309 -0.0096 -0.0487
 1213ERGO   ROH15413   7.987  10.257   6.097  0.0844 -0.2376 -0.1625
 1213ERGO    R115414   7.966  10.232   6.379 -0.0042 -0.1555 -0.1611
 1213ERGO    R215415   8.164  10.116   6.532 -0.1133 -0.2384 -0.0806
 1213ERGO    R315416   8.151  10.350   6.669 -0.0068 -0.1948 -0.1439
 1213ERGO    R415417   8.187  10.146   6.876 -0.1476 -0.1563 -0.0854
 1213ERGO    R515418   8.030  10.297   6.868 -0.0645 -0.0743 -0.1475
 1213ERGO    C115419   8.188  10.385   7.204 -0.0678 -0.0675 -0.1475
 1213ERGO    C215420   8.277  10.562   7.549  0.3185 -0.3252  0.2658
 1214ERGO   ROH15421   9.615   7.121   6.202 -0.0680  0.0462 -0.0178
 1214ERGO    R115422   9.695   7.118   6.473 -0.1109 -0.0833 -0.0061
 1214ERGO    R215423   9.707   7.347   6.627  0.0752 -0.1249  0.0419
 1214ERGO    R315424   9.546   7.205   6.794 -0.0810 -0.0136 -0.0108
 1214ERGO    R415425   9.689   7.391   6.970 -0.0223 -0.1008  0.0343
 1214ERGO    R515426   9.677   7.175   6.992 -0.1731 -0.0934  0.0392
 1214ERGO    C115427   9.527   7.284   7.325 -0.2255  0.0178 -0.0196
 1214ERGO    C215428   9.645   7.197   7.597 -0.1133 -0.1319 -0.0072
 1215ERGO   ROH15429   5.392   3.185   6.154  0.0810  0.1183 -0.1260
 1215ERGO    R115430   5.431   3.020   6.380 -0.0421  0.0294 -0.1690
 1215ERGO    R215431   5.680   2.978   6.492 -0.1109  0.0246 -0.0226
 1215ERGO    R315432   5.556   3.060   6.719 -0.2738 -0.0949 -0.0651
 1215ERGO    R415433   5.744   2.852   6.807 -0.0701  0.1009 -0.0001
 1215ERGO    R515434   5.530   2.859   6.848 -0.0991 -0.1255 -0.0683
 1215ERGO    C115435   5.666   2.856   7.204 -0.1994  0.0332 -0.0270
 1215ERGO    C215436   5.636   2.802   7.539  0.3230 -0.0620 -0.0950
 1216ERGO   ROH15437   8.611  17.494   5.648 -0.0455 -0.2102 -0.0128
 1216ERGO    R115438   8.581  17.576   5.917 -0.0621 -0.0517 -0.0607
 1216ERGO    R215439   8.407  17.451   6.092 -0.0178 -0.0019  0.0272
 1216ERGO    R315440   8.630  17.427   6.245 -0.0010  0.1655  0.0290
 1216ERGO    R415441   8.414  17.321   6.412  0.1200 -0.2265 -0.0652
 1216ERGO    R515442   8.555  17.477   6.467 -0.0814 -0.0895  0.0588
 1216ERGO    C115443   8.627  17.223   6.743  0.2162 -0.2002 -0.1173
 1216ERGO    C215444   8.799  16.891   6.970  0.3065  0.0313  0.1894
 1217ERGO   ROH15445  13.580  18.567   6.150 -0.2578 -0.2061 -0.2529
 1217ERGO    R115446  13.466  18.610   6.406 -0.2050 -0.1427 -0.2389
 1217ERGO    R215447  13.257  18.457   6.502 -0.0980 -0.2086 -0.1014
 1217ERGO    R315448  13.425  18.418   6.713 -0.0119 -0.0171 -0.1340
 1217ERGO    R415449  13.186  18.262   6.779  0.1200 -0.1626 -0.0116
 1217ERGO    R515450  13.281  18.414   6.904  0.0475 -0.0531 -0.0924
 1217ERGO    C115451  13.302  18.113   7.138  0.3278  0.0439  0.0100
 1217ERGO    C215452  13.234  18.045   7.429 -0.0736 -0.2089  0.0207
 1218ERGO   ROH15453  18.210   2.456   6.933  0.1218  0.0781  0.0199
 1218ERGO    R115454  18.087   2.403   7.183  0.0647  0.1360  0.0043
 1218ERGO    R215455  18.219   2.280   7.391 -0.0292  0.0410  0.0114
 1218ERGO    R315456  18.139   2.500   7.529  0.0899  0.0824  0.0147
 1218ERGO    R415457  18.246   2.319   7.734  0.1205  0.0866 -0.0050
 1218ERGO    R515458  18.050   2.413   7.734  0.1494  0.1406  0.0635
 1218ERGO    C115459  18.187   2.549   8.062  0.3198  0.1520 -0.0115
 1218ERGO    C215460  18.235   2.493   8.369 -0.1634 -0.0913 -0.0398
 1219ERGO   ROH15461  17.689   4.989   6.664  0.1933 -0.3665  0.1389
 1219ERGO    R115462  17.760   4.848   6.899  0.4786 -0.0461  0.2527
 1219ERGO    R215463  17.896   4.968   7.108 -0.0084  0.4846  0.2948
 1219ERGO    R315464  17.687   4.874   7.254  0.1620 -0.0914  0.1927
 1219ERGO    R415465  17.884   4.958   7.454 -0.1527  0.4416  0.2892
 1219ERGO    R515466  17.789   4.763   7.440  0.3771  0.1731  0.2354
 1219ERGO    C115467  17.681   4.864   7.792 -0.0767 -0.1241  0.1902
 1219ERGO    C215468  17.539   5.174   8.035 -0.3474  0.1422  0.2485
 1220ERGO   ROH15469   6.125   1.970   6.071 -0.0003  0.1522  0.0294
 1220ERGO    R115470   6.165   1.895   6.340 -0.1332  0.0993  0.0345
 1220ERGO    R215471   6.326   2.040   6.512 -0.0524 -0.0521  0.0814
 1220ERGO    R315472   6.103   2.042   6.668 -0.0887  0.1307  0.0301
 1220ERGO    R415473   6.326   2.080   6.855 -0.0932 -0.0422  0.0809
 1220ERGO    R515474   6.170   1.929   6.868 -0.2215  0.0798  0.0495
 1220ERGO    C115475   6.116   2.107   7.201 -0.1511  0.1353  0.0326
 1220ERGO    C215476   6.247   2.080   7.680  0.1318  0.0100  0.1053
 1221ERGO   ROH15477   7.349   5.752   6.216 -0.1520  0.0747  0.0212
 1221ERGO    R115478   7.212   5.706   6.459 -0.1703  0.1364  0.0229
 1221ERGO    R215479   7.318   5.774   6.706 -0.0987  0.0105  0.0285
 1221ERGO    R315480   7.084   5.909   6.733  0.0063  0.1872  0.0690
 1221ERGO    R415481   7.150   5.822   7.004 -0.1462 -0.0935  0.0187
 1221ERGO    R515482   6.963   5.787   6.899 -0.1464  0.1508 -0.0673
 1221ERGO    C115483   6.832   5.977   7.203 -0.0752  0.0120  0.0509
 1221ERGO    C215484   6.777   6.175   7.461  0.1023  0.1206 -0.0069
 1222ERGO   ROH15485  16.501   8.218   6.874 -0.0647  0.0135  0.0314
 1222ERGO    R115486  16.354   8.239   7.115 -0.0087 -0.0074  0.0690
 1222ERGO    R215487  16.451   8.144   7.356  0.0101 -0.1140  0.0270
 1222ERGO    R315488  16.400   8.398   7.439  0.1169 -0.1193  0.1052
 1222ERGO    R415489  16.467   8.252   7.684 -0.1033 -0.2533  0.0784
 1222ERGO    R515490  16.288   8.371   7.649 -0.0099 -0.1351  0.0317
 1222ERGO    C115491  16.429   8.553   7.953 -0.0689 -0.3394  0.1818
 1222ERGO    C215492  16.624   8.709   8.293  0.1050  0.0275 -0.0320
 1223ERGO   ROH15493   9.739   5.631   6.458  0.3816 -0.0907  0.0002
 1223ERGO    R115494   9.828   5.750   6.698  0.1788 -0.0014  0.0324
 1223ERGO    R215495   9.656   5.816   6.904  0.0303 -0.1049 -0.0575
 1223ERGO    R315496   9.827   5.665   7.052  0.0693  0.0333  0.0408
 1223ERGO    R415497   9.691   5.837   7.247  0.0785  0.1766 -0.0773
 1223ERGO    R515498   9.907   5.815   7.221  0.0774  0.1803 -0.0906
 1223ERGO    C115499   9.873   5.708   7.586  0.1433  0.4702  0.0033
 1223ERGO    C215500   9.613   5.651   7.766 -0.0620 -0.1382  0.3121
 1224ERGO   ROH15501   6.759   7.374   6.381 -0.1112 -0.1590  0.0872
 1224ERGO    R115502   6.887   7.300   6.623 -0.0116 -0.0499  0.0679
 1224ERGO    R215503   7.058   7.471   6.758 -0.0528  0.0561 -0.0149
 1224ERGO    R315504   6.891   7.419   6.967  0.0287  0.0233  0.0430
 1224ERGO    R415505   7.127   7.542   7.089  0.1194 -0.0804 -0.0203
 1224ERGO    R515506   7.037   7.351   7.144  0.0952 -0.0788 -0.0479
 1224ERGO    C115507   7.012   7.534   7.478  0.2961 -0.1908  0.0309
 1224ERGO    C215508   6.839   7.782   7.664 -0.2386  0.0069  0.3663
 1225ERGO   ROH15509   0.246  17.058   6.395 -0.1776 -0.0453 -0.0256
 1225ERGO    R115510   0.121  17.031   6.648 -0.0375 -0.0428  0.0458
 1225ERGO    R215511   0.245  16.910   6.863  0.1359  0.0775  0.0217
 1225ERGO    R315512   0.185  17.144   6.988  0.0782  0.0832 -0.0185
 1225ERGO    R415513   0.175  16.942   7.200 -0.0121  0.1067 -0.0119
 1225ERGO    R515514   0.018  17.084   7.149  0.0119  0.0976 -0.0875
 1225ERGO    C115515   0.078  17.180   7.513 -0.1524  0.1289 -0.0692
 1225ERGO    C215516   0.088  17.118   7.788  0.1786 -0.1444 -0.1725
 1226ERGO   ROH15517  13.711   5.480   6.210  0.0971 -0.1505 -0.0283
 1226ERGO    R115518  13.707   5.466   6.493  0.1442 -0.1224 -0.0265
 1226ERGO    R215519  13.482   5.524   6.642  0.1799 -0.0766  0.0059
 1226ERGO    R315520  13.526   5.276   6.745  0.1622 -0.0720  0.0253
 1226ERGO    R415521  13.487   5.449   6.979  0.0708 -0.0648  0.0109
 1226ERGO    R515522  13.656   5.317   6.942  0.0946 -0.0556  0.0696
 1226ERGO    C115523  13.531   5.174   7.273 -0.0093 -0.0535  0.0320
 1226ERGO    C215524  13.389   5.092   7.546 -0.0542  0.1170 -0.2992
 1227ERGO   ROH15525   7.807  16.302   5.370 -0.2534  0.3471  0.0276
 1227ERGO    R115526   7.791  16.117   5.583 -0.2419  0.2306 -0.0740
 1227ERGO    R215527   7.948  16.135   5.809 -0.1379  0.0287 -0.1373
 1227ERGO    R315528   7.709  16.127   5.938 -0.0819  0.0545 -0.0277
 1227ERGO    R415529   7.910  16.110   6.151  0.0355 -0.1059 -0.1261
 1227ERGO    R515530   7.745  15.972   6.117 -0.0355 -0.0422 -0.1093
 1227ERGO    C115531   7.664  16.086   6.472  0.1891 -0.1602 -0.0166
 1227ERGO    C215532   7.533  16.015   6.798 -0.0234  0.1986 -0.1971
 1228ERGO   ROH15533  14.123   8.727   6.493  0.0381 -0.2431 -0.0321
 1228ERGO    R115534  14.099   8.710   6.775  0.0940 -0.2288 -0.0266
 1228ERGO    R215535  14.306   8.625   6.937  0.1672 -0.1020 -0.0530
 1228ERGO    R315536  14.261   8.861   7.063  0.0611 -0.1132 -0.0678
 1228ERGO    R415537  14.468   8.728   7.224 -0.0681 -0.1266  0.0916
 1228ERGO    R515538  14.278   8.808   7.296 -0.1300 -0.1342 -0.0567
 1228ERGO    C115539  14.521   9.011   7.510 -0.3046 -0.1516  0.1621
 1228ERGO    C215540  14.931   8.966   7.705  0.1620  0.0691  0.0212
 1229ERGO   ROH15541   9.029   2.107   5.858 -0.0632  0.0783  0.1382
 1229ERGO    R115542   9.069   2.057   6.133 -0.0361 -0.0481  0.1112
 1229ERGO    R215543   8.861   2.005   6.307 -0.0197 -0.1111  0.1096
 1229ERGO    R315544   9.005   1.782   6.364 -0.0289 -0.1478 -0.0033
 1229ERGO    R415545   8.776   1.770   6.546 -0.0945 -0.2846 -0.0844
 1229ERGO    R515546   8.986   1.758   6.601 -0.1081 -0.3161 -0.0228
 1229ERGO    C115547   8.862   1.424   6.738 -0.1466 -0.4202 -0.3033
 1229ERGO    C215548   8.741   1.239   6.831 -0.0027 -0.0277 -0.0372
 1230ERGO   ROH15549  15.640   6.731   7.064  0.2258  0.1858  0.1793
 1230ERGO    R115550  15.440   6.589   7.205  0.0695  0.1086 -0.1105
 1230ERGO    R215551  15.452   6.316   7.244  0.0818  0.1020 -0.1540
 1230ERGO    R315552  15.424   6.384   7.506 -0.2770  0.0417 -0.1708
 1230ERGO    R415553  15.284   6.128   7.481  0.0598 -0.1301 -0.3497
 1230ERGO    R515554  15.203   6.313   7.563 -0.2543 -0.2362 -0.4096
 1230ERGO    C115555  15.160   6.083   7.864 -0.2898 -0.3218 -0.4795
 1230ERGO    C215556  15.159   5.854   8.130  0.0901  0.1310  0.2528
 1231ERGO   ROH15557  12.984   1.108   6.159  0.1124 -0.2039 -0.0282
 1231ERGO    R115558  12.920   0.883   6.319  0.0439 -0.1612  0.0058
 1231ERGO    R215559  12.963   0.878   6.592 -0.0476 -0.0981  0.0241
 1231ERGO    R315560  12.699   0.812   6.599 -0.0548 -0.0762 -0.0506
 1231ERGO    R415561  12.815   0.678   6.832 -0.1151 -0.1750 -0.0809
 1231ERGO    R515562  12.696   0.585   6.675 -0.0930 -0.1035 -0.1373
 1231ERGO    C115563  12.481   0.500   6.979 -0.1611 -0.1992 -0.2122
 1231ERGO    C215564  12.459   0.531   7.326  0.0030  0.0648 -0.0957
 1232ERGO   ROH15565   1.455  11.632   6.452  0.0051  0.2803 -0.1356
 1232ERGO    R115566   1.516  11.727   6.712 -0.0440  0.1433 -0.0732
 1232ERGO    R215567   1.544  11.558   6.929 -0.0142  0.0219 -0.1709
 1232ERGO    R315568   1.784  11.683   6.953 -0.0519  0.0764 -0.0758
 1232ERGO    R415569   1.724  11.584   7.222 -0.1051 -0.0003 -0.1128
 1232ERGO    R515570   1.775  11.789   7.168 -0.1402  0.0259 -0.0532
 1232ERGO    C115571   2.055  11.716   7.416 -0.1934  0.0380  0.0104
 1232ERGO    C215572   2.287  11.787   7.699  0.0714 -0.1625 -0.2305
 1233ERGO   ROH15573  13.405   4.919   6.152  0.0778  0.0705 -0.0497
 1233ERGO    R115574  13.375   4.976   6.428  0.2563  0.1467 -0.0440
 1233ERGO    R215575  13.252   4.801   6.603 -0.1577  0.4373 -0.0259
 1233ERGO    R315576  13.485   4.827   6.741 -0.0568 -0.1354 -0.0634
 1233ERGO    R415577  13.292   4.728   6.938 -0.2987  0.4046 -0.0158
 1233ERGO    R515578  13.418   4.905   6.957  0.1724  0.0932 -0.0721
 1233ERGO    C115579  13.534   4.711   7.263 -0.2860 -0.1521 -0.0452
 1233ERGO    C215580  13.443   4.558   7.498  0.1707 -0.1174 -0.2068
 1234ERGO   ROH15581  13.372  15.940   6.411 -0.0029 -0.0037  0.0446
 1234ERGO    R115582  13.374  15.739   6.610  0.0341  0.0909  0.1415
 1234ERGO    R215583  13.309  15.790   6.874 -0.0324  0.1937  0.1080
 1234ERGO    R315584  13.131  15.588   6.835  0.0472  0.1118  0.1686
 1234ERGO    R415585  13.205  15.570   7.119  0.2014  0.0994  0.1253
 1234ERGO    R515586  13.214  15.409   6.972  0.2046  0.1296  0.0957
 1234ERGO    C115587  12.977  15.252   7.226  0.4125 -0.0324  0.1923
 1234ERGO    C215588  13.068  15.076   7.546  0.1447  0.0702 -0.1873
 1235ERGO   ROH15589  11.030  15.254   5.882 -0.2159 -0.1166 -0.2108
 1235ERGO    R115590  10.892  15.315   6.122 -0.0130 -0.0423 -0.1111
 1235ERGO    R215591  10.711  15.143   6.238 -0.0984  0.0959 -0.0363
 1235ERGO    R315592  10.868  15.175   6.457  0.0685 -0.0921 -0.1258
 1235ERGO    R415593  10.597  15.145   6.564  0.1031  0.1411  0.0354
 1235ERGO    R515594  10.736  15.308   6.606  0.2823  0.0047 -0.0175
 1235ERGO    C115595  10.678  15.176   6.960  0.3773 -0.0090 -0.0068
 1235ERGO    C215596  10.585  15.047   7.249 -0.0949  0.3181  0.1888
 1236ERGO   ROH15597   5.934   7.092   6.386 -0.1169  0.0143  0.0813
 1236ERGO    R115598   5.897   7.229   6.631 -0.2363 -0.0062  0.0758
 1236ERGO    R215599   5.738   7.129   6.835 -0.0201 -0.2203  0.1469
 1236ERGO    R315600   5.963   7.164   6.983 -0.0125  0.1368  0.0614
 1236ERGO    R415601   5.744   7.230   7.165 -0.0481 -0.1695  0.1316
 1236ERGO    R515602   5.917   7.355   7.119 -0.2491  0.0860  0.0532
 1236ERGO    C115603   5.959   7.321   7.497 -0.0573  0.1955  0.0424
 1236ERGO    C215604   6.092   7.434   7.813 -0.1239  0.0019  0.1163
 1237ERGO   ROH15605   0.084  13.111   6.429  0.0868  0.1233  0.0550
 1237ERGO    R115606   0.110  13.247   6.676  0.0437  0.2068  0.0145
 1237ERGO    R215607  -0.031  13.173   6.902 -0.0103  0.2939  0.0120
 1237ERGO    R315608   0.216  13.163   7.014 -0.0341  0.3143  0.0655
 1237ERGO    R415609   0.035  13.220   7.238 -0.1103  0.0725  0.0643
 1237ERGO    R515610   0.213  13.334   7.182 -0.1449  0.1879  0.1925
 1237ERGO    C115611   0.307  13.238   7.538 -0.1909 -0.0374  0.1450
 1237ERGO    C215612   0.294  13.075   7.885  0.2920 -0.1343  0.0570
 1238ERGO   ROH15613   6.356  13.157   5.870 -0.2047  0.0861  0.1277
 1238ERGO    R115614   6.243  13.295   6.090 -0.1734 -0.1406  0.2887
 1238ERGO    R215615   6.180  13.170   6.328  0.2935 -0.2998  0.3366
 1238ERGO    R315616   6.336  13.364   6.434  0.1150 -0.0761  0.2008
 1238ERGO    R415617   6.121  13.328   6.629  0.2592 -0.2890  0.3251
 1238ERGO    R515618   6.182  13.515   6.537 -0.0182 -0.2352  0.2402
 1238ERGO    C115619   6.234  13.603   6.905  0.0716 -0.0726  0.1909
 1238ERGO    C215620   6.425  13.861   7.202  0.0101 -0.1537 -0.3393
 1239ERGO   ROH15621   1.785   4.693   6.893  0.1776  0.1264  0.0232
 1239ERGO    R115622   1.858   4.812   7.139  0.1078  0.1402  0.0374
 1239ERGO    R215623   1.682   4.963   7.290  0.0676  0.1532 -0.0249
 1239ERGO    R315624   1.751   4.788   7.486  0.0056  0.1656  0.0087
 1239ERGO    R415625   1.627   5.011   7.628 -0.0923  0.1541 -0.0504
 1239ERGO    R515626   1.823   4.926   7.668 -0.0952  0.1819  0.0388
 1239ERGO    C115627   1.660   4.874   8.008 -0.2436  0.1664 -0.0337
 1239ERGO    C215628   1.456   4.926   8.311 -0.2822  0.0867  0.0385
 1240ERGO   ROH15629   8.024  12.550   6.168 -0.3114  0.0317 -0.0663
 1240ERGO    R115630   8.067  12.478   6.439  0.0562  0.1951 -0.0759
 1240ERGO    R215631   8.134  12.662   6.633 -0.2876  0.4174 -0.1717
 1240ERGO    R315632   7.917  12.559   6.761  0.0530 -0.1198  0.0080
 1240ERGO    R415633   8.065  12.705   6.969 -0.3706  0.7393 -0.2250
 1240ERGO    R515634   8.001  12.496   6.977  0.3199  0.4979  0.1140
 1240ERGO    C115635   7.822  12.633   7.285 -0.0992  0.4224 -0.0872
 1240ERGO    C215636   7.791  12.574   7.691  0.1824  0.3104  0.1296
 1241ERGO   ROH15637   9.413  18.174   6.039 -0.0240 -0.0352 -0.0947
 1241ERGO    R115638   9.355  18.251   6.305 -0.1194 -0.0533 -0.1090
 1241ERGO    R215639   9.116  18.190   6.429 -0.0784 -0.2607 -0.1213
 1241ERGO    R315640   9.279  18.082   6.618  0.0094 -0.0869 -0.0966
 1241ERGO    R415641   9.036  18.157   6.764  0.0596 -0.0166 -0.0618
 1241ERGO    R515642   9.240  18.215   6.814  0.0653  0.0550 -0.1839
 1241ERGO    C115643   9.143  18.036   7.136  0.2225  0.2885 -0.0040
 1241ERGO    C215644   9.021  17.790   7.489  0.1055  0.0115  0.1739
 1242ERGO   ROH15645   9.722  13.516   5.818  0.3812  0.1777 -0.3242
 1242ERGO    R115646   9.762  13.490   6.097  0.3157  0.3458 -0.2995
 1242ERGO    R215647   9.785  13.709   6.264 -0.2630  0.4517 -0.3486
 1242ERGO    R315648   9.584  13.586   6.399 -0.0487  0.0216 -0.4011
 1242ERGO    R415649   9.712  13.759   6.598 -0.3925  0.2367 -0.3416
 1242ERGO    R515650   9.675  13.545   6.617  0.0180  0.1441 -0.3988
 1242ERGO    C115651   9.480  13.673   6.919 -0.2665 -0.2923 -0.3868
 1242ERGO    C215652   9.505  13.786   7.230  0.1261  0.0527 -0.3584
 1243ERGO   ROH15653   4.565   2.108   6.165 -0.0840  0.2440  0.0922
 1243ERGO    R115654   4.634   2.227   6.413  0.1276  0.0717  0.1199
 1243ERGO    R215655   4.447   2.280   6.610  0.2213  0.3213  0.1488
 1243ERGO    R315656   4.617   2.134   6.764  0.0044  0.0027  0.0960
 1243ERGO    R415657   4.506   2.336   6.946  0.4252  0.2121  0.1322
 1243ERGO    R515658   4.717   2.295   6.911  0.3467 -0.1779  0.0696
 1243ERGO    C115659   4.700   2.232   7.286  0.3402 -0.1506  0.0729
 1243ERGO    C215660   4.775   2.401   7.563 -0.0072 -0.0477  0.0701
 1244ERGO   ROH15661  15.765   9.244   6.435 -0.2648  0.3170  0.0663
 1244ERGO    R115662  15.891   9.444   6.591 -0.0832  0.1301  0.1639
 1244ERGO    R215663  15.973   9.400   6.851  0.2018 -0.1773  0.0246
 1244ERGO    R315664  16.212   9.488   6.756  0.1054 -0.0786 -0.1346
 1244ERGO    R415665  16.165   9.646   6.999  0.2294 -0.1497 -0.0548
 1244ERGO    R515666  16.210   9.724   6.800  0.0574 -0.0864 -0.0757
 1244ERGO    C115667  16.501   9.873   6.996  0.1547 -0.0410 -0.2505
 1244ERGO    C215668  16.605   9.941   7.328  0.1298  0.2363  0.2173
 1245ERGO   ROH15669  17.292   3.989   6.750 -0.0845 -0.3037  0.1642
 1245ERGO    R115670  17.261   3.912   7.021 -0.0165 -0.0893  0.2348
 1245ERGO    R215671  17.474   3.891   7.195  0.0841 -0.3387  0.0871
 1245ERGO    R315672  17.325   4.060   7.347  0.4726  0.0084  0.1030
 1245ERGO    R415673  17.434   3.864   7.537 -0.1278 -0.3934  0.0599
 1245ERGO    R515674  17.224   3.917   7.511  0.0114  0.1948 -0.0035
 1245ERGO    C115675  17.271   4.007   7.879  0.1135 -0.0993  0.0589
 1245ERGO    C215676  17.124   3.921   8.130 -0.0050 -0.4940 -0.1403
 1246ERGO   ROH15677  10.964   5.061   6.410  0.1678 -0.0350  0.1228
 1246ERGO    R115678  11.073   5.025   6.669  0.0540 -0.0143  0.1746
 1246ERGO    R215679  11.211   5.225   6.801  0.2353 -0.0897  0.1053
 1246ERGO    R315680  11.029   5.176   6.997  0.1206  0.2149  0.0801
 1246ERGO    R415681  11.277   5.244   7.140  0.1896 -0.0909  0.1140
 1246ERGO    R515682  11.156   5.065   7.168 -0.0687  0.0825  0.1374
 1246ERGO    C115683  11.146   5.210   7.521  0.0555  0.1943  0.0954
 1246ERGO    C215684  11.246   5.184   7.861 -0.0075 -0.0598  0.0763
 1247ERGO   ROH15685  12.184  12.092   6.473  0.1127  0.1605 -0.0256
 1247ERGO    R115686  12.161  11.946   6.714  0.1646  0.0017 -0.1153
 1247ERGO    R215687  12.380  11.848   6.851  0.2073  0.0798 -0.1243
 1247ERGO    R315688  12.271  11.984   7.059  0.0611 -0.1179 -0.0684
 1247ERGO    R415689  12.484  11.823   7.179  0.1735 -0.0055 -0.1201
 1247ERGO    R515690  12.275  11.828   7.241  0.1589 -0.2094 -0.1493
 1247ERGO    C115691  12.443  11.936   7.566  0.0165 -0.2407 -0.0652
 1247ERGO    C215692  12.614  11.997   7.913  0.3315 -0.0102  0.0610
 1248ERGO   ROH15693  14.666   8.865   6.417 -0.0605  0.2115  0.0802
 1248ERGO    R115694  14.704   9.030   6.644 -0.0103  0.0571  0.1862
 1248ERGO    R215695  14.699   8.930   6.902  0.0423 -0.1205  0.1248
 1248ERGO    R315696  14.942   9.051   6.918  0.0478 -0.1369  0.1503
 1248ERGO    R415697  14.859   9.016   7.196 -0.0278 -0.0231  0.1343
 1248ERGO    R515698  14.922   9.202   7.102  0.0143 -0.0677  0.0858
 1248ERGO    C115699  15.180   9.179   7.382 -0.0632  0.0182  0.1637
 1248ERGO    C215700  15.410   9.112   7.572 -0.0122 -0.1425  0.2016
 1249ERGO   ROH15701  11.530   6.379   6.447  0.3875 -0.0410  0.0746
 1249ERGO    R115702  11.439   6.402   6.714  0.2318  0.1691  0.0061
 1249ERGO    R215703  11.497   6.214   6.908 -0.2170  0.1072  0.0951
 1249ERGO    R315704  11.590   6.431   7.043  0.0496 -0.0116  0.1077
 1249ERGO    R415705  11.499   6.247   7.252 -0.2198  0.1081  0.0949
 1249ERGO    R515706  11.440   6.456   7.227  0.0558  0.1870  0.0866
 1249ERGO    C115707  11.587   6.470   7.579  0.0289 -0.0031  0.1065
 1249ERGO    C215708  11.714   6.661   7.807  0.2781 -0.2719 -0.6130
 1250ERGO   ROH15709   5.540   6.782   6.154  0.0199  0.0684  0.0274
 1250ERGO    R115710   5.516   6.822   6.433 -0.0685  0.1072  0.0146
 1250ERGO    R215711   5.407   6.632   6.602 -0.1880  0.1602 -0.0033
 1250ERGO    R315712   5.642   6.661   6.735 -0.2266  0.1023  0.0789
 1250ERGO    R415713   5.475   6.500   6.914 -0.3021  0.0772 -0.0126
 1250ERGO    R515714   5.578   6.685   6.964 -0.2972  0.0540  0.0648
 1250ERGO    C115715   5.736   6.450   7.220 -0.4047 -0.0255  0.0591
 1250ERGO    C215716   5.985   6.364   7.402 -0.4525  0.1530 -0.0453
 1251ERGO   ROH15717  16.147  10.746   6.732  0.4242  0.2288 -0.1499
 1251ERGO    R115718  16.062  10.883   6.965  0.1789  0.0822 -0.1488
 1251ERGO    R215719  15.990  10.753   7.197  0.1889 -0.0557 -0.2195
 1251ERGO    R315720  16.176  10.917   7.309 -0.0183  0.0905 -0.0839
 1251ERGO    R415721  16.023  10.811   7.536  0.0494 -0.2090 -0.1784
 1251ERGO    R515722  16.061  11.021   7.491 -0.1751 -0.1406 -0.0487
 1251ERGO    C115723  16.217  10.999   7.838 -0.2265 -0.1607 -0.0273
 1251ERGO    C215724  16.185  11.012   8.208  0.1254 -0.3580  0.0212
 1252ERGO   ROH15725  16.529  12.694   6.504  0.1158  0.2519  0.0415
 1252ERGO    R115726  16.499  12.703   6.785  0.0345  0.1496  0.0368
 1252ERGO    R215727  16.682  12.826   6.951  0.0971 -0.0884  0.1544
 1252ERGO    R315728  16.463  12.961   7.040  0.1862  0.0682  0.1406
 1252ERGO    R415729  16.616  12.900   7.282  0.1343 -0.0087  0.1444
 1252ERGO    R515730  16.406  12.853   7.246  0.1066  0.1305  0.1476
 1252ERGO    C115731  16.371  13.069   7.558  0.2394  0.1847  0.1257
 1252ERGO    C215732  16.326  13.282   7.762 -0.3512  0.1263 -0.0850
 1253ERGO   ROH15733  14.947   4.380   6.350  0.1716  0.0541 -0.0427
 1253ERGO    R115734  15.025   4.445   6.614  0.0812 -0.0308  0.0045
 1253ERGO    R215735  14.848   4.543   6.802  0.0253 -0.0690 -0.0357
 1253ERGO    R315736  14.939   4.334   6.950 -0.0510 -0.1181 -0.0555
 1253ERGO    R415737  14.854   4.535   7.147  0.0101 -0.0973 -0.0354
 1253ERGO    R515738  15.049   4.438   7.136 -0.0178 -0.1677 -0.0415
 1253ERGO    C115739  14.943   4.334   7.488 -0.0704 -0.1598 -0.0540
 1253ERGO    C215740  14.766   4.305   7.775  0.0569 -0.1795  0.0409
 1254ERGO   ROH15741  14.436   5.898   6.744 -0.2449  0.2006  0.0014
 1254ERGO    R115742  14.511   5.870   7.015 -0.1832  0.0180 -0.0336
 1254ERGO    R215743  14.383   6.004   7.220 -0.0382 -0.0005  0.0699
 1254ERGO    R315744  14.354   5.754   7.322 -0.1674 -0.0345 -0.0451
 1254ERGO    R415745  14.230   5.931   7.521  0.0909 -0.0407  0.1267
 1254ERGO    R515746  14.386   5.783   7.558  0.0016 -0.1826 -0.0474
 1254ERGO    C115747  14.114   5.654   7.793  0.0447 -0.0961  0.0517
 1254ERGO    C215748  13.932   5.643   8.121  0.4696  0.1193  0.2650
 1255ERGO   ROH15749   0.984   8.721   7.846 -0.0649  0.0497 -0.0066
 1255ERGO    R115750   0.943   8.508   8.028 -0.0100  0.0104 -0.0390
 1255ERGO    R215751   0.870   8.548   8.291  0.0676 -0.0454 -0.0040
 1255ERGO    R315752   0.667   8.379   8.227  0.0491 -0.0294  0.0153
 1255ERGO    R415753   0.678   8.373   8.520 -0.0986  0.1645  0.0195
 1255ERGO    R515754   0.685   8.201   8.387 -0.0847  0.0740  0.1432
 1255ERGO    C115755   0.376   8.112   8.592 -0.2128  0.3018  0.0512
 1255ERGO    C215756   0.248   8.029   9.024  0.0658  0.2007 -0.2081
 1256ERGO   ROH15757   7.735   3.624   6.583  0.1427  0.0955 -0.1608
 1256ERGO    R115758   7.572   3.563   6.807 -0.0637  0.1441 -0.2949
 1256ERGO    R215759   7.660   3.591   7.068 -0.1475 -0.2177 -0.2236
 1256ERGO    R315760   7.437   3.744   7.092  0.0675  0.1026 -0.2048
 1256ERGO    R415761   7.523   3.693   7.368 -0.1647 -0.3224 -0.1958
 1256ERGO    R515762   7.325   3.656   7.284 -0.1821  0.0648 -0.3601
 1256ERGO    C115763   7.233   3.896   7.565  0.0272 -0.0827 -0.1620
 1256ERGO    C215764   7.158   4.160   7.624  0.1032  0.1663 -0.0698
 1257ERGO   ROH15765  11.099  17.198   5.858  0.0027 -0.0323  0.0992
 1257ERGO    R115766  11.245  17.354   6.045 -0.1174  0.2510 -0.0361
 1257ERGO    R215767  11.122  17.509   6.237 -0.2486 -0.0784  0.1579
 1257ERGO    R315768  11.281  17.367   6.407  0.2883  0.2215 -0.0716
 1257ERGO    R415769  11.125  17.545   6.581 -0.2605 -0.4904  0.2067
 1257ERGO    R515770  11.342  17.526   6.576 -0.1767  0.2322  0.0989
 1257ERGO    C115771  11.276  17.434   6.940  0.2366 -0.4490  0.0196
 1257ERGO    C215772  11.275  17.592   7.278 -0.2308  0.0673  0.1411
 1258ERGO   ROH15773  11.293   9.643   6.412 -0.1507 -0.2515  0.1400
 1258ERGO    R115774  11.327   9.602   6.690 -0.1794 -0.1664  0.1562
 1258ERGO    R215775  11.484   9.766   6.847 -0.0854 -0.1998  0.0945
 1258ERGO    R315776  11.258   9.787   6.996 -0.0748 -0.0098  0.0871
 1258ERGO    R415777  11.465   9.911   7.160  0.0031 -0.0682  0.0403
 1258ERGO    R515778  11.330   9.751   7.221 -0.0931  0.0319  0.1015
 1258ERGO    C115779  11.241  10.015   7.482  0.0646  0.1869  0.0016
 1258ERGO    C215780  11.125  10.319   7.650 -0.1499  0.1225  0.1337
 1259ERGO   ROH15781  14.705   1.373   6.721 -0.1627  0.4035 -0.2189
 1259ERGO    R115782  14.561   1.384   6.965 -0.0284  0.2997 -0.1343
 1259ERGO    R215783  14.667   1.294   7.204  0.1066  0.2045 -0.2297
 1259ERGO    R315784  14.602   1.544   7.289  0.1453  0.1682 -0.0891
 1259ERGO    R415785  14.513   1.367   7.504  0.2867  0.0758 -0.1032
 1259ERGO    R515786  14.393   1.517   7.400  0.2141  0.1123  0.0295
 1259ERGO    C115787  14.361   1.644   7.759  0.4279 -0.0333  0.1024
 1259ERGO    C215788  14.326   1.644   8.132  0.0377  0.1318 -0.2059
 1260ERGO   ROH15789   5.680   8.254   6.536  0.1094 -0.1155  0.1663
 1260ERGO    R115790   5.681   8.369   6.795  0.0850 -0.0079  0.1190
 1260ERGO    R215791   5.596   8.231   7.019  0.0844  0.0783  0.1709
 1260ERGO    R315792   5.842   8.300   7.114  0.0727  0.1387  0.1580
 1260ERGO    R415793   5.688   8.228   7.353  0.1603 -0.0943  0.1495
 1260ERGO    R515794   5.796   8.414   7.320  0.0611 -0.0165  0.2439
 1260ERGO    C115795   5.971   8.290   7.636  0.1936 -0.1379  0.1248
 1260ERGO    C215796   6.177   8.492   7.935 -0.0107 -0.2433 -0.0138
 1261ERGO   ROH15797  12.300   6.424   5.928  0.0101  0.2268  0.1569
 1261ERGO    R115798  12.199   6.499   6.182 -0.2195  0.1104  0.0992
 1261ERGO    R215799  12.003   6.356   6.312  0.0134 -0.2211  0.0625
 1261ERGO    R315800  12.184   6.353   6.515 -0.0581  0.1815  0.1439
 1261ERGO    R415801  11.922   6.310   6.645 -0.0670 -0.3816  0.0242
 1261ERGO    R515802  12.070   6.463   6.696 -0.4034 -0.0397  0.0880
 1261ERGO    C115803  12.045   6.280   7.029 -0.1810 -0.0970  0.0782
 1261ERGO    C215804  12.075   6.356   7.410 -0.3646 -0.0347  0.1843
 1262ERGO   ROH15805  15.806   5.860   6.382  0.2598 -0.2729 -0.1200
 1262ERGO    R115806  15.750   5.690   6.601  0.1895 -0.2153 -0.0933
 1262ERGO    R215807  15.949   5.574   6.754  0.1397 -0.1422  0.0256
 1262ERGO    R315808  15.814   5.690   6.959  0.0357 -0.1009 -0.0644
 1262ERGO    R415809  15.943   5.455   7.078  0.0960 -0.0024  0.0771
 1262ERGO    R515810  15.731   5.506   7.088  0.0709 -0.0789 -0.0066
 1262ERGO    C115811  15.813   5.495   7.460 -0.0269  0.1177  0.0225
 1262ERGO    C215812  16.073   5.267   7.670  0.0265 -0.2454  0.1970
 1263ERGO   ROH15813   8.002   5.791   6.055  0.0344 -0.0427  0.0434
 1263ERGO    R115814   7.948   5.851   6.326 -0.0278 -0.0906  0.0423
 1263ERGO    R215815   7.926   6.110   6.420  0.0784 -0.1012  0.1079
 1263ERGO    R315816   7.686   6.021   6.513 -0.0026 -0.0024 -0.0044
 1263ERGO    R415817   7.748   6.255   6.678 -0.0402  0.0250 -0.0422
 1263ERGO    R515818   7.698   6.055   6.749 -0.1385  0.0657 -0.0098
 1263ERGO    C115819   7.419   6.256   6.916 -0.1853  0.1912 -0.2351
 1263ERGO    C215820   7.255   6.525   7.102 -0.1180  0.0532  0.0705
 1264ERGO   ROH15821   8.165   8.712   6.172 -0.1123 -0.1296 -0.0016
 1264ERGO    R115822   8.085   8.840   6.411 -0.0691 -0.1132  0.0043
 1264ERGO    R215823   7.890   8.736   6.577  0.0775 -0.1876  0.1326
 1264ERGO    R315824   8.084   8.761   6.766  0.1604 -0.0176  0.0271
 1264ERGO    R415825   7.855   8.649   6.910  0.3254 -0.1808  0.1626
 1264ERGO    R515826   7.967   8.828   6.964  0.2154 -0.0885  0.0831
 1264ERGO    C115827   8.017   8.622   7.281  0.5476 -0.0172  0.0810
 1264ERGO    C215828   7.843   8.567   7.531 -0.0650  0.2555 -0.0628
 1265ERGO   ROH15829   0.936   1.089   6.500 -0.0680  0.0395 -0.0263
 1265ERGO    R115830   0.961   1.167   6.771 -0.2175  0.0352 -0.0115
 1265ERGO    R215831   0.861   1.016   6.979  0.0405 -0.1831 -0.0459
 1265ERGO    R315832   1.116   1.034   7.072  0.0113  0.2529 -0.0290
 1265ERGO    R415833   0.949   1.033   7.313 -0.0037 -0.5658 -0.0089
 1265ERGO    R515834   1.100   1.181   7.260 -0.3405 -0.1025  0.2388
 1265ERGO    C115835   1.239   1.061   7.595 -0.0569 -0.3794  0.0286
 1265ERGO    C215836   1.307   1.122   8.054  0.0154  0.0699 -0.0750
 1266ERGO   ROH15837   1.782  12.522   6.385  0.1339 -0.0934 -0.2263
 1266ERGO    R115838   2.012  12.570   6.541  0.1280  0.0152 -0.2504
 1266ERGO    R215839   2.060  12.813   6.666 -0.0487 -0.0088 -0.1308
 1266ERGO    R315840   2.083  12.658   6.888  0.1273 -0.1112 -0.2182
 1266ERGO    R415841   2.313  12.839   6.900  0.0539 -0.0200 -0.2389
 1266ERGO    R515842   2.318  12.621   6.911  0.1542 -0.0226 -0.3500
 1266ERGO    C115843   2.481  12.708   7.245  0.2788 -0.1226 -0.3840
 1266ERGO    C215844   2.617  12.546   7.594  0.3239  0.1665 -0.1168
 1267ERGO   ROH15845   6.122  12.628   5.726  0.0209 -0.4256  0.0358
 1267ERGO    R115846   6.053  12.752   5.971 -0.0534 -0.2178 -0.0847
 1267ERGO    R215847   5.823  12.687   6.111 -0.0498 -0.1843 -0.0350
 1267ERGO    R315848   5.998  12.645   6.315 -0.0367  0.0779  0.0077
 1267ERGO    R415849   5.736  12.665   6.444 -0.0527 -0.1882 -0.0377
 1267ERGO    R515850   5.914  12.781   6.494 -0.2050  0.0239 -0.0446
 1267ERGO    C115851   5.849  12.613   6.830 -0.0422  0.0556  0.0009
 1267ERGO    C215852   5.861  12.696   7.150  0.3261 -0.0143 -0.3514
 1268ERGO   ROH15853   3.105   8.306   6.636  0.0205 -0.2222 -0.0227
 1268ERGO    R115854   3.054   8.364   6.908  0.1451 -0.0696 -0.0307
 1268ERGO    R215855   2.888   8.209   7.065  0.0828  0.1142  0.0861
 1268ERGO    R315856   3.105   8.199   7.229  0.1261  0.0304  0.0248
 1268ERGO    R415857   2.875   8.168   7.408  0.1550  0.2275  0.1030
 1268ERGO    R515858   3.035   8.314   7.427  0.2534  0.1360  0.0108
 1268ERGO    C115859   3.072   8.135   7.761  0.2377  0.2147  0.0554
 1268ERGO    C215860   2.940   8.085   8.090 -0.0706  0.2121 -0.0453
 1269ERGO   ROH15861  15.652   1.986   6.527  0.3445  0.2626 -0.0003
 1269ERGO    R115862  15.682   1.864   6.780  0.3366  0.2241 -0.0177
 1269ERGO    R215863  15.780   1.999   7.000  0.0129  0.2926  0.0921
 1269ERGO    R315864  15.549   1.915   7.115  0.0413 -0.0498 -0.0880
 1269ERGO    R415865  15.696   2.048   7.331 -0.3642  0.2638  0.0048
 1269ERGO    R515866  15.614   1.846   7.335 -0.0390  0.1268 -0.0078
 1269ERGO    C115867  15.430   1.998   7.633 -0.5571 -0.0743 -0.2151
 1269ERGO    C215868  15.273   1.954   7.920 -0.3406 -0.0757 -0.0740
 1270ERGO   ROH15869   8.912   7.826   6.169  0.0291  0.0044 -0.0059
 1270ERGO    R115870   8.895   8.006   6.386 -0.0414  0.0127 -0.0174
 1270ERGO    R215871   8.690   7.997   6.572 -0.0799 -0.0089 -0.0553
 1270ERGO    R315872   8.896   7.984   6.749 -0.1108  0.0273 -0.0175
 1270ERGO    R415873   8.661   8.045   6.913 -0.1507 -0.0670 -0.0531
 1270ERGO    R515874   8.848   8.156   6.909 -0.1869 -0.0133 -0.0013
 1270ERGO    C115875   8.837   8.061   7.278 -0.2208 -0.0670 -0.0165
 1270ERGO    C215876   8.773   8.082   7.648  0.1459  0.0353  0.0256
 1271ERGO   ROH15877  16.823   2.030   6.807 -0.2350 -0.2014  0.0234
 1271ERGO    R115878  16.781   2.168   7.051 -0.2536 -0.1199 -0.0263
 1271ERGO    R215879  16.574   2.107   7.223 -0.1600 -0.1812  0.0616
 1271ERGO    R315880  16.775   2.084   7.405 -0.0909  0.0356  0.0154
 1271ERGO    R415881  16.534   2.133   7.565 -0.1266 -0.2912  0.0749
 1271ERGO    R515882  16.720   2.246   7.573 -0.2604 -0.0576  0.0548
 1271ERGO    C115883  16.699   2.128   7.935 -0.0420 -0.1518  0.0392
 1271ERGO    C215884  16.699   2.212   8.297  0.1597 -0.1657 -0.0381
 1272ERGO   ROH15885   0.540   4.509   6.950 -0.1885  0.1704 -0.0230
 1272ERGO    R115886   0.545   4.505   7.233 -0.0037  0.1149 -0.0267
 1272ERGO    R215887   0.656   4.709   7.382 -0.0728  0.1729 -0.0586
 1272ERGO    R315888   0.412   4.710   7.502  0.0017 -0.0488  0.1027
 1272ERGO    R415889   0.604   4.749   7.721  0.1064  0.3395 -0.0487
 1272ERGO    R515890   0.449   4.597   7.711  0.2841  0.1344  0.1599
 1272ERGO    C115891   0.345   4.774   8.032  0.2807  0.2282  0.1086
 1272ERGO    C215892   0.356   4.817   8.364 -0.0193  0.0536  0.0767
 1273ERGO   ROH15893  12.531   7.987   6.674 -0.2177 -0.4995 -0.1134
 1273ERGO    R115894  12.490   8.063   6.943 -0.1311 -0.2604 -0.1658
 1273ERGO    R215895  12.366   7.898   7.127 -0.1368 -0.0680  0.0009
 1273ERGO    R315896  12.593   7.941   7.270 -0.0918 -0.0158 -0.0837
 1273ERGO    R415897  12.379   7.938   7.470 -0.0117 -0.1757  0.0102
 1273ERGO    R515898  12.528   8.095   7.442 -0.0899 -0.0982 -0.0041
 1273ERGO    C115899  12.600   8.002   7.804  0.1034 -0.1895 -0.0636
 1273ERGO    C215900  12.691   8.148   8.126  0.0648  0.0887  0.0780
 1274ERGO   ROH15901   7.946  11.584   6.375 -0.1217 -0.3001  0.0926
 1274ERGO    R115902   7.888  11.619   6.650 -0.1377 -0.2154  0.0784
 1274ERGO    R215903   7.845  11.407   6.822 -0.0368 -0.1660  0.1645
 1274ERGO    R315904   8.041  11.526   6.967 -0.0928 -0.0137  0.1180
 1274ERGO    R415905   7.896  11.358   7.160  0.0326 -0.0711  0.1683
 1274ERGO    R515906   7.939  11.572   7.179 -0.0988 -0.0382  0.1218
 1274ERGO    C115907   8.110  11.441   7.493  0.0203  0.1269  0.1268
 1274ERGO    C215908   8.245  11.321   7.696  0.3081  0.0061 -0.0480
 1275ERGO   ROH15909  11.545   4.401   6.422  0.2920  0.0306 -0.2455
 1275ERGO    R115910  11.676   4.326   6.661  0.1590  0.0512 -0.1657
 1275ERGO    R215911  11.917   4.190   6.663  0.1126 -0.0266 -0.0205
 1275ERGO    R315912  11.995   4.396   6.821  0.1103 -0.0117 -0.0380
 1275ERGO    R415913  12.059   4.155   6.976  0.0873 -0.0020 -0.0058
 1275ERGO    R515914  11.940   4.325   7.043  0.0885  0.0132 -0.0334
 1275ERGO    C115915  12.215   4.329   7.307  0.0703  0.0264 -0.0138
 1275ERGO    C215916  12.371   4.254   7.617 -0.1830 -0.1457 -0.2498
 1276ERGO   ROH15917  12.294   2.026   6.323 -0.1237 -0.0432  0.1051
 1276ERGO    R115918  12.182   1.873   6.534 -0.2638 -0.0037  0.0601
 1276ERGO    R215919  12.295   1.862   6.786 -0.2624 -0.1950  0.0514
 1276ERGO    R315920  12.047   1.939   6.865 -0.1862  0.0213  0.0874
 1276ERGO    R415921  12.196   1.903   7.115 -0.2281 -0.2873  0.0735
 1276ERGO    R515922  12.005   1.811   7.063 -0.3265 -0.0565  0.0106
 1276ERGO    C115923  11.906   1.999   7.380 -0.1366 -0.1380  0.1203
 1276ERGO    C215924  11.955   2.161   7.742 -0.1060  0.1766 -0.0007
 1277ERGO   ROH15925   2.690   4.459   6.679  0.0791  0.1059  0.1450
 1277ERGO    R115926   2.709   4.328   6.929  0.1697  0.0350  0.1021
 1277ERGO    R215927   2.755   4.464   7.165  0.0351 -0.0051  0.1526
 1277ERGO    R315928   2.529   4.336   7.246  0.1358 -0.2256  0.0922
 1277ERGO    R415929   2.696   4.353   7.487  0.0396 -0.0165  0.1493
 1277ERGO    R515930   2.607   4.172   7.402  0.2524 -0.1237  0.1439
 1277ERGO    C115931   2.449   4.168   7.750  0.1368 -0.2301  0.0906
 1277ERGO    C215932   2.437   4.209   8.094 -0.0345  0.3277  0.0865
 1278ERGO   ROH15933   6.510  16.882   5.686  0.0375 -0.0060 -0.1967
 1278ERGO    R115934   6.661  16.869   5.925 -0.1055  0.0134 -0.1041
 1278ERGO    R215935   6.564  16.960   6.167 -0.2907 -0.0571 -0.1474
 1278ERGO    R315936   6.628  16.710   6.250 -0.2515 -0.0481 -0.1497
 1278ERGO    R415937   6.645  16.874   6.492 -0.1287 -0.0312 -0.1801
 1278ERGO    R515938   6.800  16.743   6.413 -0.1721 -0.0382 -0.2400
 1278ERGO    C115939   6.753  16.588   6.759  0.0024 -0.0076 -0.2011
 1278ERGO    C215940   6.559  16.470   7.085  0.2829  0.0983  0.1382
 1279ERGO   ROH15941  15.117  17.912   6.497 -0.0016  0.3567  0.0788
 1279ERGO    R115942  15.091  17.740   6.720  0.1952  0.0985 -0.0947
 1279ERGO    R215943  15.292  17.707   6.907  0.1363  0.3445  0.0047
 1279ERGO    R315944  15.095  17.773   7.083 -0.1267 -0.2187 -0.0545
 1279ERGO    R415945  15.269  17.587   7.230  0.5112  0.4126  0.0624
 1279ERGO    R515946  15.053  17.570   7.203  0.5431 -0.3304  0.0405
 1279ERGO    C115947  15.071  17.579   7.584  0.4827 -0.0764  0.0405
 1279ERGO    C215948  14.869  17.646   7.921 -0.0352  0.1584  0.0276
 1280ERGO   ROH15949   1.817   8.829   6.365 -0.1961 -0.0365  0.1349
 1280ERGO    R115950   1.894   8.865   6.636 -0.2279 -0.1982  0.1673
 1280ERGO    R215951   1.987   8.657   6.793 -0.0033 -0.2481 -0.0186
 1280ERGO    R315952   2.198   8.824   6.832 -0.1781 -0.0563  0.1184
 1280ERGO    R415953   2.121   8.737   7.101 -0.1992 -0.2071  0.0570
 1280ERGO    R515954   2.144   8.942   7.033 -0.3689 -0.1677  0.1309
 1280ERGO    C115955   2.398   8.940   7.317 -0.4774 -0.0032  0.2296
 1280ERGO    C215956   2.542   9.249   7.531 -0.0158 -0.0762  0.1768
 1281ERGO   ROH15957  13.746  11.589   6.611  0.2416  0.1096  0.1850
 1281ERGO    R115958  13.832  11.657   6.872  0.0771 -0.0074  0.2707
 1281ERGO    R215959  13.655  11.723   7.074 -0.0523 -0.1438  0.2014
 1281ERGO    R315960  13.785  11.526   7.208 -0.0945 -0.1868  0.1794
 1281ERGO    R415961  13.701  11.713   7.416  0.1074 -0.0888  0.1825
 1281ERGO    R515962  13.902  11.639   7.382  0.0542 -0.2083  0.0978
 1281ERGO    C115963  13.849  11.521   7.741  0.1608 -0.0973  0.1509
 1281ERGO    C215964  13.952  11.217   7.851  0.3459 -0.3296 -0.0756
 1282ERGO   ROH15965   7.828   2.658   6.147 -0.1848 -0.1764 -0.0632
 1282ERGO    R115966   7.987   2.620   6.379 -0.1284 -0.2390 -0.1115
 1282ERGO    R215967   8.034   2.822   6.561  0.1199 -0.2156 -0.1939
 1282ERGO    R315968   7.938   2.640   6.739  0.0233 -0.0752 -0.0996
 1282ERGO    R415969   8.158   2.772   6.880  0.0719 -0.1093 -0.1580
 1282ERGO    R515970   8.133   2.558   6.851 -0.0275 -0.1100 -0.0428
 1282ERGO    C115971   8.140   2.572   7.232 -0.0468  0.0843 -0.0486
 1282ERGO    C215972   8.341   2.593   7.487  0.2543 -0.3534  0.3174
 1283ERGO   ROH15973   8.194  16.290   7.494 -0.0501  0.3025 -0.4440
 1283ERGO    R115974   8.035  16.510   7.572 -0.0435  0.1944 -0.1124
 1283ERGO    R215975   7.851  16.627   7.403 -0.0422  0.4493  0.0639
 1283ERGO    R315976   7.679  16.579   7.609 -0.0420  0.1517  0.0000
 1283ERGO    R415977   7.543  16.780   7.444  0.0245  0.5141  0.3519
 1283ERGO    R515978   7.583  16.794   7.657  0.0522  0.1184  0.3858
 1283ERGO    C115979   7.203  16.823   7.660  0.0636  0.2726  0.4597
 1283ERGO    C215980   6.820  16.819   7.560 -0.0081  0.2611 -0.0258
 1284ERGO   ROH15981   0.949   6.481   6.552 -0.0335  0.1122 -0.0421
 1284ERGO    R115982   0.916   6.455   6.832 -0.1239  0.0959 -0.0552
 1284ERGO    R215983   1.104   6.333   6.993 -0.1997  0.0478 -0.0111
 1284ERGO    R315984   1.090   6.567   7.131 -0.1948  0.0369  0.0106
 1284ERGO    R415985   1.112   6.360   7.338 -0.0255  0.0213 -0.0113
 1284ERGO    R515986   0.959   6.515   7.324 -0.0814 -0.0185  0.0783
 1284ERGO    C115987   1.104   6.595   7.668  0.0804 -0.0045  0.0089
 1284ERGO    C215988   1.272   6.538   7.953  0.1948 -0.1755 -0.1456
 1285ERGO   ROH15989  10.655  12.021   5.983  0.0138  0.1093 -0.2943
 1285ERGO    R115990  10.752  12.113   6.233  0.1296  0.1410 -0.3531
 1285ERGO    R215991  10.836  12.374   6.273 -0.3813  0.2966 -0.2884
 1285ERGO    R315992  10.656  12.366   6.477 -0.1163 -0.2291 -0.0514
 1285ERGO    R415993  10.813  12.608   6.526 -0.7705  0.2887 -0.3072
 1285ERGO    R515994  10.778  12.446   6.667 -0.0956  0.1791 -0.2197
 1285ERGO    C115995  10.631  12.737   6.864 -0.7482 -0.2094 -0.0956
 1285ERGO    C215996  10.286  12.909   7.233 -0.0174  0.2713  0.3461
 1286ERGO   ROH15997   1.233  16.506   6.138 -0.1907  0.0334  0.2021
 1286ERGO    R115998   1.291  16.376   6.383  0.1197  0.1092  0.1731
 1286ERGO    R215999   1.505  16.448   6.543  0.0117  0.5204  0.1443
 1286ERGO    R316000   1.312  16.470   6.734 -0.0063  0.1042  0.1822
 1286ERGO    R416001   1.566  16.503   6.879 -0.0384  0.6240  0.1367
 1286ERGO    R516002   1.407  16.361   6.925  0.2610  0.2820  0.1566
 1286ERGO    C116003   1.421  16.555   7.254 -0.0844  0.2932  0.1679
 1286ERGO    C216004   1.306  16.620   7.590 -0.2780 -0.0202 -0.2219
 1287ERGO   ROH16005   6.958   1.253   5.986 -0.1084 -0.2733 -0.0228
 1287ERGO    R116006   6.904   1.339   6.250  0.0110 -0.0096 -0.0815
 1287ERGO    R216007   6.900   1.165   6.465 -0.2271  0.1453  0.0404
 1287ERGO    R316008   7.080   1.341   6.569  0.0183 -0.0255 -0.0846
 1287ERGO    R416009   7.020   1.157   6.789  0.0148  0.0120 -0.0492
 1287ERGO    R516010   7.007   1.374   6.794  0.2196  0.0282 -0.0232
 1287ERGO    C116011   7.258   1.317   7.075  0.3859 -0.2259 -0.2186
 1287ERGO    C216012   7.328   1.150   7.326 -0.1930 -0.0127 -0.2266
 1288ERGO   ROH16013  16.284   6.778   6.451 -0.2749  0.2357  0.1594
 1288ERGO    R116014  16.500   6.915   6.573 -0.1813  0.2710 -0.0413
 1288ERGO    R216015  16.475   7.169   6.679 -0.1749  0.1962  0.1459
 1288ERGO    R316016  16.575   7.051   6.902  0.1813  0.1091 -0.0517
 1288ERGO    R416017  16.633   7.336   6.936 -0.1815  0.1644  0.1702
 1288ERGO    R516018  16.776   7.172   6.948  0.0592  0.3419 -0.1129
 1288ERGO    C116019  16.820   7.323   7.296  0.1493  0.0642 -0.0010
 1288ERGO    C216020  16.901   7.398   7.611  0.1636  0.2583 -0.2906
 1289ERGO   ROH16021  10.049  11.018   6.118  0.1715  0.2166  0.0199
 1289ERGO    R116022  10.041  10.784   6.279  0.2408  0.0800 -0.1738
 1289ERGO    R216023  10.269  10.651   6.359  0.2969  0.2976  0.0142
 1289ERGO    R316024  10.162  10.685   6.607 -0.0689 -0.0303 -0.0876
 1289ERGO    R416025  10.393  10.509   6.648  0.3643  0.5359  0.1061
 1289ERGO    R516026  10.188  10.471   6.712  0.3692 -0.0093 -0.1233
 1289ERGO    C116027  10.366  10.457   7.049  0.0603  0.3667  0.0641
 1289ERGO    C216028  10.416  10.258   7.252  0.1304  0.2758 -0.1386
 1290ERGO   ROH16029  13.494   7.724   6.340 -0.1561 -0.2648  0.1236
 1290ERGO    R116030  13.597   7.650   6.593  0.1196 -0.0138  0.0913
 1290ERGO    R216031  13.705   7.833   6.769 -0.1813  0.2519  0.0156
 1290ERGO    R316032  13.523   7.727   6.941  0.1086 -0.1119  0.1099
 1290ERGO    R416033  13.724   7.852   7.113 -0.0045  0.2051  0.0089
 1290ERGO    R516034  13.654   7.646   7.124  0.3662  0.0765  0.0114
 1290ERGO    C116035  13.564   7.763   7.475  0.3704 -0.1638  0.0936
 1290ERGO    C216036  13.435   7.692   7.816  0.0322 -0.0823 -0.0353
 1291ERGO   ROH16037  10.309  17.613   5.506 -0.0807 -0.2189  0.3036
 1291ERGO    R116038  10.398  17.763   5.729 -0.0540  0.0334  0.1269
 1291ERGO    R216039  10.225  17.897   5.898 -0.0546 -0.0016  0.1526
 1291ERGO    R316040  10.354  17.753   6.090  0.2221  0.2609  0.1711
 1291ERGO    R416041  10.146  17.903   6.234 -0.4150 -0.4784  0.0877
 1291ERGO    R516042  10.360  17.900   6.279 -0.4278  0.1682  0.2880
 1291ERGO    C116043  10.221  17.772   6.610 -0.3652 -0.5098  0.0672
 1291ERGO    C216044  10.006  17.761   6.864 -0.2392  0.1290 -0.0336
 1292ERGO   ROH16045  17.932  16.350   6.455  0.0685  0.2568  0.1614
 1292ERGO    R116046  17.961  16.217   6.703  0.1030  0.1089  0.0824
 1292ERGO    R216047  18.139  16.302   6.897  0.0784  0.0477  0.1500
 1292ERGO    R316048  17.918  16.302   7.055  0.0651 -0.1154  0.1293
 1292ERGO    R416049  18.140  16.359   7.238 -0.0324  0.1646  0.1297
 1292ERGO    R516050  17.991  16.201   7.259  0.1296  0.0340  0.1690
 1292ERGO    C116051  17.933  16.393   7.584 -0.1095  0.0796  0.0984
 1292ERGO    C216052  18.122  16.589   7.862 -0.0159 -0.0394 -0.0605
 1293ERGO   ROH16053   8.658  15.305   5.994  0.1235 -0.0761  0.0056
 1293ERGO    R116054   8.714  15.321   6.271 -0.1002 -0.1362  0.0582
 1293ERGO    R216055   8.654  15.116   6.447  0.1013 -0.3429 -0.0940
 1293ERGO    R316056   8.917  15.136   6.510  0.0315  0.0552  0.0925
 1293ERGO    R416057   8.788  15.051   6.759 -0.0012 -0.1683 -0.0135
 1293ERGO    R516058   8.919  15.223   6.733 -0.2488  0.0323  0.1001
 1293ERGO    C116059   9.114  15.032   6.999 -0.1265  0.3072  0.2084
 1293ERGO    C216060   9.197  14.911   7.260  0.3860  0.2183 -0.0297
 1294ERGO   ROH16061   2.571   0.279   6.239 -0.1008 -0.1938 -0.3265
 1294ERGO    R116062   2.549   0.021   6.352 -0.1420 -0.1385 -0.2064
 1294ERGO    R216063   2.767  -0.144   6.390 -0.1784 -0.1880 -0.2046
 1294ERGO    R316064   2.678  -0.151   6.646 -0.0988 -0.0479 -0.1723
 1294ERGO    R416065   2.708  -0.433   6.571 -0.2882 -0.0916 -0.0848
 1294ERGO    R516066   2.529  -0.339   6.653 -0.2066  0.0402 -0.0577
 1294ERGO    C116067   2.590  -0.607   6.917 -0.2775  0.0959  0.0154
 1294ERGO    C216068   2.712  -1.005   6.764  0.0564  0.1947 -0.0197
 1295ERGO   ROH16069   9.758  14.916   6.015  0.0441 -0.0557  0.0748
 1295ERGO    R116070   9.650  14.699   6.162 -0.0525 -0.0648 -0.0083
 1295ERGO    R216071   9.783  14.459   6.192 -0.1416 -0.1206 -0.0650
 1295ERGO    R316072   9.744  14.507   6.456 -0.1618 -0.1920 -0.0547
 1295ERGO    R416073   9.799  14.220   6.441  0.0533 -0.1536 -0.1077
 1295ERGO    R516074   9.627  14.314   6.536 -0.0139 -0.2959 -0.0805
 1295ERGO    C116075   9.772  14.126   6.834  0.1480 -0.2399 -0.1230
 1295ERGO    C216076   9.842  14.151   7.040 -0.0536  0.1360 -0.0678
 1296ERGO   ROH16077  17.214   6.215   6.726 -0.1912 -0.2914 -0.0416
 1296ERGO    R116078  17.285   6.155   6.993 -0.1378 -0.2749 -0.0528
 1296ERGO    R216079  17.292   6.348   7.191  0.0553 -0.2349 -0.1028
 1296ERGO    R316080  17.125   6.176   7.320 -0.0112 -0.0961  0.0003
 1296ERGO    R416081  17.268   6.318   7.535  0.1100 -0.0758 -0.0834
 1296ERGO    R516082  17.252   6.101   7.509 -0.0085 -0.0835  0.0075
 1296ERGO    C116083  17.097   6.139   7.856  0.0792  0.1472  0.0245
 1296ERGO    C216084  17.040   6.239   8.181  0.0875 -0.4421  0.1427
 1297ERGO   ROH16085   5.317  15.075   6.026 -0.0249  0.1741 -0.0596
 1297ERGO    R116086   5.147  15.089   6.252 -0.0690  0.1487 -0.0920
 1297ERGO    R216087   5.141  14.893   6.447 -0.2144  0.0554 -0.1935
 1297ERGO    R316088   5.187  15.103   6.613 -0.1468 -0.0527 -0.0732
 1297ERGO    R416089   5.111  14.882   6.791  0.0933 -0.2268 -0.1705
 1297ERGO    R516090   5.021  15.081   6.785  0.0082 -0.2502  0.0606
 1297ERGO    C116091   5.138  15.073   7.148  0.3359 -0.4926 -0.0442
 1297ERGO    C216092   5.011  15.105   7.453  0.3509  0.0507 -0.0357
 1298ERGO   ROH16093  17.226  13.376   6.699  0.2341 -0.2139  0.1050
 1298ERGO    R116094  17.304  13.497   6.942  0.2855  0.0061 -0.0190
 1298ERGO    R216095  17.289  13.366   7.185  0.1257  0.3003  0.1316
 1298ERGO    R316096  17.552  13.434   7.201  0.1815  0.1000  0.1066
 1298ERGO    R416097  17.485  13.336   7.469  0.0721  0.3249  0.1718
 1298ERGO    R516098  17.576  13.527   7.420  0.2327  0.2254  0.0520
 1298ERGO    C116099  17.845  13.382   7.648  0.0929  0.1513  0.1718
 1298ERGO    C216100  17.998  13.380   7.991 -0.2368  0.2308 -0.0577
 1299ERGO   ROH16101  18.464   1.155   6.566 -0.2165 -0.0516  0.0138
 1299ERGO    R116102  18.428   0.915   6.712  0.0477 -0.1216 -0.0314
 1299ERGO    R216103  18.639   0.751   6.783  0.2396  0.1356  0.0059
 1299ERGO    R316104  18.535   0.782   7.033  0.1263 -0.0310 -0.0195
 1299ERGO    R416105  18.732   0.566   7.060  0.3344  0.1540 -0.0135
 1299ERGO    R516106  18.522   0.559   7.120  0.3189 -0.0693 -0.0829
 1299ERGO    C116107  18.689   0.487   7.455  0.2832  0.0083 -0.0487
 1299ERGO    C216108  18.818   0.318   7.727 -0.1963  0.2816 -0.0162
 1300ERGO   ROH16109  16.770  17.464   6.348 -0.0712 -0.0323  0.0452
 1300ERGO    R116110  16.620  17.333   6.549 -0.1562 -0.0410 -0.0242
 1300ERGO    R216111  16.484  17.097   6.503 -0.1550 -0.0262 -0.0985
 1300ERGO    R316112  16.628  17.010   6.717 -0.2426 -0.0579 -0.0513
 1300ERGO    R416113  16.378  16.856   6.728 -0.2047 -0.1356 -0.2371
 1300ERGO    R516114  16.464  16.976   6.889 -0.3249 -0.1652 -0.1490
 1300ERGO    C116115  16.451  16.634   7.059 -0.3160 -0.2290 -0.2736
 1300ERGO    C216116  16.278  16.448   7.404  0.0982  0.2804  0.1502
 1301ERGO   ROH16117   9.404   0.719   6.356  0.0870  0.3677 -0.0887
 1301ERGO    R116118   9.490   0.555   6.570 -0.2439  0.2880 -0.0132
 1301ERGO    R216119   9.748   0.563   6.669 -0.1867 -0.2740 -0.1034
 1301ERGO    R316120   9.621   0.606   6.906 -0.0136  0.1847 -0.0838
 1301ERGO    R416121   9.890   0.516   6.981 -0.2142 -0.5481 -0.1282
 1301ERGO    R516122   9.701   0.432   7.049 -0.4543  0.0009 -0.0377
 1301ERGO    C116123   9.854   0.530   7.384 -0.0679 -0.2772 -0.1243
 1301ERGO    C216124  10.017   0.811   7.572  0.0830 -0.0528 -0.0175
 1302ERGO   ROH16125  17.749  18.415   6.634  0.1267 -0.1720  0.1524
 1302ERGO    R116126  17.839  18.367   6.898  0.1081  0.0313  0.1990
 1302ERGO    R216127  17.936  18.567   7.061 -0.1301  0.2045  0.1427
 1302ERGO    R316128  17.747  18.475   7.233 -0.0889  0.0898  0.1256
 1302ERGO    R416129  17.994  18.480   7.391 -0.0613 -0.0225  0.0720
 1302ERGO    R516130  17.860  18.310   7.364 -0.0659  0.0010 -0.0117
 1302ERGO    C116131  17.849  18.344   7.744  0.0174 -0.2622  0.0147
 1302ERGO    C216132  17.758  18.440   8.175 -0.0495  0.0266 -0.1284
 1303ERGO   ROH16133  10.641   8.263   6.148  0.0529  0.3429  0.1563
 1303ERGO    R116134  10.782   8.092   6.324  0.1321  0.3077  0.0582
 1303ERGO    R216135  10.878   8.177   6.569  0.0237  0.1922  0.1377
 1303ERGO    R316136  10.737   7.964   6.662  0.1508  0.0246 -0.0423
 1303ERGO    R416137  10.925   8.029   6.877  0.0516  0.0273  0.0561
 1303ERGO    R516138  10.898   7.835   6.783  0.2194  0.0635 -0.0837
 1303ERGO    C116139  10.820   7.743   7.145  0.1873 -0.2261 -0.1605
 1303ERGO    C216140  10.767   7.787   7.535  0.3140 -0.2030  0.2512
 1304ERGO   ROH16141   8.967   2.977   6.263 -0.0531 -0.2998  0.0862
 1304ERGO    R116142   8.901   2.961   6.538  0.0079 -0.1323  0.1119
 1304ERGO    R216143   9.092   2.941   6.737  0.0586  0.1282  0.0943
 1304ERGO    R316144   8.964   3.159   6.837 -0.0494  0.1316 -0.0473
 1304ERGO    R416145   9.113   3.049   7.064 -0.0864  0.2902  0.0517
 1304ERGO    R516146   8.900   3.093   7.058 -0.0987  0.2139 -0.0381
 1304ERGO    C116147   9.005   3.316   7.349 -0.2723  0.3877 -0.1060
 1304ERGO    C216148   9.042   3.278   7.635 -0.0425  0.2881  0.0539
 1305ERGO   ROH16149   4.460   8.465   6.547 -0.0403 -0.2592 -0.0543
 1305ERGO    R116150   4.412   8.339   6.796 -0.0637 -0.1010  0.0232
 1305ERGO    R216151   4.617   8.254   6.962 -0.0779 -0.1652  0.0102
 1305ERGO    R316152   4.488   8.407   7.146  0.0809  0.0218 -0.0310
 1305ERGO    R416153   4.581   8.172   7.295 -0.2767 -0.1027  0.0050
 1305ERGO    R516154   4.377   8.248   7.287 -0.1740  0.1774 -0.0514
 1305ERGO    C116155   4.439   8.268   7.663 -0.2434  0.1094 -0.0367
 1305ERGO    C216156   4.533   8.145   8.038  0.0219  0.2900  0.4692
 1306ERGO   ROH16157   9.050   4.855   6.337  0.1564 -0.1969  0.0901
 1306ERGO    R116158   8.956   5.017   6.549  0.1499 -0.0812 -0.0009
 1306ERGO    R216159   8.850   4.912   6.782  0.0738  0.0466  0.0210
 1306ERGO    R316160   9.038   5.069   6.900  0.0850  0.0524 -0.0038
 1306ERGO    R416161   8.877   4.967   7.122 -0.0414  0.2420  0.0002
 1306ERGO    R516162   8.922   5.176   7.080  0.0493  0.2040 -0.1118
 1306ERGO    C116163   9.069   5.146   7.431 -0.0979  0.3614 -0.0353
 1306ERGO    C216164   9.217   5.304   7.800 -0.4101 -0.1754 -0.0248
 1307ERGO   ROH16165   5.766  16.217   5.656 -0.1519  0.1448 -0.0325
 1307ERGO    R116166   5.831  16.251   5.930 -0.1817  0.0544 -0.0142
 1307ERGO    R216167   5.695  16.120   6.132 -0.1994 -0.0173 -0.0731
 1307ERGO    R316168   5.945  16.040   6.203 -0.2047 -0.0346 -0.0730
 1307ERGO    R416169   5.797  16.054   6.456 -0.2197 -0.0807 -0.0791
 1307ERGO    R516170   5.987  16.152   6.410 -0.2155 -0.0748 -0.0489
 1307ERGO    C116171   6.091  15.941   6.711 -0.2365 -0.1339 -0.0826
 1307ERGO    C216172   6.082  15.902   7.002  0.2060  0.3608 -0.1987
 1308ERGO   ROH16173  13.730   9.345   6.589  0.0776  0.1029 -0.0041
 1308ERGO    R116174  13.803   9.553   6.766  0.0526  0.1204 -0.0133
 1308ERGO    R216175  13.742   9.547   7.036 -0.0564  0.1834 -0.0312
 1308ERGO    R316176  14.010   9.586   7.064 -0.0581  0.1264  0.0612
 1308ERGO    R416177  13.894   9.674   7.319 -0.0968 -0.0069  0.0770
 1308ERGO    R516178  14.027   9.789   7.190 -0.0504  0.0454  0.1827
 1308ERGO    C116179  14.234   9.784   7.511 -0.1221 -0.1712  0.2268
 1308ERGO    C216180  14.264   9.834   7.849  0.0692  0.2533 -0.0402
 1309ERGO   ROH16181   7.004   0.052   6.148  0.1557  0.1355 -0.0106
 1309ERGO    R116182   7.038   0.181   6.398  0.2993 -0.0512  0.0658
 1309ERGO    R216183   6.829   0.220   6.574  0.3494  0.0695  0.0818
 1309ERGO    R316184   6.994   0.093   6.748  0.2103 -0.2102  0.0191
 1309ERGO    R416185   6.766   0.179   6.911  0.2990  0.0006  0.0662
 1309ERGO    R516186   6.976   0.220   6.950  0.3642 -0.2656  0.0789
 1309ERGO    C116187   6.884   0.035   7.271  0.1390 -0.3021 -0.0019
 1309ERGO    C216188   6.685  -0.019   7.541 -0.2050 -0.0245 -0.1034
 1310ERGO   ROH16189   7.029  14.454   5.857 -0.1310 -0.0955 -0.1008
 1310ERGO    R116190   6.964  14.324   6.100  0.0882 -0.1220 -0.0531
 1310ERGO    R216191   7.131  14.327   6.320  0.1115  0.1974 -0.0671
 1310ERGO    R316192   6.909  14.422   6.446 -0.0239 -0.0926 -0.0800
 1310ERGO    R416193   7.056  14.279   6.654  0.3087  0.3574  0.0021
 1310ERGO    R516194   6.847  14.249   6.598  0.3405 -0.0720  0.0962
 1310ERGO    C116195   6.804  14.340   6.966  0.2964  0.1785  0.0304
 1310ERGO    C216196   6.501  14.424   7.275  0.0438 -0.1361  0.0808
 1311ERGO   ROH16197   4.770  10.128   6.275 -0.2215 -0.1819  0.0681
 1311ERGO    R116198   4.759  10.128   6.558 -0.1069 -0.1173  0.0741
 1311ERGO    R216199   4.978  10.067   6.715 -0.0545 -0.1283  0.0016
 1311ERGO    R316200   4.924  10.307   6.828  0.0416 -0.0919 -0.0317
 1311ERGO    R416201   5.006  10.136   7.052 -0.1868 -0.1472  0.0156
 1311ERGO    R516202   4.822  10.252   7.038 -0.1056 -0.0264 -0.0843
 1311ERGO    C116203   4.971  10.402   7.355 -0.1737 -0.1241 -0.0075
 1311ERGO    C216204   4.950  10.473   7.667  0.0516  0.1762  0.2942
 1312ERGO   ROH16205   5.569   5.020   6.451 -0.2860  0.0351  0.0459
 1312ERGO    R116206   5.555   5.142   6.706 -0.0309  0.0268  0.0657
 1312ERGO    R216207   5.426   5.025   6.921 -0.0500  0.1421  0.1136
 1312ERGO    R316208   5.666   5.064   7.044  0.0533 -0.1219  0.0054
 1312ERGO    R416209   5.479   5.006   7.262  0.0175  0.3461  0.1165
 1312ERGO    R516210   5.610   5.179   7.246  0.2853  0.1383 -0.0697
 1312ERGO    C116211   5.734   5.031   7.576  0.1538  0.2169  0.0167
 1312ERGO    C216212   5.759   4.961   7.853  0.0316  0.0478 -0.2343
 1313ERGO   ROH16213   8.647  11.566   5.865  0.0459  0.1505  0.0166
 1313ERGO    R116214   8.631  11.471   6.131 -0.0584  0.1753  0.0184
 1313ERGO    R216215   8.847  11.363   6.263 -0.1842 -0.0798  0.0101
 1313ERGO    R316216   8.786  11.551   6.450  0.0484 -0.0042  0.0147
 1313ERGO    R416217   8.973  11.368   6.585 -0.2779 -0.3363  0.0540
 1313ERGO    R516218   8.775  11.428   6.656 -0.2181 -0.0279 -0.0053
 1313ERGO    C116219   8.989  11.547   6.948 -0.1139 -0.4146  0.0838
 1313ERGO    C216220   9.097  11.424   7.144  0.0569  0.0907 -0.0941
 1314ERGO   ROH16221   0.583   6.049   6.376 -0.0248 -0.2490 -0.1045
 1314ERGO    R116222   0.561   6.170   6.631  0.1230 -0.0611 -0.1757
 1314ERGO    R216223   0.423   6.052   6.840 -0.1507  0.2948 -0.1315
 1314ERGO    R316224   0.658   6.086   6.971 -0.1092 -0.0535 -0.1090
 1314ERGO    R416225   0.455   6.115   7.179 -0.0703  0.2574 -0.1337
 1314ERGO    R516226   0.613   6.257   7.133  0.1413  0.0149 -0.1189
 1314ERGO    C116227   0.694   6.185   7.498  0.0156 -0.0913 -0.1138
 1314ERGO    C216228   0.586   6.257   7.693 -0.0121  0.1227 -0.2108
 1315ERGO   ROH16229   9.977   2.896   6.253 -0.1061 -0.2045  0.0004
 1315ERGO    R116230  10.109   2.972   6.491  0.1185 -0.1183 -0.1497
 1315ERGO    R216231   9.998   2.934   6.741  0.2162  0.2550 -0.0503
 1315ERGO    R316232  10.233   2.805   6.790  0.1006  0.0347 -0.0527
 1315ERGO    R416233  10.094   2.808   7.049  0.2351  0.4795  0.0386
 1315ERGO    R516234  10.297   2.879   7.009  0.3063  0.2091 -0.1608
 1315ERGO    C116235  10.371   2.614   7.273  0.1376  0.4034  0.0882
 1315ERGO    C216236  10.378   2.599   7.702  0.0782  0.0608 -0.2361
 1316ERGO   ROH16237  12.326   9.803   6.716  0.1665  0.1866 -0.1353
 1316ERGO    R116238  12.405  10.001   6.902  0.1898  0.0484  0.0026
 1316ERGO    R216239  12.238  10.093   7.102  0.1504  0.0325 -0.0295
 1316ERGO    R316240  12.446  10.024   7.263  0.0417 -0.1576  0.0355
 1316ERGO    R416241  12.296  10.224   7.416  0.0273 -0.2098  0.0985
 1316ERGO    R516242  12.509  10.230   7.369  0.0584 -0.2512  0.2158
 1316ERGO    C116243  12.525  10.236   7.751 -0.1466 -0.5294  0.2341
 1316ERGO    C216244  12.420  10.560   8.019  0.0252  0.3336  0.1367
 1317ERGO   ROH16245   3.370  14.354   6.378 -0.2261 -0.0516  0.1676
 1317ERGO    R116246   3.251  14.292   6.627 -0.0597 -0.3356  0.1811
 1317ERGO    R216247   3.367  14.119   6.808  0.3787 -0.0655  0.1755
 1317ERGO    R316248   3.338  14.329   6.978 -0.1080 -0.1186  0.1707
 1317ERGO    R416249   3.338  14.092   7.152  0.6745 -0.1189  0.1984
 1317ERGO    R516250   3.187  14.249   7.146  0.2160 -0.5378  0.2775
 1317ERGO    C116251   3.294  14.273   7.511  0.3898 -0.2000  0.2072
 1317ERGO    C216252   3.359  14.188   7.772  0.0093  0.0809 -0.1024
 1318ERGO   ROH16253   7.510   0.994   8.985 -0.1326 -0.0908  0.0746
 1318ERGO    R116254   7.497   0.992   8.702 -0.0607 -0.0279  0.0707
 1318ERGO    R216255   7.302   1.128   8.561 -0.1487 -0.1653  0.0611
 1318ERGO    R316256   7.516   1.238   8.434 -0.2151  0.0618  0.1400
 1318ERGO    R416257   7.282   1.357   8.303 -0.2969 -0.1496  0.0851
 1318ERGO    R516258   7.447   1.253   8.205 -0.1629  0.0232  0.1205
 1318ERGO    C116259   7.471   1.593   8.034 -0.4454  0.0728  0.1731
 1318ERGO    C216260   7.718   1.791   7.867 -0.1658  0.0005  0.1885
 1319ERGO   ROH16261  18.053  18.041   6.444  0.0786  0.0880  0.1597
 1319ERGO    R116262  18.037  17.932   6.705 -0.0164 -0.0219  0.1098
 1319ERGO    R216263  18.259  17.892   6.864 -0.0722 -0.0561  0.1928
 1319ERGO    R316264  18.118  18.040   7.042 -0.1730 -0.1442  0.1855
 1319ERGO    R416265  18.360  17.962   7.187  0.0019  0.2701  0.1018
 1319ERGO    R516266  18.154  17.932   7.252  0.0828  0.0313  0.2281
 1319ERGO    C116267  18.285  18.142   7.543 -0.0493  0.3773  0.0420
 1319ERGO    C216268  18.271  18.128   7.985 -0.3903  0.0260  0.3339
 1320ERGO   ROH16269   4.953   9.248   6.500 -0.2531  0.2168  0.0287
 1320ERGO    R116270   5.002   9.128   6.751 -0.0802  0.1224 -0.0477
 1320ERGO    R216271   5.224   9.189   6.905 -0.1385  0.3085 -0.0311
 1320ERGO    R316272   5.037   9.241   7.096 -0.1918 -0.0395  0.0173
 1320ERGO    R416273   5.293   9.240   7.240 -0.1549  0.3904 -0.0405
 1320ERGO    R516274   5.116   9.123   7.289  0.0575  0.0723 -0.0139
 1320ERGO    C116275   5.158   9.319   7.614 -0.2147  0.1114 -0.0004
 1320ERGO    C216276   5.104   9.525   7.857  0.0120 -0.0389  0.1159
 1321ERGO   ROH16277  11.487  11.172   6.393  0.0092 -0.0439  0.0782
 1321ERGO    R116278  11.629  11.204   6.635  0.0224  0.0628  0.0590
 1321ERGO    R216279  11.503  11.249   6.877  0.0282  0.0966  0.0653
 1321ERGO    R316280  11.647  11.033   6.956  0.0920  0.1546  0.1022
 1321ERGO    R416281  11.601  11.185   7.202 -0.0621  0.1040  0.0924
 1321ERGO    R516282  11.793  11.117   7.126 -0.0098  0.1959  0.1622
 1321ERGO    C116283  11.793  10.944   7.466 -0.0546  0.1627  0.1429
 1321ERGO    C216284  12.001  10.791   7.770 -0.1702 -0.4315  0.3175
 1322ERGO   ROH16285   7.434   0.050   5.866 -0.2257 -0.1428 -0.0381
 1322ERGO    R116286   7.379  -0.070   6.117 -0.0616 -0.1204  0.0104
 1322ERGO    R216287   7.577  -0.126   6.301  0.0381  0.0881 -0.0236
 1322ERGO    R316288   7.419   0.020   6.467 -0.0372  0.0096 -0.0268
 1322ERGO    R416289   7.550  -0.174   6.642  0.0152  0.0535 -0.0308
 1322ERGO    R516290   7.336  -0.138   6.626  0.0076 -0.0311 -0.0493
 1322ERGO    C116291   7.385  -0.064   6.997 -0.0689 -0.0403 -0.0378
 1322ERGO    C216292   7.373   0.020   7.332  0.0252 -0.0535 -0.4108
 1323ERGO   ROH16293   1.299   7.425   6.805 -0.0671  0.0511 -0.0472
 1323ERGO    R116294   1.382   7.335   7.060 -0.1568  0.0297 -0.0255
 1323ERGO    R216295   1.577   7.465   7.208 -0.2174  0.0235  0.0581
 1323ERGO    R316296   1.384   7.467   7.400 -0.2874 -0.0046 -0.0110
 1323ERGO    R416297   1.625   7.561   7.536 -0.3143 -0.1106  0.1130
 1323ERGO    R516298   1.497   7.396   7.598 -0.3754 -0.1056  0.0049
 1323ERGO    C116299   1.472   7.619   7.907 -0.4364 -0.2151  0.0801
 1323ERGO    C216300   1.532   7.852   8.168 -0.1097 -0.0848  0.1369
 1324ERGO   ROH16301   9.286  15.980   5.895 -0.0460 -0.0968 -0.0532
 1324ERGO    R116302   9.326  15.912   6.167 -0.1169 -0.0709 -0.0354
 1324ERGO    R216303   9.496  16.054   6.332  0.0314 -0.2009 -0.0693
 1324ERGO    R316304   9.275  16.072   6.489  0.0445  0.0658 -0.0771
 1324ERGO    R416305   9.500  16.125   6.670  0.0823 -0.0084 -0.1091
 1324ERGO    R516306   9.343  15.976   6.698 -0.0351  0.1328 -0.0220
 1324ERGO    C116307   9.295  16.182   7.015  0.1243  0.3542 -0.1396
 1324ERGO    C216308   9.522  16.244   7.343 -0.0376  0.1013  0.0388
 1325ERGO   ROH16309  10.462  10.246   6.257  0.1808  0.1184  0.0855
 1325ERGO    R116310  10.318  10.127   6.470  0.1855  0.0074  0.0286
 1325ERGO    R216311  10.370   9.871   6.561  0.3172  0.0266  0.0218
 1325ERGO    R316312  10.396   9.996   6.800  0.1644  0.0247  0.0391
 1325ERGO    R416313  10.373   9.713   6.868  0.4319  0.0007  0.0070
 1325ERGO    R516314  10.252   9.874   6.947  0.2659 -0.1283  0.0084
 1325ERGO    C116315  10.399   9.738   7.272  0.3552 -0.0164  0.0147
 1325ERGO    C216316  10.400   9.464   7.600 -0.0463  0.0665  0.5130
 1326ERGO   ROH16317   9.447   9.066   5.855 -0.0163  0.1630 -0.1101
 1326ERGO    R116318   9.258   8.997   6.054 -0.0532  0.1900 -0.1364
 1326ERGO    R216319   9.325   8.852   6.280 -0.1298  0.0769 -0.1899
 1326ERGO    R316320   9.213   9.063   6.409 -0.0244  0.0873 -0.1122
 1326ERGO    R416321   9.257   8.863   6.618  0.0003  0.0306 -0.1612
 1326ERGO    R516322   9.069   8.963   6.573  0.0067  0.0930 -0.0764
 1326ERGO    C116323   9.112   9.067   6.937  0.1749  0.0134 -0.0716
 1326ERGO    C216324   8.856   9.032   7.235 -0.2970  0.0602 -0.2252
 1327ERGO   ROH16325  16.151  18.571   6.628 -0.1738  0.4626 -0.0205
 1327ERGO    R116326  16.115  18.397   6.848 -0.1136  0.3293 -0.1125
 1327ERGO    R216327  16.247  18.432   7.089 -0.0597  0.1958 -0.1119
 1327ERGO    R316328  15.994  18.426   7.190 -0.0386  0.1260 -0.0703
 1327ERGO    R416329  16.153  18.270   7.380 -0.0035  0.0806 -0.1590
 1327ERGO    R516330  15.971  18.206   7.280 -0.0042  0.0986 -0.1468
 1327ERGO    C116331  15.861  18.170   7.643  0.0488 -0.0521 -0.1472
 1327ERGO    C216332  15.578  18.162   7.912 -0.1049 -0.2103 -0.2655
 1328ERGO   ROH16333   4.314  10.413   6.241  0.1022 -0.2577  0.0380
 1328ERGO    R116334   4.433  10.610   6.404 -0.2201 -0.0822  0.0694
 1328ERGO    R216335   4.302  10.725   6.619 -0.3543 -0.4599  0.2001
 1328ERGO    R316336   4.523  10.645   6.756 -0.1019 -0.0744  0.0383
 1328ERGO    R416337   4.357  10.782   6.955 -0.2747 -0.5033  0.1948
 1328ERGO    R516338   4.566  10.823   6.909 -0.3797 -0.0518  0.0926
 1328ERGO    C116339   4.596  10.739   7.280  0.0085 -0.1665  0.0397
 1328ERGO    C216340   4.496  10.767   7.601 -0.0053  0.0537  0.1592
 1329ERGO   ROH16341  14.423  10.944   6.537  0.0957  0.0607  0.0929
 1329ERGO    R116342  14.516  10.856   6.790  0.1111 -0.0447  0.0500
 1329ERGO    R216343  14.657  11.020   6.962  0.1577 -0.1309  0.0897
 1329ERGO    R316344  14.463  10.947   7.138  0.1691 -0.1612  0.0907
 1329ERGO    R416345  14.699  10.998   7.304  0.0552  0.2896  0.1353
 1329ERGO    R516346  14.578  10.816   7.303  0.2594  0.1438  0.2806
 1329ERGO    C116347  14.541  10.917   7.669  0.0062  0.5061  0.1628
 1329ERGO    C216348  14.794  10.939   8.060  0.0608  0.2221  0.3120
 1330ERGO   ROH16349  17.348   0.986   6.546 -0.2893  0.2021 -0.0065
 1330ERGO    R116350  17.333   0.982   6.829 -0.1770  0.2385  0.0005
 1330ERGO    R216351  17.447   0.781   6.981 -0.3881  0.0838 -0.0387
 1330ERGO    R316352  17.568   0.990   7.106 -0.0436 -0.0719 -0.0992
 1330ERGO    R416353  17.573   0.774   7.303 -0.3079 -0.0519 -0.0721
 1330ERGO    R516354  17.495   0.975   7.333 -0.0051  0.0701 -0.0772
 1330ERGO    C116355  17.759   0.965   7.608  0.0618 -0.2770 -0.1484
 1330ERGO    C216356  17.914   0.915   7.961 -0.0257  0.0136  0.3908
 1331ERGO   ROH16357   2.324  10.895   9.422 -0.1461  0.1866  0.0583
 1331ERGO    R116358   2.151  10.990   9.219 -0.1536 -0.1019 -0.0720
 1331ERGO    R216359   2.190  11.232   9.091 -0.5179  0.0132  0.0467
 1331ERGO    R316360   2.179  11.077   8.867 -0.0074  0.0601 -0.0252
 1331ERGO    R416361   2.152  11.352   8.769 -0.6859  0.0731  0.0863
 1331ERGO    R516362   2.017  11.186   8.728 -0.2475 -0.2872 -0.0467
 1331ERGO    C116363   2.119  11.277   8.372 -0.3044  0.1518  0.0421
 1331ERGO    C216364   2.328  11.387   8.010  0.1236 -0.1150 -0.4063
 1332ERGO   ROH16365   5.621  17.274   5.867 -0.1473 -0.1013  0.1362
 1332ERGO    R116366   5.559  17.116   6.093 -0.2271 -0.0442  0.1550
 1332ERGO    R216367   5.719  17.107   6.317 -0.1486 -0.2175  0.0958
 1332ERGO    R316368   5.489  17.174   6.445 -0.0337  0.0207  0.1832
 1332ERGO    R416369   5.640  17.015   6.641 -0.1690 -0.2236  0.0889
 1332ERGO    R516370   5.435  16.980   6.575 -0.2318  0.0444  0.1361
 1332ERGO    C116371   5.377  17.025   6.949 -0.0729 -0.0037  0.1667
 1332ERGO    C216372   5.404  17.117   7.303  0.1134  0.1721 -0.3621
 1333ERGO   ROH16373   3.078   4.326   6.584 -0.0035 -0.3224  0.0813
 1333ERGO    R116374   3.154   4.166   6.805  0.0364 -0.1994  0.1582
 1333ERGO    R216375   3.207   4.272   7.054  0.0023 -0.0673  0.1128
 1333ERGO    R316376   3.021   4.091   7.135  0.0488 -0.0810  0.1896
 1333ERGO    R416377   3.165   4.165   7.380 -0.0169  0.1004  0.1663
 1333ERGO    R516378   3.133   3.963   7.305  0.0598  0.0497  0.2784
 1333ERGO    C116379   2.967   3.933   7.646  0.0156  0.1852  0.2695
 1333ERGO    C216380   2.799   3.850   7.940 -0.2259  0.2551  0.1674
 1334ERGO   ROH16381  16.418   3.006   6.977 -0.1892  0.1520  0.2067
 1334ERGO    R116382  16.584   3.131   7.169 -0.1878  0.1932  0.1788
 1334ERGO    R216383  16.484   3.254   7.395 -0.1661 -0.0821  0.3421
 1334ERGO    R316384  16.656   3.088   7.523  0.1116  0.0098  0.0998
 1334ERGO    R416385  16.592   3.296   7.720 -0.1446 -0.3067  0.3658
 1334ERGO    R516386  16.792   3.235   7.656 -0.0657  0.0551  0.2353
 1334ERGO    C116387  16.817   3.165   8.031  0.1287 -0.3512  0.1522
 1334ERGO    C216388  16.959   2.978   8.290 -0.2937 -0.3008 -0.1591
 1335ERGO   ROH16389   1.299  10.268   6.430 -0.0968 -0.0662 -0.1077
 1335ERGO    R116390   1.426  10.200   6.673 -0.0942 -0.0304 -0.0984
 1335ERGO    R216391   1.411  10.360   6.899 -0.0322  0.0395 -0.1406
 1335ERGO    R316392   1.322  10.131   7.015 -0.0853  0.0964 -0.0699
 1335ERGO    R416393   1.412  10.298   7.239  0.2426  0.0222 -0.1427
 1335ERGO    R516394   1.474  10.094   7.196  0.0592 -0.0198 -0.2132
 1335ERGO    C116395   1.329  10.047   7.546  0.3529  0.0655 -0.0776
 1335ERGO    C216396   1.324  10.040   7.867 -0.1624 -0.1575 -0.1722
 1336ERGO   ROH16397   5.943   0.399   5.925 -0.0090 -0.4215 -0.1507
 1336ERGO    R116398   5.800   0.259   6.125 -0.0548 -0.1341  0.0227
 1336ERGO    R216399   5.911   0.053   6.271 -0.2327 -0.2317  0.0160
 1336ERGO    R316400   5.832   0.203   6.483  0.1468 -0.0283  0.0242
 1336ERGO    R416401   5.898  -0.059   6.597 -0.5110 -0.2275  0.0082
 1336ERGO    R516402   5.710   0.050   6.622 -0.2498  0.2579  0.0164
 1336ERGO    C116403   5.815   0.016   6.987 -0.3168 -0.0343  0.0114
 1336ERGO    C216404   5.972   0.001   7.149  0.1352 -0.1752 -0.0771
 1337ERGO   ROH16405  15.654  11.975   6.450 -0.1274  0.2003  0.1483
 1337ERGO    R116406  15.441  11.843   6.582  0.0098  0.0499  0.2236
 1337ERGO    R216407  15.479  11.686   6.806  0.1781  0.2116  0.3119
 1337ERGO    R316408  15.291  11.850   6.913  0.0079  0.0781  0.2221
 1337ERGO    R416409  15.376  11.679   7.136 -0.0221  0.0980  0.2486
 1337ERGO    R516410  15.171  11.711   7.068 -0.0010 -0.0201  0.1274
 1337ERGO    C116411  15.139  11.829   7.429 -0.2984 -0.0936  0.1275
 1337ERGO    C216412  15.021  11.852   7.739  0.2589  0.2195  0.1244
 1338ERGO   ROH16413  10.626   3.862   5.972 -0.1880 -0.1342 -0.1010
 1338ERGO    R116414  10.507   4.010   6.181 -0.0690  0.0683 -0.1730
 1338ERGO    R216415  10.560   3.961   6.447 -0.2708  0.0091 -0.1412
 1338ERGO    R316416  10.621   4.226   6.451  0.1294 -0.0758 -0.1397
 1338ERGO    R416417  10.640   4.140   6.732 -0.2667 -0.0547 -0.1019
 1338ERGO    R516418  10.521   4.306   6.654  0.0554  0.1157 -0.2496
 1338ERGO    C116419  10.743   4.493   6.902  0.1115 -0.1715 -0.0776
 1338ERGO    C216420  11.111   4.484   7.074 -0.0043 -0.2576 -0.0267
 1339ERGO   ROH16421   0.499  11.953   6.614 -0.0383 -0.2338 -0.0267
 1339ERGO    R116422   0.582  11.906   6.881 -0.0543 -0.0974  0.0025
 1339ERGO    R216423   0.799  12.034   6.995 -0.1063  0.0124 -0.0287
 1339ERGO    R316424   0.617  12.102   7.185 -0.1444  0.0405 -0.0737
 1339ERGO    R416425   0.877  12.138   7.315 -0.1650  0.0139 -0.0139
 1339ERGO    R516426   0.711  12.019   7.389 -0.1992  0.0342 -0.0480
 1339ERGO    C116427   0.753  12.263   7.680 -0.2349  0.0412 -0.0474
 1339ERGO    C216428   0.865  12.243   8.035  0.0272  0.1528  0.1964
 1340ERGO   ROH16429  13.589   3.228   5.930  0.2238 -0.0068  0.1483
 1340ERGO    R116430  13.612   3.025   6.125  0.1798 -0.0337  0.1258
 1340ERGO    R216431  13.845   2.978   6.266  0.1662 -0.0911  0.1313
 1340ERGO    R316432  13.682   3.007   6.481  0.1613 -0.0871  0.1267
 1340ERGO    R416433  13.938   2.919   6.593  0.1021 -0.2736  0.1174
 1340ERGO    R516434  13.744   2.827   6.627  0.0478 -0.1796  0.0614
 1340ERGO    C116435  13.840   2.911   6.986  0.0602 -0.3761  0.1049
 1340ERGO    C216436  13.665   3.017   7.210 -0.2649 -0.2614  0.0584
 1341ERGO   ROH16437   0.587   9.434   6.703  0.1156  0.1134 -0.1931
 1341ERGO    R116438   0.780   9.597   6.831  0.1422  0.0568 -0.1632
 1341ERGO    R216439   0.751   9.684   7.092  0.1230  0.0690 -0.1747
 1341ERGO    R316440   0.996   9.571   7.123  0.0862 -0.0002 -0.1245
 1341ERGO    R416441   0.930   9.679   7.388  0.0858  0.0906 -0.1509
 1341ERGO    R516442   1.111   9.718   7.273  0.1142  0.0079 -0.1468
 1341ERGO    C116443   1.264   9.569   7.589  0.0295  0.0383 -0.0900
 1341ERGO    C216444   1.290   9.556   7.930  0.2049 -0.2680 -0.0760
 1342ERGO   ROH16445   7.103   1.745   6.146  0.0469 -0.3100  0.0687
 1342ERGO    R116446   7.268   1.662   6.360 -0.0279 -0.2247  0.1577
 1342ERGO    R216447   7.429   1.838   6.500  0.0712 -0.2073  0.0055
 1342ERGO    R316448   7.297   1.737   6.715 -0.0057  0.0766  0.0986
 1342ERGO    R416449   7.573   1.781   6.809  0.1353 -0.3367 -0.0458
 1342ERGO    R516450   7.459   1.595   6.822 -0.1747 -0.1603  0.0650
 1342ERGO    C116451   7.533   1.653   7.192  0.1005 -0.1456  0.0117
 1342ERGO    C216452   7.432   1.633   7.474  0.0242  0.0827 -0.2616
 1343ERGO   ROH16453  18.304   7.292   6.942  0.2514  0.0180 -0.0460
 1343ERGO    R116454  18.421   7.300   7.199  0.0947  0.1719  0.0217
 1343ERGO    R216455  18.303   7.431   7.412 -0.1993  0.0245 -0.0469
 1343ERGO    R316456  18.330   7.190   7.534  0.0426  0.0573 -0.0294
 1343ERGO    R416457  18.396   7.384   7.742 -0.2152  0.1451 -0.0244
 1343ERGO    R516458  18.518   7.216   7.679 -0.0136  0.2744  0.0092
 1343ERGO    C116459  18.475   7.130   8.048  0.0027  0.2462  0.0051
 1343ERGO    C216460  18.591   7.216   8.445  0.1055 -0.0551  0.0172
 1344ERGO   ROH16461   5.984  10.015   6.124 -0.2915  0.1081 -0.0574
 1344ERGO    R116462   6.015  10.204   6.333 -0.2041  0.1413 -0.1018
 1344ERGO    R216463   5.806  10.358   6.426 -0.2017  0.0300  0.0741
 1344ERGO    R316464   5.879  10.254   6.667  0.0748  0.0954  0.0235
 1344ERGO    R416465   5.789  10.526   6.728 -0.0792  0.0441  0.0750
 1344ERGO    R516466   5.980  10.438   6.783  0.0392  0.1846 -0.0753
 1344ERGO    C116467   5.847  10.526   7.129  0.2518  0.1136  0.0280
 1344ERGO    C216468   5.924  10.682   7.434  0.1012 -0.1931  0.0186
 1345ERGO   ROH16469   5.034  12.413   5.735  0.0315  0.2169 -0.0672
 1345ERGO    R116470   5.064  12.574   5.966  0.1057  0.2115 -0.0727
 1345ERGO    R216471   4.998  12.485   6.219 -0.0713  0.2993 -0.0861
 1345ERGO    R316472   5.254  12.558   6.276 -0.0181  0.0576 -0.0032
 1345ERGO    R416473   5.109  12.585   6.531 -0.1035  0.2861 -0.0708
 1345ERGO    R516474   5.229  12.738   6.433  0.0966  0.1343 -0.0713
 1345ERGO    C116475   5.413  12.712   6.766 -0.0723  0.0516  0.0160
 1345ERGO    C216476   5.325  12.829   7.141 -0.0897 -0.1065 -0.1583
 1346W        W16477  18.062  18.104   0.700 -0.2230 -0.0244 -0.0488
 1347W        W16478   4.823   7.839   4.270  0.0231  0.0844 -0.0063
 1348W        W16479   2.164   4.954   3.827  0.3162 -0.2483 -0.0623
 1349W        W16480  10.078  14.073  11.867  0.1492 -0.1265 -0.0055
 1350W        W16481  18.039  14.596   0.314  0.1127 -0.1020 -0.4182
 1351W        W16482  12.666  13.650   0.385  0.3005  0.3861 -0.4286
 1352W        W16483  12.761   0.404  11.024  0.0753 -0.0724 -0.0800
 1353W        W16484   7.860   2.065   3.033 -0.0506 -0.3253  0.2296
 1354W        W16485   9.839  15.375  10.908 -0.2138  0.0055  0.0203
 1355W        W16486   1.401   9.002  15.537 -0.0239 -0.2866  0.1678
 1356W        W16487   8.196   4.915   4.795 -0.1803 -0.0078  0.1821
 1357W        W16488   3.574   9.978  14.411 -0.0354  0.0508  0.3179
 1358W        W16489  13.391  16.406   3.905  0.1074  0.1446  0.2313
 1359W        W16490   7.783   4.930  10.636 -0.1221 -0.1643  0.1430
 1360W        W16491   7.683   0.902  13.504 -0.0762  0.3318  0.0232
 1361W        W16492  13.834   3.637  13.050  0.0529 -0.1195  0.0590
 1362W        W16493  10.469   5.209   1.708  0.2042  0.1873 -0.0992
 1363W        W16494   0.405   9.861   0.296  0.0676 -0.0815 -0.2011
 1364W        W16495   1.893  17.831  14.496 -0.1166  0.2049 -0.1446
 1365W        W16496   4.750   3.858   3.419  0.1437  0.1889  0.0249
 1366W        W16497  16.463   3.215  11.365  0.0451 -0.0002 -0.4363
 1367W        W16498   8.344  17.962   0.045  0.0070 -0.0887 -0.2641
 1368W        W16499   5.705   0.924   1.275 -0.1013 -0.1269 -0.1079
 1369W        W16500  10.826  12.688  14.630  0.1608  0.1051  0.2579
 1370W        W16501  10.042  15.820  11.218  0.0306 -0.1906  0.0382
 1371W        W16502   0.969  10.678   3.620  0.0506 -0.0577  0.1356
 1372W        W16503  18.232  15.356   2.571  0.2185 -0.2057 -0.0050
 1373W        W16504  15.458   4.493  11.311  0.3091 -0.1614  0.3321
 1374W        W16505  12.868   5.198  13.679 -0.2091 -0.3822  0.0706
 1375W        W16506   9.952  17.604  15.798 -0.0267  0.0794 -0.1479
 1376W        W16507  14.365   8.830   4.304  0.1303  0.2276 -0.1558
 1377W        W16508   5.527   3.288  13.827  0.0701 -0.2397 -0.1416
 1378W        W16509  13.250   0.348   4.239 -0.0262 -0.0814  0.1559
 1379W        W16510   5.121   5.698  15.242  0.3379  0.4208  0.1713
 1380W        W16511   7.046  13.291   2.962 -0.1609  0.0138 -0.3376
 1381W        W16512   2.840   6.514  12.255  0.2031  0.1028 -0.1063
 1382W        W16513  14.589   9.713  11.489  0.0148  0.0589  0.0813
 1383W        W16514  14.245   8.898   4.812 -0.1064 -0.1556  0.0336
 1384W        W16515  13.827   1.139   5.045  0.0313  0.1500 -0.0910
 1385W        W16516  14.935  16.849   0.565 -0.0320 -0.1115 -0.3734
 1386W        W16517   5.118   2.387  11.892 -0.2829  0.3446 -0.1032
 1387W        W16518   0.551   3.936  13.982 -0.0376  0.1848 -0.0828
 1388W        W16519   1.403   2.194  15.168 -0.2774  0.1817  0.1532
 1389W        W16520   0.274  10.178   3.768 -0.1653 -0.2371 -0.1164
 1390W        W16521   7.206   1.985   4.011  0.0541  0.2530 -0.0572
 1391W        W16522  14.596  18.035  14.193  0.2430  0.1361 -0.0935
 1392W        W16523   9.402   7.612   5.167 -0.2207 -0.0545  0.0841
 1393W        W16524  14.344  16.593  14.679 -0.0268  0.1159  0.1749
 1394W        W16525   0.122   6.489   4.003  0.1614  0.0960 -0.1466
 1395W        W16526  14.093   4.744  14.133 -0.1647  0.2865  0.1288
 1396W        W16527  18.470  16.806  10.967  0.0850  0.3126 -0.2701
 1397W        W16528  17.013  10.322   3.741 -0.0207  0.0090  0.2503
 1398W        W16529  10.309  17.485   3.834 -0.3582 -0.1359 -0.0032
 1399W        W16530   9.924  13.438   2.044  0.1772  0.0062 -0.2488
 1400W        W16531   9.106  17.220  11.159 -0.2739  0.2235  0.1002
 1401W        W16532   8.982  17.790   3.814  0.2406  0.2555  0.2820
 1402W        W16533  13.152   3.803  15.795 -0.2302 -0.0122 -0.0339
 1403W        W16534   8.039  16.915   0.118  0.2048  0.1898  0.1619
 1404W        W16535  13.249  15.084   3.069  0.0329  0.1422 -0.1659
 1405W        W16536   6.210  14.545  14.768  0.3826  0.2918  0.3046
 1406W        W16537   5.503   3.419  14.320 -0.2843  0.0304  0.3263
 1407W        W16538  15.178   8.755  13.450  0.0944 -0.1962 -0.0692
 1408W        W16539   1.823   4.976   6.411 -0.1540  0.3775 -0.2086
 1409W        W16540  10.022   0.438   5.214 -0.2580 -0.1758 -0.3288
 1410W        W16541  15.990  11.393   4.087  0.3141 -0.2542  0.2037
 1411W        W16542   0.254   0.251   0.406  0.1159 -0.1350 -0.1247
 1412W        W16543  16.778   5.720   1.457  0.3681 -0.1828  0.1931
 1413W        W16544  16.819  13.143  11.742  0.1017  0.2239  0.1453
 1414W        W16545   7.789  11.675   3.403 -0.0963  0.0561 -0.1805
 1415W        W16546   4.355   6.635   5.218  0.0147  0.3587 -0.2776
 1416W        W16547  15.981   8.835  15.568 -0.1174 -0.1248  0.0084
 1417W        W16548   2.002   5.673   3.859  0.0794  0.0940  0.2215
 1418W        W16549  16.492   1.217   2.450  0.0755  0.0690 -0.0898
 1419W        W16550   9.948  10.296   3.533 -0.1469 -0.1226  0.1173
 1420W        W16551  10.289  13.045  13.657  0.0391  0.1787 -0.1289
 1421W        W16552  11.906   8.446  14.078  0.1233  0.2015  0.0811
 1422W        W16553  11.526   6.201  13.778  0.1388  0.0690 -0.3060
 1423W        W16554  15.971   1.918   2.459  0.0572  0.1685 -0.1550
 1424W        W16555   3.390  16.898  15.638 -0.2334 -0.2496  0.0048
 1425W        W16556   9.007   5.829   3.565 -0.0186 -0.1826 -0.0056
 1426W        W16557  12.914   4.846   3.363  0.1571 -0.2717 -0.1112
 1427W        W16558   5.121   2.742   2.924  0.0520 -0.1539 -0.0510
 1428W        W16559  11.643  15.978  10.758  0.0836  0.3538 -0.3183
 1429W        W16560   2.857  10.623   1.287 -0.0588 -0.2082  0.1133
 1430W        W16561   9.091   5.238   4.974  0.0741  0.4290  0.0840
 1431W        W16562  18.572  10.415   1.978 -0.0835 -0.0892  0.1071
 1432W        W16563  15.797   5.751  11.886  0.1154  0.1005 -0.2764
 1433W        W16564  12.804   5.359   2.689  0.1983  0.2690 -0.3235
 1434W        W16565  14.125  10.064   3.675 -0.1553 -0.0927  0.0744
 1435W        W16566  13.943   7.790  12.624  0.0804 -0.0801 -0.1207
 1436W        W16567  13.733   8.264  14.745  0.0263 -0.2246  0.3865
 1437W        W16568   8.647  16.744   2.686  0.2027 -0.0323  0.1526
 1438W        W16569   1.393  15.887  14.715  0.2172 -0.0658  0.0294
 1439W        W16570  18.452   2.496   1.532  0.0577  0.2291  0.0652
 1440W        W16571  18.399  18.040   3.451  0.2243 -0.1994 -0.0663
 1441W        W16572  17.053  15.633  11.589  0.0527  0.5136  0.2768
 1442W        W16573  13.533  15.867  12.960  0.0696  0.1895  0.2557
 1443W        W16574   3.567   3.983   5.518  0.0166  0.0863 -0.1292
 1444W        W16575   3.753   7.852  11.919  0.1175  0.0599  0.2694
 1445W        W16576   8.322   9.308  12.201 -0.0447  0.0427  0.3254
 1446W        W16577  13.975  12.426  10.686  0.0135  0.2405  0.1524
 1447W        W16578  11.203   6.921   1.854  0.1042 -0.2831 -0.1291
 1448W        W16579   3.362  16.263   2.250  0.2558  0.1464 -0.2697
 1449W        W16580   1.179  10.722   2.772 -0.1247 -0.1494  0.1516
 1450W        W16581   3.770   6.326   4.464 -0.1418 -0.1010 -0.3669
 1451W        W16582  10.672  13.063   0.277 -0.0472  0.3233 -0.0683
 1452W        W16583  11.127  12.408   4.134  0.0610 -0.1292 -0.1440
 1453W        W16584  11.031  12.509   3.659  0.1075 -0.0771 -0.2844
 1454W        W16585  18.410   1.274   3.286 -0.0041 -0.0123  0.2283
 1455W        W16586   1.377  14.994  13.131  0.3071  0.1776 -0.2754
 1456W        W16587  12.105   4.107   4.030 -0.1456  0.0720  0.0240
 1457W        W16588   2.469   8.172   1.560  0.0768  0.2481  0.2182
 1458W        W16589  11.885   5.469  10.876  0.0139  0.2363 -0.1626
 1459W        W16590   1.301  11.669  15.710 -0.1118  0.0905  0.0478
 1460W        W16591   4.165   8.057   2.772 -0.2835 -0.4533 -0.0952
 1461W        W16592   4.906   0.061   4.932  0.2903  0.0550 -0.0835
 1462W        W16593  15.084   0.704   5.663 -0.2835  0.2733 -0.0593
 1463W        W16594   3.047  12.368   1.692 -0.1214 -0.1485 -0.5236
 1464W        W16595   8.818   7.283  11.422  0.2173  0.0459 -0.2539
 1465W        W16596   8.178   2.619  15.028  0.2594 -0.0665  0.1991
 1466W        W16597   3.577   1.992  12.678 -0.1258  0.0557  0.0687
 1467W        W16598  16.538  16.165   4.200  0.2218 -0.1139 -0.3644
 1468W        W16599   7.237   1.948   0.438  0.1064  0.1658  0.0950
 1469W        W16600  10.710   0.963   2.123  0.2263 -0.2052  0.0458
 1470W        W16601   1.207  11.842  12.077  0.2949  0.0637 -0.2193
 1471W        W16602  15.379   7.187  15.399 -0.3198  0.1334  0.1232
 1472W        W16603   9.398  10.347   0.313  0.1845  0.2543  0.0689
 1473W        W16604  17.080  11.782  15.361  0.0354  0.1115  0.0918
 1474W        W16605   1.454   1.988  13.131 -0.2349 -0.0194  0.3520
 1475W        W16606   1.676   8.409  14.619  0.2283  0.1015  0.1836
 1476W        W16607  12.397  12.070   5.259 -0.0676 -0.2146  0.2187
 1477W        W16608   5.372  10.662   5.015  0.0664  0.3006 -0.2147
 1478W        W16609  12.881   7.381   1.084  0.3748 -0.1322  0.1257
 1479W        W16610  17.999   6.904   2.132 -0.3243  0.0516  0.0373
 1480W        W16611  11.948   8.955  15.611  0.2041  0.0080  0.1680
 1481W        W16612   4.355   5.390  13.244  0.2027 -0.0072 -0.1328
 1482W        W16613  17.458  10.404  14.572  0.1778  0.1059  0.0334
 1483W        W16614  12.774  14.147   2.960  0.0605 -0.1016  0.0805
 1484W        W16615   6.710   9.837  14.167  0.3595 -0.0008 -0.1949
 1485W        W16616   3.461  16.696   1.233  0.3213  0.2449 -0.0872
 1486W        W16617  15.973  12.677  13.026  0.1519 -0.0809 -0.2286
 1487W        W16618   7.873  10.625  13.451  0.0561 -0.0871  0.0262
 1488W        W16619   8.226   1.286  10.364 -0.0261  0.4558  0.3839
 1489W        W16620   4.751  12.655  12.879 -0.0660 -0.0835 -0.1198
 1490W        W16621   6.011   5.176  13.721  0.0142  0.0966  0.1312
 1491W        W16622   5.267   5.227   0.514  0.2498  0.0426 -0.0991
 1492W        W16623  14.171  12.252   1.054 -0.1626  0.1523  0.1443
 1493W        W16624   2.591  12.709  12.889  0.2385 -0.0098  0.2368
 1494W        W16625  12.559   9.592  10.560  0.0991  0.1326  0.1264
 1495W        W16626   6.747   4.139   0.876  0.1288 -0.0487 -0.0718
 1496W        W16627   1.087   8.558  15.452 -0.0227  0.2905 -0.2477
 1497W        W16628   2.220   2.536  10.422 -0.0069 -0.0804  0.0705
 1498W        W16629   0.206  14.493   4.404  0.0331 -0.1895 -0.2819
 1499W        W16630   4.385  12.751  10.883  0.0175 -0.1564  0.0822
 1500W        W16631   6.299  11.576  15.417 -0.2298 -0.2843  0.1274
 1501W        W16632   1.211  11.063  14.886  0.0885  0.2360 -0.3217
 1502W        W16633   8.085   6.563  12.460 -0.0855  0.0610  0.2120
 1503W        W16634  13.512  16.475  10.541  0.1542  0.4160  0.0743
 1504W        W16635   7.913   3.342   2.318  0.1848  0.1251 -0.1286
 1505W        W16636   4.504  18.157  11.255  0.2250  0.2166 -0.1383
 1506W        W16637  10.782  13.290   4.564 -0.0414  0.1313 -0.2029
 1507W        W16638  12.035  17.903  11.818  0.1845  0.0901 -0.1271
 1508W        W16639   9.049   3.823   0.244  0.2094  0.3187  0.0717
 1509W        W16640  17.931   1.781   1.904 -0.0866  0.1390 -0.2956
 1510W        W16641  14.061   1.163   1.032  0.0697  0.0912  0.2201
 1511W        W16642   3.274   1.152  12.191  0.1297 -0.0135 -0.1854
 1512W        W16643  18.016  14.729  14.810 -0.0986 -0.2777 -0.1975
 1513W        W16644   9.279   9.982   4.494  0.0082  0.4727 -0.0044
 1514W        W16645   0.993   0.018   1.012  0.0107  0.2883 -0.2698
 1515W        W16646   4.284  16.764   1.967  0.1940 -0.1706 -0.0099
 1516W        W16647  16.651   8.550   5.498  0.4612  0.1584  0.2112
 1517W        W16648   5.665   1.386  10.832 -0.0175  0.0211  0.0831
 1518W        W16649   7.298   4.110   2.671 -0.0399  0.1035 -0.0628
 1519W        W16650   1.025   6.621  11.987  0.3002  0.2554  0.2207
 1520W        W16651   5.779  10.458   1.444  0.1602 -0.0119  0.1040
 1521W        W16652   2.759   3.739   2.587 -0.1848  0.1905  0.0638
 1522W        W16653  10.462  13.554  10.683 -0.0888  0.0897 -0.0754
 1523W        W16654  16.145  12.401   2.460 -0.1013  0.0961  0.1164
 1524W        W16655   3.702  14.074  11.055 -0.1033 -0.1707  0.3553
 1525W        W16656  13.055   5.706  11.892 -0.2386 -0.0359 -0.1181
 1526W        W16657   9.648  17.116   3.839  0.0666 -0.0814  0.3431
 1527W        W16658  12.496  18.130  15.025  0.0722  0.1804  0.4980
 1528W        W16659  10.947  17.948  13.559  0.0410 -0.1802  0.0794
 1529W        W16660  12.183  16.912  10.158  0.0495  0.2505 -0.0251
 1530W        W16661   2.617   9.841  12.166 -0.1861 -0.0817 -0.0353
 1531W        W16662  13.906   1.524  11.270  0.2897 -0.1767 -0.3916
 1532W        W16663  14.445   4.945  13.769 -0.2045 -0.1818  0.1017
 1533W        W16664   6.452   8.697  12.255  0.7138 -0.1673  0.2933
 1534W        W16665   8.516  17.473   4.564 -0.0540  0.1196 -0.2167
 1535W        W16666   8.788   5.680   2.072 -0.2176 -0.0793  0.1420
 1536W        W16667   4.650  18.455  12.158 -0.1924 -0.2284  0.1543
 1537W        W16668   7.060  18.031  12.948  0.1447  0.4442 -0.0236
 1538W        W16669   0.936  14.817  12.000 -0.2413 -0.3308 -0.1833
 1539W        W16670  11.477  13.250   2.230 -0.1721  0.0969 -0.1341
 1540W        W16671   6.193   7.488   5.057  0.0008  0.1094 -0.1727
 1541W        W16672  12.556  11.266  15.762 -0.0451 -0.2810 -0.1994
 1542W        W16673  14.064   3.278   1.822 -0.0265 -0.1997  0.1897
 1543W        W16674  11.864   8.173   2.052  0.1244 -0.1967  0.2097
 1544W        W16675  18.339   4.384   2.353  0.4157 -0.0861 -0.6257
 1545W        W16676   2.429  10.629   3.680 -0.0547  0.1723  0.2113
 1546W        W16677  15.118  16.575   5.792  0.0496  0.2439 -0.5171
 1547W        W16678  15.761  11.149  11.735  0.2334  0.0709 -0.0056
 1548W        W16679  14.643   8.879  13.466  0.0235  0.1998  0.1516
 1549W        W16680  12.336  12.013   1.749  0.1872 -0.1441 -0.1605
 1550W        W16681   2.516   5.323   4.669 -0.1449 -0.1815 -0.1295
 1551W        W16682  17.976  13.761   3.609 -0.2922  0.2984  0.1665
 1552W        W16683  12.044   1.877   1.426 -0.2349  0.1431 -0.1480
 1553W        W16684   9.968  11.586  15.669 -0.5769 -0.0640 -0.0003
 1554W        W16685  10.688  16.281  14.073  0.2356  0.2088  0.3236
 1555W        W16686   6.114  13.215   0.631 -0.0689 -0.2151  0.1983
 1556W        W16687   4.916  15.773  12.555  0.2581 -0.0450  0.0909
 1557W        W16688  17.785   9.415  10.672  0.2479 -0.0854  0.0405
 1558W        W16689   2.148  17.777  14.980 -0.2367 -0.2062 -0.0556
 1559W        W16690  10.248   8.078   3.948  0.1424  0.0018  0.1185
 1560W        W16691   4.669   1.499  13.310 -0.1457 -0.1893 -0.0666
 1561W        W16692   4.865  13.884   0.539 -0.1401 -0.2741  0.1504
 1562W        W16693  18.143   3.514  12.680  0.1794  0.0667  0.0016
 1563W        W16694  12.466   7.393   2.458 -0.2320  0.1133 -0.2307
 1564W        W16695  10.415  12.496   5.905 -0.1086  0.1194 -0.4419
 1565W        W16696  13.332   9.997   5.089  0.0017  0.0453  0.0740
 1566W        W16697  15.936  17.044  14.675  0.2193  0.0792 -0.0549
 1567W        W16698   8.249   7.330   0.580  0.1386 -0.2415 -0.0475
 1568W        W16699  15.399   4.505  14.215  0.1718 -0.0184 -0.0580
 1569W        W16700   1.136   9.400   2.938 -0.3614 -0.1400  0.0802
 1570W        W16701   2.151  14.639   3.170  0.1258 -0.4517 -0.1122
 1571W        W16702   5.197   8.895   0.285  0.0268  0.1646 -0.3492
 1572W        W16703   3.464   9.842   2.601 -0.1724  0.3207 -0.2727
 1573W        W16704  15.395   2.618   0.957  0.5248 -0.0467  0.1258
 1574W        W16705  13.513   1.566  13.022  0.3383  0.1275  0.1251
 1575W        W16706   0.581   3.373  12.334  0.1287  0.0236  0.2318
 1576W        W16707   0.509  14.594   3.480  0.0549  0.1316  0.0255
 1577W        W16708   4.982   9.985  10.169 -0.0949 -0.2626 -0.1389
 1578W        W16709   0.804  16.240  12.235  0.3267 -0.1399 -0.0792
 1579W        W16710   5.534   5.840  13.928  0.0980  0.0162 -0.0923
 1580W        W16711  17.802   7.851  10.112  0.1151  0.0065  0.2064
 1581W        W16712   8.088  16.959  10.397 -0.0242 -0.1981 -0.0079
 1582W        W16713   4.435   7.085  12.474  0.0975 -0.3134  0.1381
 1583W        W16714  12.882  18.033   3.208 -0.3819  0.2223 -0.0478
 1584W        W16715   0.897   7.765   6.580  0.0491 -0.2475  0.1663
 1585W        W16716   1.973  15.517  11.321 -0.1784  0.3561 -0.1177
 1586W        W16717  11.878  10.828   2.760  0.1189  0.0693  0.4083
 1587W        W16718   1.614  11.952  14.633 -0.0375  0.0125 -0.0184
 1588W        W16719  11.620  17.853  14.110  0.0543  0.1337  0.0816
 1589W        W16720   2.058  14.391   1.823 -0.0296  0.0778  0.2754
 1590W        W16721  14.595   1.310  10.848 -0.3542 -0.0689 -0.0461
 1591W        W16722   5.451   3.099   5.444 -0.2552 -0.1162 -0.1708
 1592W        W16723  12.177   4.109   2.292  0.3438 -0.4769  0.2384
 1593W        W16724  10.950  14.180   4.221  0.3199 -0.1361  0.1905
 1594W        W16725  13.431  10.823   0.596  0.1366  0.1182  0.1775
 1595W        W16726  18.042   8.167  12.597 -0.3085  0.0286 -0.0997
 1596W        W16727  13.969  17.176  15.628 -0.1544  0.0187 -0.1354
 1597W        W16728  12.987   6.285  10.904 -0.0269 -0.0570  0.1540
 1598W        W16729  12.534  14.096   2.169 -0.0814 -0.0533 -0.0027
 1599W        W16730   7.933  16.645   1.079  0.3424 -0.1097 -0.0253
 1600W        W16731  12.384   0.768  11.937 -0.2022  0.2382  0.0833
 1601W        W16732  10.041   7.027  14.948  0.0212 -0.3585 -0.1733
 1602W        W16733   2.181  12.081   4.642 -0.3409 -0.0343 -0.1054
 1603W        W16734   7.961   2.789   3.434 -0.4354  0.0335  0.1166
 1604W        W16735   0.143   6.089   3.295 -0.3053 -0.1862  0.0356
 1605W        W16736   8.664   3.260   3.569  0.1388 -0.0462 -0.2568
 1606W        W16737  16.792   7.864   2.950 -0.2319 -0.0167 -0.1999
 1607W        W16738   0.378  15.657   3.130 -0.0774  0.1818  0.0278
 1608W        W16739   6.057   4.453  15.669  0.0990 -0.1967  0.1168
 1609W        W16740  17.991  16.378   4.647 -0.1971  0.2390 -0.0056
 1610W        W16741  18.125  10.965   5.316  0.0600  0.0771 -0.1678
 1611W        W16742  10.411  16.700   5.270 -0.0124 -0.1151  0.4339
 1612W        W16743  10.774   1.549   4.784 -0.0015  0.3793  0.1364
 1613W        W16744   2.595   1.058   3.278  0.0671 -0.0085  0.0709
 1614W        W16745   2.028  13.118  14.797  0.0569  0.1810 -0.3855
 1615W        W16746   8.013   7.325  12.675 -0.1961  0.0389  0.3591
 1616W        W16747   8.547   8.296  15.503  0.0891 -0.0409  0.2478
 1617W        W16748   6.450   7.089   0.555 -0.2229 -0.0602 -0.1802
 1618W        W16749  14.972  18.073  12.275 -0.0676 -0.3673 -0.0961
 1619W        W16750   7.000   7.721   1.289  0.1877  0.3129  0.1255
 1620W        W16751  18.260  14.639   5.204  0.1587  0.0949  0.2062
 1621W        W16752  14.305  15.512  12.109  0.2198  0.1743 -0.1476
 1622W        W16753  14.568   6.946   3.273  0.3318 -0.1974 -0.0584
 1623W        W16754   1.054   9.851  10.869  0.0308 -0.1735  0.0970
 1624W        W16755  13.007  14.221  11.574  0.0660 -0.1446 -0.2805
 1625W        W16756   5.680   0.264  14.266  0.1361  0.0988 -0.2475
 1626W        W16757  10.544  16.364   3.671  0.0989 -0.2072  0.0644
 1627W        W16758  14.178   4.031  11.074 -0.1463  0.1399  0.1849
 1628W        W16759  18.187  16.901  14.319 -0.2378  0.1591  0.1398
 1629W        W16760  12.851   7.280   1.575 -0.1324 -0.0486  0.3222
 1630W        W16761   7.505   5.184   2.998 -0.0170 -0.2308 -0.2104
 1631W        W16762   4.652   4.636   4.054 -0.1184  0.0718 -0.1696
 1632W        W16763   5.398   8.902  13.334  0.1990 -0.0144  0.0657
 1633W        W16764  15.763   0.045   2.713  0.0723 -0.4969 -0.3601
 1634W        W16765   5.496   7.506  11.486  0.2667 -0.1312  0.2680
 1635W        W16766  15.477  13.000   0.150 -0.2219 -0.1226  0.4492
 1636W        W16767   7.485  16.602  15.703  0.2937 -0.1039 -0.0200
 1637W        W16768   8.828   4.640   9.857 -0.2160 -0.5575  0.2182
 1638W        W16769   5.707   0.166  14.734  0.0720  0.0039  0.1553
 1639W        W16770   4.406  14.047  12.634 -0.0914 -0.0014 -0.3111
 1640W        W16771   3.180   7.255   5.532 -0.1210  0.2340  0.0540
 1641W        W16772  16.532   3.448   4.669 -0.2402  0.2320  0.3123
 1642W        W16773   1.653   5.260   3.993 -0.1394  0.0544 -0.0253
 1643W        W16774   2.636  16.699   0.986 -0.2212  0.2411  0.2224
 1644W        W16775   1.061  17.764   1.255  0.2133 -0.2386 -0.2284
 1645W        W16776   9.125   1.094  10.868  0.4175  0.0578 -0.2104
 1646W        W16777  12.796  17.216  13.106 -0.0998  0.1576 -0.0160
 1647W        W16778   2.207   6.092  14.770 -0.3627 -0.1162 -0.1548
 1648W        W16779  12.633   7.811   2.221 -0.0828  0.3022 -0.0116
 1649W        W16780   8.145   3.303   5.058  0.0818 -0.3569 -0.2967
 1650W        W16781   7.033   3.112   9.661 -0.0542 -0.0384 -0.1548
 1651W        W16782  16.447   1.772   3.633  0.0906 -0.0699  0.1209
 1652W        W16783   1.822   5.465  14.645  0.1229 -0.1612  0.0818
 1653W        W16784   7.461  12.941  14.010 -0.2274  0.3823 -0.1114
 1654W        W16785  17.237   3.634  15.418 -0.0901  0.2128 -0.0076
 1655W        W16786   0.233  13.223  12.474 -0.0026  0.0332  0.1747
 1656W        W16787   0.373   6.882  12.805  0.2286 -0.0113 -0.0940
 1657W        W16788   2.248   6.878   1.888 -0.0315 -0.2409 -0.0676
 1658W        W16789   8.174   6.316   1.878  0.0752  0.0324  0.0132
 1659W        W16790  13.676   5.658  13.750  0.0602  0.2988 -0.0501
 1660W        W16791   6.300  12.476   0.719 -0.1068 -0.0508  0.0863
 1661W        W16792   6.348  13.046  13.593 -0.1327  0.3064 -0.1498
 1662W        W16793  15.141   6.687  12.442  0.2179  0.0552 -0.1029
 1663W        W16794  15.524   9.425  14.968  0.3666 -0.1270 -0.0250
 1664W        W16795   0.075  14.761   3.541  0.3306  0.0478 -0.3079
 1665W        W16796  16.509   5.222   5.491 -0.0281  0.1552 -0.2362
 1666W        W16797   1.681   8.393   3.672 -0.1036 -0.2562  0.1499
 1667W        W16798  17.994   9.069   0.763  0.0510 -0.1537  0.2787
 1668W        W16799   8.275  17.984  15.470  0.1902  0.1838  0.1346
 1669W        W16800   1.917  14.450  12.289 -0.5148  0.1794 -0.1805
 1670W        W16801  13.380  15.670  14.885  0.0447 -0.0554 -0.4108
 1671W        W16802   0.002  17.514  12.088 -0.5288 -0.0380  0.2094
 1672W        W16803   5.297   7.874  13.996  0.2847 -0.1368  0.0759
 1673W        W16804  16.144   9.697  15.147  0.1355 -0.0225  0.1410
 1674W        W16805   0.034   3.632   3.715 -0.1428  0.3915  0.1846
 1675W        W16806   1.440  17.843   4.632  0.2862  0.2205 -0.0784
 1676W        W16807  17.089   5.560  15.486  0.1752 -0.1414 -0.1399
 1677W        W16808  10.995   2.409  12.916  0.2658  0.1243  0.0648
 1678W        W16809  13.340   6.464   2.574 -0.1785  0.2054  0.0079
 1679W        W16810   5.812  13.747   2.763  0.1444 -0.0253  0.1011
 1680W        W16811   1.311  14.789   4.103  0.3039 -0.1076  0.3539
 1681W        W16812   1.968   0.487  12.195  0.0071  0.0530 -0.0003
 1682W        W16813   1.950  13.841   1.758  0.0326 -0.1397  0.3756
 1683W        W16814  16.439   3.040  13.704  0.0891  0.0823 -0.0907
 1684W        W16815   7.379  18.361  13.078  0.2231 -0.3462  0.0626
 1685W        W16816   3.480   5.784  13.461 -0.1636  0.2250  0.0947
 1686W        W16817   0.326  17.757  15.924 -0.0891 -0.2034 -0.0910
 1687W        W16818   7.415   1.549  11.984 -0.0831  0.0646 -0.3950
 1688W        W16819   7.615  16.760  15.217 -0.1470 -0.4440  0.1715
 1689W        W16820   8.354  11.616   4.856 -0.0440 -0.2288 -0.2056
 1690W        W16821   3.539   5.454  12.987  0.1105  0.4890 -0.1336
 1691W        W16822   8.740   3.452  13.278  0.1138 -0.2853  0.2045
 1692W        W16823  11.489   8.506  15.672 -0.0347  0.1123  0.1983
 1693W        W16824   1.513  14.107   2.982  0.0028  0.1381  0.0523
 1694W        W16825  13.042   4.256  15.398 -0.0568 -0.2336  0.0647
 1695W        W16826  14.102   4.194  14.044 -0.0825  0.1641  0.3056
 1696W        W16827   9.214  15.656   0.867  0.0286  0.0938 -0.3872
 1697W        W16828  11.137  17.707  13.008  0.4981 -0.0016  0.1860
 1698W        W16829   5.119  17.570   5.374 -0.1434 -0.1161  0.2102
 1699W        W16830   5.409  16.046  11.704  0.2105 -0.2730 -0.0007
 1700W        W16831   6.480  16.662  11.157 -0.0642  0.1583 -0.3157
 1701W        W16832   6.448   5.371  14.964  0.3209 -0.0127 -0.3376
 1702W        W16833  16.141   1.388   0.213 -0.1708 -0.1303 -0.2370
 1703W        W16834   1.265  10.172  11.190 -0.0368 -0.1408 -0.3798
 1704W        W16835   5.212   8.835  11.212  0.5335 -0.2359  0.3595
 1705W        W16836   6.864  10.768   0.357  0.1992 -0.3813  0.1684
 1706W        W16837   7.436   5.815   3.145 -0.1322 -0.0040  0.0265
 1707W        W16838  13.402   7.996  10.757 -0.1454 -0.1856 -0.2069
 1708W        W16839   8.431   9.740  13.144  0.5529  0.0657 -0.0745
 1709W        W16840   5.701   3.537   3.031 -0.0983  0.3541  0.0378
 1710W        W16841   1.614   9.629   2.738  0.1102 -0.0977 -0.0199
 1711W        W16842   8.616  16.093   2.824  0.2305  0.1614  0.3133
 1712W        W16843  12.757   9.573  11.534  0.2969  0.2444 -0.2245
 1713W        W16844   3.831   6.811   2.729  0.0622 -0.4496 -0.2608
 1714W        W16845  12.125   6.047  14.328  0.3279 -0.0426 -0.0432
 1715W        W16846   2.707   3.485  11.221 -0.4447 -0.2180  0.1343
 1716W        W16847  17.010  10.065   2.912  0.1900  0.0308  0.0458
 1717W        W16848   8.769  10.638   4.139 -0.3019  0.3641  0.1156
 1718W        W16849  16.414   1.332   4.499  0.0471  0.0322 -0.1991
 1719W        W16850   5.837  11.598   9.986 -0.2912  0.0075  0.1445
 1720W        W16851  17.405   3.976   3.189  0.3876  0.2451 -0.0296
 1721W        W16852   7.897  13.701  14.750 -0.2672 -0.2962 -0.0520
 1722W        W16853  14.785   5.329   5.201 -0.2359  0.1973  0.2419
 1723W        W16854   7.939   4.132  10.925  0.2466  0.1080 -0.1691
 1724W        W16855  10.590  11.251   4.717  0.4240 -0.3271 -0.0585
 1725W        W16856   8.607  12.755  15.002 -0.4092 -0.0034  0.0956
 1726W        W16857   6.081  15.124   1.927 -0.1203 -0.0800 -0.0831
 1727W        W16858   9.678  10.671   4.148 -0.1538  0.0017 -0.0407
 1728W        W16859   5.694   2.967   0.378 -0.1069  0.1775  0.3614
 1729W        W16860   0.478   7.993   3.188 -0.0923 -0.0804 -0.2912
 1730W        W16861  11.602   0.651   0.334  0.1166  0.0420 -0.0247
 1731W        W16862   2.994  11.142  14.282 -0.0724  0.1448 -0.1051
 1732W        W16863  16.513   8.346   4.468 -0.1111 -0.0005 -0.2874
 1733W        W16864  13.684   2.768   4.591 -0.1915 -0.1736  0.1876
 1734W        W16865  17.895   3.830  15.700  0.1499 -0.4451  0.0236
 1735W        W16866  18.492   7.244  14.838  0.0531 -0.1676  0.1137
 1736W        W16867   8.682  14.407  13.226 -0.2694 -0.0692 -0.1141
 1737W        W16868  13.413   4.790   4.076 -0.0469 -0.1235  0.1237
 1738W        W16869   0.240   7.904   0.220  0.0103  0.1841 -0.2744
 1739W        W16870  14.355   4.070   1.725 -0.2648  0.0084  0.0382
 1740W        W16871   1.587  16.623   3.349  0.0285 -0.0823  0.1324
 1741W        W16872   9.282   8.161   0.100  0.2048 -0.2612 -0.4109
 1742W        W16873   0.927  13.600  12.808  0.1684 -0.3089  0.0569
 1743W        W16874  11.771   1.058   3.218 -0.0618  0.0741 -0.0668
 1744W        W16875   6.964  13.233  14.796 -0.2216  0.1122  0.1006
 1745W        W16876   3.381   1.189   1.280 -0.0428 -0.2713 -0.1288
 1746W        W16877  10.952   8.401  15.585  0.2009 -0.1366 -0.1862
 1747W        W16878   1.480  12.975  11.400  0.1892 -0.2450  0.0129
 1748W        W16879   8.197   3.851  14.046  0.0921  0.0803  0.1116
 1749W        W16880  18.261  11.327   2.168 -0.1025  0.0191  0.0938
 1750W        W16881   3.611   4.117  12.848  0.0831 -0.0179 -0.0087
 1751W        W16882   3.551  12.856  13.893  0.1936  0.0047 -0.2516
 1752W        W16883   5.013  15.022  10.707 -0.1518  0.1302 -0.5201
 1753W        W16884   9.690   7.476  11.410  0.1499  0.1366 -0.1370
 1754W        W16885  18.325  11.726  14.014  0.1971  0.0089  0.0050
 1755W        W16886  11.730  13.315  15.145 -0.1276  0.3110 -0.0124
 1756W        W16887   1.039   6.902   2.815 -0.2096  0.0647 -0.1214
 1757W        W16888   2.756  16.002  12.912  0.1353 -0.1917  0.0036
 1758W        W16889   7.039  11.164  10.490 -0.2459  0.1477 -0.0852
 1759W        W16890  13.662  13.459   4.425  0.1914 -0.0029 -0.0618
 1760W        W16891   2.129  10.693   4.562  0.1574 -0.2066  0.1379
 1761W        W16892  12.215  15.283   2.017  0.1512 -0.1602 -0.1405
 1762W        W16893   4.830   1.004  13.165 -0.2625  0.2306  0.4168
 1763W        W16894   8.940   4.834  14.521 -0.5113  0.0478 -0.1600
 1764W        W16895   7.757   4.937  10.150 -0.1432 -0.1912 -0.1952
 1765W        W16896   8.245  18.465   1.512  0.3362 -0.2385  0.1163
 1766W        W16897  18.233   3.932  14.188  0.1584  0.1528  0.2084
 1767W        W16898   3.029  12.175  13.360  0.3247 -0.2884  0.2021
 1768W        W16899   9.477  11.785   0.050  0.0885 -0.0227 -0.1876
 1769W        W16900   6.994   8.293  13.419  0.1894 -0.4109 -0.1341
 1770W        W16901  16.207   0.400  11.911 -0.1446 -0.1764  0.3051
 1771W        W16902   4.773  12.886   2.728  0.0115 -0.0733  0.2125
 1772W        W16903  14.381   3.288   4.124  0.0909 -0.1060 -0.0259
 1773W        W16904   0.144  11.992   0.117 -0.1662  0.2074  0.2011
 1774W        W16905   3.205  11.140  12.159  0.1143 -0.3319 -0.1974
 1775W        W16906  18.382  12.057   1.777  0.0127 -0.2598  0.1373
 1776W        W16907   0.296  10.596  14.681 -0.0052  0.2391 -0.3384
 1777W        W16908  15.994   3.303   5.015  0.3709 -0.3052 -0.3017
 1778W        W16909   6.744  15.571   1.848  0.1748 -0.0699  0.1937
 1779W        W16910   8.822  17.296  12.978 -0.2538 -0.1150  0.1508
 1780W        W16911   7.858  14.312   2.448 -0.2274  0.1667  0.2810
 1781W        W16912   4.558  14.419  14.298  0.0545  0.1101 -0.5224
 1782W        W16913  14.173  10.685   3.759  0.1748 -0.0270  0.0538
 1783W        W16914  14.060  12.241  13.393 -0.0698 -0.0285 -0.2566
 1784W        W16915  11.121  14.527   3.891 -0.0191  0.1273  0.0676
 1785W        W16916  15.927   2.746   5.771 -0.0896 -0.2684 -0.1886
 1786W        W16917   1.181  15.699   4.365 -0.2751  0.0358  0.2476
 1787W        W16918  17.154  11.679   2.017  0.1616 -0.1158  0.2238
 1788W        W16919  18.350  16.340  13.191 -0.0170 -0.3117 -0.2055
 1789W        W16920  10.183   5.402  11.196 -0.3749  0.2697  0.1053
 1790W        W16921  14.799  11.455   2.885 -0.1993 -0.0478 -0.3592
 1791W        W16922   6.842  18.006   1.699 -0.2307  0.1387 -0.1584
 1792W        W16923   6.495   2.279   2.310  0.1515  0.1089 -0.1618
 1793W        W16924  10.411   2.513   2.106  0.2036  0.1493 -0.1191
 1794W        W16925   0.386   7.299  12.575 -0.4207  0.2024  0.3894
 1795W        W16926  14.794  12.787   2.598 -0.2457  0.2973 -0.0166
 1796W        W16927   4.526   6.525  12.465  0.1556 -0.0774 -0.0229
 1797W        W16928   3.669   3.385  13.944 -0.0699  0.3603 -0.1911
 1798W        W16929   6.315   3.373  10.965  0.4353  0.0013  0.2216
 1799W        W16930   7.511  11.620  13.150 -0.2475  0.4634  0.0504
 1800W        W16931  14.355   2.869   1.711 -0.0141  0.0184  0.3443
 1801W        W16932   0.249  17.962  12.066  0.1988 -0.1281  0.0230
 1802W        W16933   5.374   0.225   0.360  0.2836  0.1347  0.0301
 1803W        W16934  16.865  14.588   2.764  0.1684  0.1152 -0.1849
 1804W        W16935   1.392   5.603  12.218 -0.1959  0.1734  0.0208
 1805W        W16936   7.746   9.217   3.026 -0.1554 -0.0983 -0.1543
 1806W        W16937  10.470  10.836   1.521  0.2131 -0.2190  0.4097
 1807W        W16938   0.860  11.642   2.801  0.5083 -0.1335  0.3237
 1808W        W16939   2.019   3.977   1.399  0.0442  0.1237 -0.1226
 1809W        W16940  18.240   3.755   5.653 -0.1778 -0.1154 -0.0942
 1810W        W16941   2.925  16.458   0.382 -0.1418  0.0033 -0.2082
 1811W        W16942   5.746  10.834  15.209  0.1108 -0.1208 -0.1884
 1812W        W16943   9.990   8.935   1.056 -0.3284  0.2335 -0.3434
 1813W        W16944   0.699   1.881  14.943  0.0195 -0.0423 -0.1966
 1814W        W16945   3.465   9.365   0.540  0.2029  0.3888 -0.1600
 1815W        W16946  18.322   6.446   0.395  0.3358 -0.4488  0.0426
 1816W        W16947  14.740  11.063   5.534 -0.0690 -0.3304 -0.3345
 1817W        W16948   9.087  16.827  13.137 -0.2225 -0.1238  0.1045
 1818W        W16949   2.727  13.800   2.204  0.1637 -0.1840  0.3902
 1819W        W16950  11.614  10.968  13.063 -0.0032  0.2121  0.2195
 1820W        W16951  10.990   9.196  13.008  0.2191 -0.0171 -0.1893
 1821W        W16952   8.257  11.356   4.138  0.2983  0.0366  0.0545
 1822W        W16953  11.341  13.755  15.934  0.0825  0.1568  0.1142
 1823W        W16954  12.558   2.271   1.956 -0.0620  0.2834 -0.1152
 1824W        W16955  17.279   8.923  11.861  0.1657  0.0870 -0.0622
 1825W        W16956  14.372   2.862  13.130 -0.0546 -0.2675 -0.1358
 1826W        W16957  12.154   2.008  12.311 -0.0292 -0.3651 -0.0546
 1827W        W16958   5.200   1.556  10.776 -0.0193  0.2494 -0.0429
 1828W        W16959   6.330   0.163   2.692 -0.0483 -0.0498  0.3684
 1829W        W16960   5.209  18.146  12.949  0.0364  0.1037  0.1299
 1830W        W16961  16.917   6.338  14.852  0.1712 -0.1919 -0.1103
 1831W        W16962   8.547  15.605  11.078  0.1997 -0.1422 -0.0069
 1832W        W16963  11.251  13.421   1.780 -0.0301 -0.0251  0.1052
 1833W        W16964  11.888   0.078  12.729  0.0950  0.3251 -0.0264
 1834W        W16965   5.310   8.107   0.665  0.0781 -0.3742  0.2240
 1835W        W16966   4.142   6.595  11.105 -0.1671 -0.0479 -0.0822
 1836W        W16967   2.546   5.875  15.728  0.0871 -0.2687 -0.0408
 1837W        W16968   6.989  14.780   4.311  0.1947 -0.1772  0.1634
 1838W        W16969  13.572  11.023   1.053  0.1080 -0.1623  0.2195
 1839W        W16970   2.868   1.237  11.401  0.2986  0.0880 -0.1115
 1840W        W16971   9.538   6.334   1.392 -0.3705 -0.1367  0.1897
 1841W        W16972   1.427  10.737  10.736 -0.1678 -0.0002 -0.2263
 1842W        W16973  10.574   8.816   3.215 -0.0409  0.1667  0.3380
 1843W        W16974  18.023  13.348  13.129  0.3916 -0.1224  0.0502
 1844W        W16975  13.336  17.206  14.148 -0.0320 -0.4868 -0.0967
 1845W        W16976   2.152  16.926  15.093 -0.2833 -0.2395 -0.0107
 1846W        W16977   8.740   0.121  11.883  0.1898 -0.0284  0.2501
 1847W        W16978  17.890  12.592  11.123  0.0761  0.0404 -0.3336
 1848W        W16979   2.795  15.155   2.525  0.3392 -0.0693  0.0419
 1849W        W16980  16.812  16.039  14.698 -0.2531 -0.1242 -0.1526
 1850W        W16981   2.175  11.447   5.349 -0.4311  0.0693  0.0610
 1851W        W16982  18.021   6.624   0.782 -0.0217  0.2718  0.1345
 1852W        W16983  17.093   4.306  12.032 -0.2408  0.0550 -0.1039
 1853W        W16984   9.554  17.061   0.037  0.0988  0.3077 -0.2401
 1854W        W16985   1.351  13.399   0.634  0.0245  0.0753 -0.2024
 1855W        W16986  16.053   9.744   4.719  0.2479  0.1455 -0.1579
 1856W        W16987  11.964   7.080  14.809 -0.1581  0.3104  0.1183
 1857W        W16988   3.735   1.004  13.142  0.0736  0.2360  0.0954
 1858W        W16989   5.546   7.008  13.966  0.1215  0.2389  0.0980
 1859W        W16990   2.579   5.182  14.498  0.1583  0.0881 -0.1036
 1860W        W16991   6.966  14.763   5.457 -0.0088  0.1677 -0.2657
 1861W        W16992   0.205  12.605   0.963  0.0776  0.2254  0.0706
 1862W        W16993  12.881  10.788  13.438 -0.1535 -0.1415 -0.0143
 1863W        W16994  10.681  14.225  14.318 -0.0719 -0.2311  0.1201
 1864W        W16995  16.944   4.003   3.286  0.2578 -0.0366 -0.1036
 1865W        W16996  14.905   0.960   1.204 -0.5785  0.2732  0.0171
 1866W        W16997   9.814   8.627   2.458 -0.1158 -0.2373 -0.1066
 1867W        W16998  13.561   9.136   2.548  0.0731  0.0211  0.4042
 1868W        W16999   8.824  15.070   3.185 -0.1937 -0.2296 -0.2654
 1869W        W17000  16.070  14.631  13.959 -0.0938  0.3341  0.2856
 1870W        W17001   0.744   6.215  13.933 -0.1986 -0.4866  0.2089
 1871W        W17002   4.800   6.228   2.567 -0.2618  0.4358  0.2260
 1872W        W17003  11.043   3.196  12.643 -0.1481 -0.3193 -0.1002
 1873W        W17004  13.277   2.691   2.246 -0.0559 -0.0488 -0.0735
 1874W        W17005  12.176   9.690  13.067 -0.3538  0.0985 -0.2836
 1875W        W17006  14.947  13.328  12.434  0.0125  0.2753  0.4311
 1876W        W17007   1.460   3.366  14.689 -0.1050 -0.1224 -0.1260
 1877W        W17008   6.010   6.833  12.711 -0.5600 -0.0845  0.0218
 1878W        W17009  10.094  12.384  10.273 -0.1312  0.2627  0.3205
 1879W        W17010  10.326   3.056   5.388 -0.0244  0.2769  0.0140
 1880W        W17011  13.870  18.193  11.346 -0.0452  0.0023  0.0544
 1881W        W17012   7.600   4.503   4.390  0.2462 -0.0863  0.2899
 1882W        W17013   2.732   8.757  14.017  0.3991 -0.0769  0.0289
 1883W        W17014  11.105  13.239  12.012 -0.0869 -0.0225 -0.1441
 1884W        W17015   0.560  11.902  10.515  0.3227  0.1026  0.2498
 1885W        W17016  15.269   7.051  12.052  0.4358 -0.0116  0.2002
 1886W        W17017   0.891  12.994  12.868 -0.1248  0.3422  0.0012
 1887W        W17018  17.550  17.652   5.079  0.1883  0.1097 -0.1723
 1888W        W17019   2.146   0.895  15.838 -0.0609 -0.2054  0.2283
 1889W        W17020  13.357  17.962  14.034 -0.0206  0.0936  0.0999
 1890W        W17021   4.894  10.347   2.783  0.4065  0.4821  0.1935
 1891W        W17022  14.753  18.077   4.179  0.0463  0.4632 -0.1667
 1892W        W17023   1.234   7.063   2.381 -0.2594  0.3856 -0.0290
 1893W        W17024  14.099  11.257  12.641 -0.1077  0.1837 -0.2555
 1894W        W17025   9.900  11.726  11.971 -0.2551  0.0259 -0.3445
 1895W        W17026  12.916   8.980  12.822 -0.1103 -0.0177 -0.6221
 1896W        W17027  11.962   5.133  12.218 -0.1237  0.0093  0.1026
 1897W        W17028  10.006   7.246   0.246 -0.0213 -0.2115 -0.3651
 1898W        W17029   7.898   8.702  10.598 -0.1748  0.5299 -0.0472
 1899W        W17030   0.096   8.221  15.052  0.1361 -0.3572 -0.0172
 1900W        W17031  13.895   3.930  14.681  0.0798  0.1268 -0.2170
 1901W        W17032  10.990   0.759  15.579 -0.0228  0.3587 -0.1250
 1902W        W17033   8.739  13.748  15.930  0.0935 -0.0043 -0.0428
 1903W        W17034   7.587   6.677   4.767  0.0731 -0.3008 -0.0519
 1904W        W17035   4.737   7.532   1.243  0.2451 -0.0906 -0.2390
 1905W        W17036  10.086   2.164   4.894  0.2768 -0.1386 -0.1541
 1906W        W17037  12.013   9.020   2.983 -0.0152 -0.1640 -0.0505
 1907W        W17038  12.400  14.956  11.158 -0.1119  0.2394 -0.1214
 1908W        W17039   6.095   1.936   3.855 -0.0641  0.2278  0.0525
 1909W        W17040   0.782   0.384  11.235 -0.1208  0.2492  0.1949
 1910W        W17041  13.239   9.396  15.501  0.2367 -0.2097 -0.1423
 1911W        W17042  16.704  13.621  12.221 -0.2406 -0.0104  0.2394
 1912W        W17043   2.039   9.737  10.753 -0.0357  0.1237  0.0899
 1913W        W17044   9.765   9.405   3.156  0.0558  0.0056 -0.2099
 1914W        W17045  17.926   0.384   0.899  0.1863  0.1392 -0.0671
 1915W        W17046   2.218  15.900  14.047  0.0497 -0.1164  0.0857
 1916W        W17047   8.525   4.961   5.673 -0.1894 -0.0046 -0.1690
 1917W        W17048  17.121   2.398   1.062 -0.1117  0.0843 -0.1344
 1918W        W17049   2.492   7.376   2.107  0.1113  0.0606  0.1046
 1919W        W17050   8.289   8.492   3.245  0.0569  0.2814  0.0642
 1920W        W17051  13.990   6.111   4.417 -0.2211  0.1424  0.0002
 1921W        W17052   9.107   0.510   9.957  0.0599 -0.1750 -0.6063
 1922W        W17053   1.270   2.974   0.107  0.0876 -0.0778  0.1791
 1923W        W17054  11.399   6.953   3.539  0.2748 -0.0278  0.2450
 1924W        W17055   2.853   2.998  14.905  0.2910  0.1008 -0.1316
 1925W        W17056  17.062  15.916   1.022 -0.0419  0.4382 -0.2217
 1926W        W17057  12.684   5.191   1.503 -0.0683 -0.1812 -0.2816
 1927W        W17058   8.181   6.368   0.213  0.3707 -0.3482 -0.0011
 1928W        W17059  12.189   9.458  11.639 -0.4311 -0.4509  0.3178
 1929W        W17060  14.486   3.142  12.752  0.0532 -0.1492  0.1093
 1930W        W17061   3.585   7.201   2.498 -0.1814 -0.1507 -0.1524
 1931W        W17062  11.628  14.513  12.389 -0.3635 -0.0824 -0.1102
 1932W        W17063   4.967   2.459   4.796  0.0890  0.1264 -0.2017
 1933W        W17064   9.856  18.377  13.857  0.4133 -0.4911 -0.0237
 1934W        W17065   3.311   0.197  12.650 -0.0339 -0.0917 -0.1001
 1935W        W17066   8.056   2.135   1.748 -0.0952 -0.1290  0.0919
 1936W        W17067  12.061  18.043  13.864  0.1648 -0.2450 -0.1211
 1937W        W17068   3.793   9.018  14.856 -0.1737  0.1215 -0.1456
 1938W        W17069  18.469  16.923   0.548 -0.0214  0.2220  0.1398
 1939W        W17070  16.592   8.355   3.724  0.2358  0.2068  0.0056
 1940W        W17071  16.374  13.270   1.904 -0.0705  0.1423  0.0222
 1941W        W17072   2.968  10.537   3.788  0.1472  0.0629  0.1618
 1942W        W17073   5.874  15.269   4.033 -0.0446 -0.1774 -0.0015
 1943W        W17074  13.378  17.319  10.762 -0.1867  0.1108 -0.2921
 1944W        W17075   6.689  16.584   2.355 -0.1466  0.0660  0.1305
 1945W        W17076   8.749   0.508  12.843  0.1811  0.2120 -0.0063
 1946W        W17077   1.525  15.540  11.155  0.1241 -0.0290  0.1549
 1947W        W17078   5.785  10.420   4.981 -0.1570 -0.0457  0.0297
 1948W        W17079  13.411   5.004  13.757 -0.1581 -0.1078 -0.2959
 1949W        W17080   1.688   6.259   3.455 -0.2667 -0.1935 -0.0806
 1950W        W17081   9.276   9.975  15.910 -0.0779 -0.0686  0.2449
 1951W        W17082  16.534  13.498  15.396 -0.1920  0.1592  0.1437
 1952W        W17083  13.194   9.022   4.990 -0.1010  0.0970  0.0533
 1953W        W17084  10.410   1.328   2.331 -0.0045  0.0024 -0.1177
 1954W        W17085   3.320  10.884   2.375  0.0718 -0.1547 -0.4873
 1955W        W17086  14.356  12.472  14.693 -0.2707  0.2192  0.0924
 1956W        W17087  15.630   2.091   1.837 -0.0024 -0.0720  0.2439
 1957W        W17088   5.411  10.622  13.131  0.6088 -0.1964 -0.0010
 1958W        W17089   1.989   1.782   4.520  0.1914  0.1539 -0.1341
 1959W        W17090  16.683   3.045  14.663  0.1103  0.0251 -0.2445
 1960W        W17091  16.156  16.475  12.915 -0.0142  0.1746  0.1759
 1961W        W17092  18.433  17.926   2.954 -0.4048  0.0789  0.1183
 1962W        W17093   9.821  16.305  14.187 -0.4549  0.1624  0.0897
 1963W        W17094   3.592  10.387  15.190 -0.2142 -0.2524  0.0915
 1964W        W17095  12.370   8.839  14.798 -0.1823  0.0698 -0.2731
 1965W        W17096   9.378  15.366  15.169 -0.0648  0.1610  0.0710
 1966W        W17097   7.269   6.685  15.521 -0.2168 -0.0821 -0.4013
 1967W        W17098  15.390   7.401   1.988  0.1739  0.3695  0.0407
 1968W        W17099   8.598  17.173  13.905 -0.1131 -0.0457  0.0218
 1969W        W17100   3.233   4.875  10.927  0.5773 -0.0193  0.2132
 1970W        W17101  13.298  10.118  13.079  0.1367  0.1589 -0.0156
 1971W        W17102   8.793   9.628   3.768  0.0961 -0.0363 -0.0138
 1972W        W17103  12.653   3.372   1.737 -0.2120  0.2098  0.0167
 1973W        W17104  13.852  17.995  14.244  0.1973  0.2247  0.1405
 1974W        W17105  16.144  11.002   4.312 -0.2784  0.2506 -0.0337
 1975W        W17106   5.661  11.532   4.217  0.1091  0.0713  0.0430
 1976W        W17107  15.344  17.197   1.238 -0.2623 -0.1615 -0.4700
 1977W        W17108   8.569   1.422   2.379  0.3865 -0.0995  0.1621
 1978W        W17109   0.432  15.331  12.496 -0.1992 -0.1049  0.0154
 1979W        W17110   2.355   8.128   4.202 -0.0602  0.1370 -0.1640
 1980W        W17111   1.783  12.684  14.626  0.1194 -0.1914 -0.0812
 1981W        W17112   7.528  17.930   2.069 -0.1135  0.0834  0.0003
 1982W        W17113   3.667  12.867   1.298 -0.0925 -0.0944  0.1015
 1983W        W17114   8.622  15.359  11.562 -0.1591 -0.0752  0.1617
 1984W        W17115  15.306   7.679   3.784 -0.0268 -0.0069 -0.0871
 1985W        W17116  17.778   4.046   5.823  0.1355  0.2351 -0.1328
 1986W        W17117   5.435   2.424   5.077  0.2465  0.0218  0.0801
 1987W        W17118  15.271   3.449  13.099 -0.0887 -0.0186 -0.0782
 1988W        W17119  12.646  10.136  14.753  0.1698  0.1246  0.3889
 1989W        W17120   5.177  11.236   4.348  0.1516 -0.3530  0.0039
 1990W        W17121   0.453  14.769  13.401  0.3079  0.0989  0.0180
 1991W        W17122  11.441   9.942   0.521 -0.2011 -0.0810  0.1764
 1992W        W17123  10.514   6.329  13.740  0.2029 -0.1095  0.0141
 1993W        W17124  17.123  13.499  11.968  0.2291 -0.0341  0.0479
 1994W        W17125   4.590   3.269  14.202 -0.0104 -0.0546  0.1383
 1995W        W17126   5.104  16.245  12.311  0.0703  0.0550  0.0170
 1996W        W17127  10.413  17.517  11.455  0.0058  0.0345  0.2334
 1997W        W17128   6.716  10.921  15.798 -0.3237 -0.2196  0.0029
 1998W        W17129   1.761  13.157   0.429 -0.0153 -0.0137 -0.0154
 1999W        W17130  10.489  14.635  11.202  0.0680 -0.0312 -0.3103
 2000W        W17131   1.867   1.275  11.837 -0.0658 -0.0806  0.1225
 2001W        W17132  14.280  14.088   0.719 -0.1669 -0.2417 -0.1129
 2002W        W17133   4.873  14.750   2.981 -0.0459  0.2787 -0.0198
 2003W        W17134   4.765  11.559   4.758 -0.1719 -0.0993  0.0634
 2004W        W17135  15.717  13.175   4.127  0.2608  0.2296  0.0165
 2005W        W17136   4.056  18.366  14.009 -0.3892 -0.2397 -0.1869
 2006W        W17137  18.204   0.356   3.925  0.3155  0.1021 -0.1612
 2007W        W17138   9.006   9.131  11.619 -0.3600 -0.1729  0.0624
 2008W        W17139  14.340   4.006   0.610 -0.2701  0.0055  0.3149
 2009W        W17140  11.854   9.127   5.094  0.0568 -0.2494  0.3168
 2010W        W17141  14.443   5.717  14.358  0.0121 -0.2567 -0.1360
 2011W        W17142   9.228   6.806   0.092 -0.1075  0.0774  0.1106
 2012W        W17143  13.997  16.525  10.330  0.0371 -0.0062  0.0229
 2013W        W17144   4.941   2.586  15.323  0.2499  0.1027 -0.2168
 2014W        W17145  16.826   5.227  12.577 -0.0339  0.1482 -0.2336
 2015W        W17146  11.029  15.109  13.618  0.1625 -0.2217 -0.0424
 2016W        W17147   7.368  11.209  13.389 -0.0184 -0.2085 -0.0394
 2017W        W17148   9.504   7.670  15.258 -0.0846 -0.0178 -0.0693
 2018W        W17149  10.383   5.157  12.189  0.0198 -0.1573 -0.2626
 2019W        W17150   8.908   9.159  11.099  0.2254  0.2551 -0.0015
 2020W        W17151  11.373  15.767   4.501  0.3381 -0.1249  0.0034
 2021W        W17152  16.073   0.084  13.104  0.1191 -0.0947  0.2864
 2022W        W17153  13.755   2.926   2.903  0.1327 -0.1038 -0.0590
 2023W        W17154  15.986  14.494  10.470 -0.3463 -0.2081  0.1901
 2024W        W17155   0.992  16.085  12.660 -0.1647  0.1200  0.1145
 2025W        W17156   9.344   4.975  15.723  0.0472 -0.1265 -0.1164
 2026W        W17157  11.886   2.465   3.328 -0.0112 -0.1205  0.1737
 2027W        W17158   7.599  14.156  15.946 -0.0963 -0.0496 -0.0221
 2028W        W17159   6.284   1.489   4.693  0.3418  0.0554 -0.1679
 2029W        W17160  12.701   0.530  13.672  0.2420 -0.0589 -0.2354
 2030W        W17161  14.683   2.270  13.214  0.1983 -0.3615  0.6519
 2031W        W17162   9.267   7.506  11.200  0.1254 -0.0781 -0.2214
 2032W        W17163   3.183   8.516   2.133  0.0020  0.0253 -0.0530
 2033W        W17164  14.858  16.914   2.815  0.1747  0.0024 -0.2567
 2034W        W17165  10.968   9.597  15.895  0.0418 -0.0981  0.0526
 2035W        W17166  12.007  18.324  10.788 -0.0954  0.0336 -0.0648
 2036W        W17167   5.972   3.471  12.582  0.0229 -0.1106  0.3829
 2037W        W17168   2.262   1.021   4.677 -0.3070  0.2750  0.0502
 2038W        W17169  17.216  17.226  10.470 -0.2379 -0.0881 -0.0803
 2039W        W17170   9.841  14.992   3.617 -0.1006  0.1010 -0.0503
 2040W        W17171  11.052   5.961  13.002 -0.3566 -0.2040  0.1307
 2041W        W17172  17.869  12.097  11.200 -0.2427 -0.0603 -0.0186
 2042W        W17173  10.982   4.653   4.666 -0.1434 -0.2798 -0.0340
 2043W        W17174   7.174  11.594  10.325  0.0215 -0.0381 -0.2041
 2044W        W17175   8.359   2.135   4.380  0.1940  0.1859 -0.0767
 2045W        W17176  10.438  16.882   0.141  0.2793  0.0284 -0.0757
 2046W        W17177   9.298   5.162   2.679 -0.0340 -0.0157  0.6016
 2047W        W17178  13.516  10.189  12.616  0.1515 -0.1417  0.2917
 2048W        W17179   6.270   9.910   4.833 -0.2313  0.6390 -0.0372
 2049W        W17180   0.840   2.535   4.116  0.2597 -0.0460 -0.2777
 2050W        W17181  13.280  13.239   3.359 -0.1953  0.2547  0.1144
 2051W        W17182   5.613   4.763  12.938  0.1129 -0.2651 -0.1821
 2052W        W17183   9.632   1.891   2.652 -0.1145  0.0804 -0.2210
 2053W        W17184   7.210   3.726  14.989 -0.0420 -0.2489 -0.0281
 2054W        W17185  11.342   5.059   4.835 -0.1847 -0.1489  0.1120
 2055W        W17186  12.498   7.682  12.245 -0.2544  0.2431 -0.2703
 2056W        W17187  16.063  10.691   5.764 -0.0331 -0.1010  0.2098
 2057W        W17188   4.627  17.219  15.813  0.1039  0.0757 -0.2355
 2058W        W17189  12.466   5.456  10.085  0.0826  0.2652 -0.3488
 2059W        W17190   4.236   9.895  13.903  0.1266 -0.0121  0.0691
 2060W        W17191  17.391  15.302   3.512 -0.2126  0.1836  0.0494
 2061W        W17192   0.732   7.027   1.821 -0.1644 -0.2548 -0.1209
 2062W        W17193  16.288  11.174   0.276 -0.3694  0.1265 -0.1092
 2063W        W17194  12.350  14.763   2.627  0.3322 -0.4002  0.2076
 2064W        W17195   9.177   7.730   4.388  0.2188  0.0281  0.0045
 2065W        W17196   6.197   3.018   0.191  0.1862  0.0397  0.0606
 2066W        W17197   0.130  16.538  12.944  0.1874 -0.0682 -0.1566
 2067W        W17198   3.728  16.802   0.822 -0.4262 -0.1075 -0.1052
 2068W        W17199   7.979   2.565  13.981  0.1856 -0.0296 -0.1863
 2069W        W17200  16.186   4.540   2.021  0.3164  0.1308  0.0760
 2070W        W17201   1.211  13.477   4.698  0.1982 -0.1013 -0.1735
 2071W        W17202   6.380   6.944   3.467  0.0810 -0.1276  0.0240
 2072W        W17203  14.166   7.970  15.253  0.4566  0.2862 -0.0350
 2073W        W17204  16.129  10.899   4.795  0.0965  0.0248  0.2168
 2074W        W17205   9.911  16.303   0.690  0.0267 -0.0003  0.1105
 2075W        W17206  11.382   7.312  12.778 -0.0483 -0.1407 -0.0043
 2076W        W17207   9.236   2.196   4.477 -0.0188  0.1835  0.0795
 2077W        W17208  12.220  13.100  10.283  0.1270 -0.1144 -0.0707
 2078W        W17209  17.363  11.662  12.834  0.0305  0.2119  0.1393
 2079W        W17210   5.615   5.091   2.657  0.1946  0.1132 -0.1077
 2080W        W17211   2.076  11.799  11.506 -0.1676  0.4408  0.1922
 2081W        W17212  16.208   4.802  14.843 -0.1099 -0.5175 -0.1403
 2082W        W17213   4.706  15.558   3.940  0.0541 -0.3453 -0.0721
 2083W        W17214   5.250  16.065   3.301  0.0021 -0.2535  0.0251
 2084W        W17215   0.089   9.617   5.200  0.1401  0.1657 -0.1645
 2085W        W17216  17.951   8.308   0.154 -0.2375 -0.0596  0.0819
 2086W        W17217   2.719  15.515   1.598  0.2076  0.0076 -0.1841
 2087W        W17218  12.524   4.070   4.272 -0.2294 -0.1797  0.2065
 2088W        W17219   8.723   8.976  10.703  0.0872  0.1071 -0.1881
 2089W        W17220   4.241  13.422   2.725 -0.2739  0.1385 -0.2841
 2090W        W17221  11.793   3.053   3.277  0.0372  0.0263  0.1134
 2091W        W17222  13.313   7.257   0.556  0.0339  0.0673 -0.0330
 2092W        W17223  11.036   8.473  14.641  0.0527 -0.1438  0.0470
 2093W        W17224  18.533  14.073  14.630  0.1731  0.2390 -0.1741
 2094W        W17225  16.904  12.460   5.563 -0.1441 -0.5992 -0.2028
 2095W        W17226   5.373   0.614  15.635 -0.0002  0.2537 -0.0121
 2096W        W17227   0.968   2.960  12.096  0.1766  0.1920 -0.0385
 2097W        W17228   4.531  14.171  11.705  0.0807 -0.0991  0.4985
 2098W        W17229   8.136   8.779  13.733 -0.2660 -0.1047  0.0360
 2099W        W17230   0.345  17.200  12.369  0.1627  0.1060 -0.0201
 2100W        W17231   2.795  11.317   0.738 -0.0921 -0.0539  0.2463
 2101W        W17232   9.404   1.942  10.755  0.2062 -0.0603  0.2155
 2102W        W17233   9.724   0.332   0.458  0.3635  0.1677  0.1017
 2103W        W17234   7.031   1.937  13.246 -0.0971 -0.2896 -0.1552
 2104W        W17235  10.173   7.585  10.265  0.0021 -0.0357 -0.3683
 2105W        W17236   0.754  17.051   4.471  0.1093 -0.1169 -0.1819
 2106W        W17237  13.517   3.655   0.352 -0.0383  0.1396 -0.1822
 2107W        W17238  15.337   1.103  11.355 -0.0353 -0.0649  0.0633
 2108W        W17239   9.901   3.273  14.008  0.1230  0.0476  0.1921
 2109W        W17240   7.596  14.525   3.858 -0.0738 -0.4844 -0.3152
 2110W        W17241   4.767   3.230  12.394  0.0258 -0.1322 -0.1270
 2111W        W17242   2.997  13.112   4.971  0.2710 -0.1732 -0.1460
 2112W        W17243   6.784   5.687   2.358  0.0052 -0.4246  0.3675
 2113W        W17244  17.362   0.856   3.568 -0.1248 -0.1364  0.0610
 2114W        W17245   3.851  15.095   4.391 -0.1600  0.0881 -0.3385
 2115W        W17246   5.950  16.380  10.291  0.1516  0.1563 -0.0091
 2116W        W17247   1.625   0.106  10.985  0.1785 -0.0622 -0.0749
 2117W        W17248   8.371  17.452   3.152 -0.2268  0.0472 -0.3108
 2118W        W17249   2.234  10.232   5.005 -0.1665  0.2250  0.2026
 2119W        W17250  12.276   6.010   1.138 -0.2967  0.1743 -0.2377
 2120W        W17251  10.644  16.184   4.123 -0.1799  0.1439 -0.2744
 2121W        W17252   3.277   1.111   4.047  0.0507  0.1387  0.1096
 2122W        W17253  17.897   3.882   0.350  0.0608 -0.0116 -0.4387
 2123W        W17254   5.408   7.070   0.965  0.0362 -0.1269 -0.1514
 2124W        W17255   2.131   1.966   4.988 -0.1973  0.1963 -0.2826
 2125W        W17256   6.011   6.429   4.339  0.0191  0.4408 -0.0063
 2126W        W17257   8.224  11.840  12.704  0.0364 -0.0368  0.0286
 2127W        W17258   3.979  16.638   1.610 -0.0863  0.2165  0.2784
 2128W        W17259  17.100   9.254  12.657 -0.2108  0.0147 -0.3334
 2129W        W17260  15.814  11.214  13.929 -0.0436  0.1506 -0.0341
 2130W        W17261  18.110  12.087  14.677 -0.2676 -0.1455  0.4737
 2131W        W17262   7.091   0.478   2.697 -0.0686 -0.0829 -0.1127
 2132W        W17263   7.434   2.872   5.277  0.2186 -0.1674  0.1631
 2133W        W17264  10.859   5.856   3.517 -0.0491 -0.0827  0.2697
 2134W        W17265  12.380  10.374   0.077  0.0185 -0.0336  0.1751
 2135W        W17266   4.211  10.904   1.340 -0.2953 -0.1825 -0.0088
 2136W        W17267   2.073  14.189   2.304  0.2570  0.0369  0.1950
 2137W        W17268  15.126  15.553  13.296 -0.2493 -0.0203  0.0628
 2138W        W17269   0.987  15.476   1.637 -0.3302 -0.1028  0.1803
 2139W        W17270   1.204  12.073  11.613 -0.5170 -0.0747  0.0576
 2140W        W17271   3.685  15.034  13.959 -0.1133  0.0919 -0.0430
 2141W        W17272  15.729   0.204   0.404 -0.0254  0.1807 -0.1537
 2142W        W17273  15.933  16.771   2.820 -0.0044  0.0750  0.0696
 2143W        W17274   4.401   9.390   5.620 -0.1414 -0.1323  0.0221
 2144W        W17275   7.441   7.217  14.375 -0.1659 -0.1197 -0.0074
 2145W        W17276   0.701   5.812  15.719 -0.1684  0.2410 -0.0864
 2146W        W17277  12.434   0.625  10.511 -0.0444  0.2699  0.2272
 2147W        W17278   6.446   9.072  10.925  0.7524  0.1806 -0.2573
 2148W        W17279   1.913  10.103  13.150  0.3306  0.0851 -0.0283
 2149W        W17280   6.169   5.557  14.614 -0.0330  0.1719  0.2020
 2150W        W17281   4.457  13.274   1.811  0.1618  0.3256 -0.3258
 2151W        W17282  18.224  10.772  15.522  0.1679  0.0886  0.2753
 2152W        W17283   8.656  13.823   0.499  0.1218 -0.4194  0.0601
 2153W        W17284   8.076  10.681  11.075  0.3004  0.1309 -0.0013
 2154W        W17285   3.763  12.998  15.638  0.0723 -0.0746  0.0582
 2155W        W17286   1.264   3.290  15.162 -0.0226 -0.0800 -0.2162
 2156W        W17287   1.373   3.203  11.913 -0.0048 -0.0507 -0.1896
 2157W        W17288  10.750  10.560  10.692  0.1438  0.1384 -0.0187
 2158W        W17289   8.168  17.358  12.701  0.3183 -0.0483 -0.1649
 2159W        W17290  12.027  16.862   2.324  0.0259 -0.0352  0.1194
 2160W        W17291   5.893   5.431  14.146 -0.1235 -0.0895 -0.1789
 2161W        W17292  10.321  17.749  14.582 -0.1271 -0.0113  0.1307
 2162W        W17293  15.863   2.927   1.031 -0.3718  0.0659  0.0301
 2163W        W17294   7.679  10.243   0.888  0.1441 -0.2783  0.1022
 2164W        W17295   4.436   0.964   5.103  0.1492 -0.0470 -0.0390
 2165W        W17296   9.843   5.216  13.019  0.1834  0.0334 -0.0211
 2166W        W17297  10.097  17.120   2.121 -0.3588 -0.1759  0.1360
 2167W        W17298   9.483   1.258   1.311 -0.0466  0.2052  0.3499
 2168W        W17299   1.161  15.965   6.116 -0.1950  0.3126 -0.0318
 2169W        W17300   7.751   0.642   9.795 -0.0850 -0.1429  0.2103
 2170W        W17301   8.931   2.685  14.309  0.2534 -0.2493 -0.0381
 2171W        W17302   1.878   2.892   1.004  0.0835 -0.0897 -0.1028
 2172W        W17303  10.818   0.522   1.803  0.0301 -0.2808 -0.1296
 2173W        W17304   5.373  14.382  14.876  0.0511  0.2282  0.1541
 2174W        W17305   8.154  10.129  15.302 -0.0945 -0.0807  0.2995
 2175W        W17306   0.532  10.445   0.274  0.2316  0.0364  0.0344
 2176W        W17307  13.400  14.413  15.108  0.1797  0.1557 -0.0768
 2177W        W17308   4.741  12.976  15.292  0.0648  0.1690  0.2773
 2178W        W17309   6.933   8.514  11.584 -0.2463 -0.0772  0.0311
 2179W        W17310  14.638   6.319  12.412 -0.2914 -0.1076 -0.1256
 2180W        W17311  12.933   4.033   2.971  0.1161  0.1764 -0.1378
 2181W        W17312   0.468   4.898   0.177  0.1326  0.0070  0.1552
 2182W        W17313  16.604   6.638  11.364  0.0862 -0.0383  0.2462
 2183W        W17314   0.999   6.317  12.930  0.4048  0.3227 -0.1860
 2184W        W17315  14.268  17.954   4.654  0.0684 -0.2359 -0.0456
 2185W        W17316   1.577   5.384  10.911  0.1386 -0.5249 -0.1135
 2186W        W17317  16.794   2.682   1.600 -0.4409  0.0142 -0.2627
 2187W        W17318  10.872   2.617   1.414 -0.3306  0.3947  0.0962
 2188W        W17319  13.323  14.731   4.160  0.0565 -0.0468  0.1438
 2189W        W17320  14.467  16.317   3.926 -0.0749 -0.0971  0.2980
 2190W        W17321  13.267  14.774  10.561  0.2523  0.1544  0.1475
 2191W        W17322  13.614   5.388  12.208  0.0549 -0.1598 -0.1518
 2192W        W17323   6.838  10.982  11.460  0.1715 -0.2835  0.1430
 2193W        W17324   6.313   1.919  12.433 -0.2983 -0.0148 -0.0962
 2194W        W17325   4.497   4.123   1.620 -0.1335 -0.2617 -0.2907
 2195W        W17326   9.309   4.337   3.680  0.1599 -0.3911 -0.0538
 2196W        W17327   7.280  13.941  13.023  0.0161  0.1600 -0.2835
 2197W        W17328  10.204  17.407   1.622  0.2876  0.3463 -0.1194
 2198W        W17329  12.782   3.765   3.434 -0.1738 -0.1085  0.4280
 2199W        W17330   4.984  12.257  13.787 -0.0304  0.2667  0.0642
 2200W        W17331  13.523   4.695  11.611  0.2595  0.3963  0.0381
 2201W        W17332  18.108  14.436   5.608  0.3231  0.1855  0.2627
 2202W        W17333   0.699   8.497   3.524 -0.2068 -0.0702 -0.1652
 2203W        W17334   9.233  18.483   5.230 -0.2046  0.0090 -0.1611
 2204W        W17335  16.926   4.104  14.552 -0.2122  0.1580 -0.0668
 2205W        W17336  15.261   9.699   0.730  0.0499 -0.0007 -0.0117
 2206W        W17337  17.019   4.921  14.848 -0.0119 -0.1192 -0.2012
 2207W        W17338  13.113   6.015   4.135 -0.2083  0.0142 -0.2353
 2208W        W17339  16.543   0.267  12.945 -0.3775 -0.2362 -0.1533
 2209W        W17340   2.691  14.541   5.556 -0.0685 -0.2231  0.0541
 2210W        W17341   3.155   6.742  12.704  0.0234 -0.1514 -0.1047
 2211W        W17342   4.773   1.778  11.013  0.0574 -0.2167 -0.2330
 2212W        W17343  11.796  12.607   5.046 -0.2580 -0.3513 -0.0158
 2213W        W17344  12.727   1.597  10.076 -0.0039 -0.4931 -0.1922
 2214W        W17345  14.455  16.050   3.511  0.1661 -0.1411 -0.2361
 2215W        W17346   2.590   4.766  13.469  0.0067  0.3593  0.1430
 2216W        W17347  11.328  14.308   1.130  0.0480  0.2093 -0.3633
 2217W        W17348   6.935   5.276  14.933 -0.2288  0.0500  0.1458
 2218W        W17349  14.869   7.889  13.837  0.2496  0.0510  0.1252
 2219W        W17350   7.685  12.821   3.597  0.1355  0.1813 -0.2491
 2220W        W17351  14.083   5.587  12.039  0.0425 -0.2470 -0.2667
 2221W        W17352  13.651   2.607   5.091 -0.0145 -0.0643 -0.0388
 2222W        W17353   9.326   2.816  15.675 -0.3166  0.0036  0.1718
 2223W        W17354   0.301   3.025  12.637  0.1949 -0.2491  0.1975
 2224W        W17355   6.456  11.435  12.505  0.1962  0.0066  0.0096
 2225W        W17356  16.483   6.472   4.303 -0.0395  0.0706  0.2484
 2226W        W17357  11.352  11.275  11.007 -0.3186  0.0678 -0.1009
 2227W        W17358  17.634   2.338  10.876  0.1409 -0.0526 -0.3213
 2228W        W17359  11.333  14.254  15.899 -0.0640  0.0748 -0.1000
 2229W        W17360  17.783  10.752   2.541 -0.0648  0.4141  0.0758
 2230W        W17361   2.929  11.682  11.866  0.5564  0.1358 -0.4446
 2231W        W17362  17.631   3.607   4.235  0.1829  0.0801 -0.2124
 2232W        W17363  12.101   7.902   2.633  0.0615 -0.0530  0.2872
 2233W        W17364  17.890  15.442  14.411  0.3159 -0.2871 -0.2639
 2234W        W17365   3.493   1.021   0.031 -0.2041 -0.1547 -0.2206
 2235W        W17366  14.068   5.391   3.770 -0.0609  0.2631  0.0017
 2236W        W17367   1.017  16.305  10.394 -0.3746  0.1625 -0.2364
 2237W        W17368   1.094  11.468   5.157 -0.1457 -0.2022 -0.1020
 2238W        W17369  15.922   3.632   3.519 -0.0499  0.3477 -0.2398
 2239W        W17370  15.061   7.595  14.652  0.0531 -0.0802  0.1075
 2240W        W17371   1.850   6.322  15.122 -0.2453 -0.0773  0.0029
 2241W        W17372   1.010   1.372  12.618  0.0132  0.0163  0.1916
 2242W        W17373  15.191   6.235   2.522  0.2943  0.3244  0.0005
 2243W        W17374  18.070   2.921   0.852 -0.0478  0.0022  0.0631
 2244W        W17375  10.384  17.135   0.592  0.0997 -0.5085 -0.2478
 2245W        W17376  13.608  10.353   4.530 -0.0252 -0.1189 -0.1424
 2246W        W17377   3.358   1.648   2.709  0.0432 -0.0203  0.2735
 2247W        W17378   7.553  11.298   1.374 -0.1046 -0.1104 -0.0812
 2248W        W17379  10.375   4.780   2.863 -0.1600  0.1260  0.0964
 2249W        W17380   3.077  12.674   4.677  0.0898 -0.1843 -0.0191
 2250W        W17381   9.785   1.771   4.579  0.1012  0.7616 -0.1078
 2251W        W17382  12.448   5.335  14.451  0.2310 -0.2642 -0.0990
 2252W        W17383  16.684  14.997   1.274  0.3755 -0.3910  0.2797
 2253W        W17384   4.310   9.742   2.036  0.1477 -0.0538  0.0495
 2254W        W17385   5.601   7.947  11.408  0.2257  0.1093  0.0094
 2255W        W17386  16.221  11.277   1.823 -0.0012 -0.0215  0.0399
 2256W        W17387  15.673   9.683   3.426 -0.4360 -0.3199  0.0008
 2257W        W17388  15.830   3.422  11.202  0.0486  0.0509 -0.1000
 2258W        W17389  12.705  10.756   5.372 -0.0616 -0.2039  0.0765
 2259W        W17390   5.876  15.910   4.271  0.2389 -0.0553 -0.1741
 2260W        W17391  10.582   9.330  10.791 -0.1740  0.1380 -0.2779
 2261W        W17392   3.831  11.813   4.748  0.1424  0.1697 -0.1783
 2262W        W17393  14.948   6.699  12.958 -0.1347  0.1072 -0.3143
 2263W        W17394   4.706   2.733  10.439  0.1106  0.5201  0.4212
 2264W        W17395   1.013   4.060   5.991  0.3244 -0.0670  0.1278
 2265W        W17396  14.874   8.744  12.473 -0.0590 -0.1637 -0.5235
 2266W        W17397   8.607   6.615  14.718 -0.2683 -0.0894 -0.3132
 2267W        W17398  18.264   8.881  15.505  0.2392 -0.1173 -0.0811
 2268W        W17399   2.943  10.291   1.630 -0.1529  0.0224 -0.0862
 2269W        W17400   3.566   8.137  13.064 -0.0575 -0.0816  0.1720
 2270W        W17401  12.235   5.792  11.195  0.2129  0.1776  0.0823
 2271W        W17402  10.680  10.251   0.450 -0.2343  0.2695 -0.1249
 2272W        W17403  14.029   7.292   2.736  0.1026  0.1609 -0.0068
 2273W        W17404  16.960   1.420   2.618 -0.0484  0.1095 -0.4459
 2274W        W17405   6.235   5.222  13.268  0.3897 -0.2359  0.0283
 2275W        W17406   2.129  13.079   3.868 -0.2430  0.1455  0.1904
 2276W        W17407  16.970  11.796   0.283 -0.0299 -0.0901  0.3262
 2277W        W17408  14.781   5.429   4.517 -0.0935 -0.0525 -0.1167
 2278W        W17409   4.308  15.926   1.295 -0.4358  0.1219  0.0785
 2279W        W17410   1.697   6.891   2.612 -0.0427 -0.0076 -0.0465
 2280W        W17411  15.205   6.895  15.749  0.1015 -0.2776 -0.0920
 2281W        W17412  11.600  12.294  11.269  0.1556  0.0872 -0.0479
 2282W        W17413  17.758  14.055  15.311 -0.2928 -0.1575 -0.0763
 2283W        W17414  11.011   1.875  14.354  0.1066 -0.0269  0.3384
 2284W        W17415  14.490  13.299  14.246 -0.2711  0.0166 -0.1083
 2285W        W17416   8.220  18.204   3.485 -0.2285 -0.0740  0.3620
 2286W        W17417   5.529   6.692  12.730  0.0623 -0.1435  0.0746
 2287W        W17418  15.170  10.774   1.405  0.0143  0.0117 -0.2835
 2288W        W17419   0.020   9.405  15.781 -0.0461 -0.2461  0.1279
 2289W        W17420  13.935   7.471  15.418  0.2228 -0.0025 -0.0416
 2290W        W17421  16.546   2.878  15.732 -0.1432 -0.0508 -0.0588
 2291W        W17422  11.325   6.646  15.335  0.1466 -0.5173 -0.0811
 2292W        W17423   4.320   5.058  11.034  0.0883 -0.2537 -0.1454
 2293W        W17424   4.870  11.839  11.915  0.2664 -0.2342 -0.0510
 2294W        W17425  14.689  11.402   0.250  0.0206  0.0786 -0.1645
 2295W        W17426   2.261  15.098  11.694 -0.0729 -0.0270  0.0184
 2296W        W17427   2.296   4.169   1.863  0.0715  0.1683  0.1568
 2297W        W17428  12.267   3.024   3.073 -0.0450 -0.1469 -0.1206
 2298W        W17429   5.745  18.325  11.677  0.3003  0.0813 -0.1886
 2299W        W17430   9.654  14.050  10.924  0.1901 -0.3347 -0.0314
 2300W        W17431   3.385   1.346  15.022 -0.0060  0.2471 -0.2823
 2301W        W17432   1.441   2.223  15.664 -0.0050  0.2387 -0.1622
 2302W        W17433  11.643  13.442   3.792 -0.2480  0.1472  0.1615
 2303W        W17434  18.525   7.870  14.636 -0.2265 -0.2329  0.1124
 2304W        W17435  16.425   5.435   0.596  0.1286  0.0727  0.4421
 2305W        W17436   7.665  13.498  13.146  0.1951  0.1715 -0.1727
 2306W        W17437  11.895  18.549  14.114  0.2092  0.1474 -0.2123
 2307W        W17438  12.752   3.775  10.709 -0.2643  0.0796  0.2015
 2308W        W17439   4.622   2.952   3.800  0.2070  0.0145 -0.0434
 2309W        W17440   2.111  11.662  14.606 -0.3553  0.0570  0.0503
 2310W        W17441   8.309   9.871   3.484 -0.3263 -0.1148 -0.2068
 2311W        W17442   9.903   9.816   3.419 -0.2026 -0.1304 -0.1827
 2312W        W17443   2.781   3.164  12.759  0.2203  0.3461 -0.1833
 2313W        W17444  13.497   3.087   3.438  0.0930 -0.1286 -0.1547
 2314W        W17445  18.307   7.917   6.374  0.3149 -0.4124 -0.1109
 2315W        W17446   0.170   3.253   4.630 -0.3370  0.2001 -0.1994
 2316W        W17447  17.374   9.363  15.725  0.2576  0.0847 -0.0181
 2317W        W17448   8.912  14.083  11.461  0.2109 -0.4346  0.0520
 2318W        W17449  13.191  12.981  11.777  0.1333 -0.2015 -0.0569
 2319W        W17450   6.612  16.057   4.309  0.1745  0.0254 -0.1972
 2320W        W17451  15.948  13.853  12.712 -0.2199 -0.1009  0.0901
 2321W        W17452  13.505   6.729   9.954  0.0946 -0.0596  0.0505
 2322W        W17453  17.134   8.650   5.678 -0.0494  0.0103 -0.0430
 2323W        W17454   9.630   8.038   1.218 -0.1917  0.1446 -0.1859
 2324W        W17455   0.495  15.751  11.543 -0.2653 -0.0039 -0.2035
 2325W        W17456   2.437   0.901  15.443 -0.0666 -0.0123  0.0067
 2326W        W17457  14.061   8.269   3.993 -0.1210  0.0132  0.1748
 2327W        W17458   1.206   1.607   3.055  0.0505  0.1493 -0.0944
 2328W        W17459  15.247  17.731  10.705 -0.0265 -0.0787 -0.1094
 2329W        W17460  17.515  18.159  14.652  0.4496  0.0177 -0.1508
 2330W        W17461  16.599  18.473  10.829 -0.2449  0.0933 -0.0248
 2331W        W17462   3.111  15.848  14.721 -0.3255 -0.0634 -0.0263
 2332W        W17463   0.964  15.367  10.355  0.1797 -0.1625  0.0299
 2333W        W17464   7.114   8.650   1.264  0.1912 -0.0978 -0.2563
 2334W        W17465  14.780   6.866  10.678 -0.3363 -0.1689 -0.3900
 2335W        W17466  18.075   6.824  14.629 -0.0485  0.2171  0.1868
 2336W        W17467  12.901  18.036   1.568 -0.0194 -0.0174  0.2264
 2337W        W17468  13.340   2.176   5.159  0.0320  0.1670  0.1574
 2338W        W17469  16.127   0.609  12.850 -0.1191 -0.0197  0.0278
 2339W        W17470  14.614   9.651  14.225  0.0456 -0.0227 -0.0535
 2340W        W17471  13.836   7.656  14.891 -0.0428 -0.2768  0.0644
 2341W        W17472  10.863  18.044   1.337  0.0011 -0.1395  0.3266
 2342W        W17473  15.254   1.762   1.959  0.0720  0.3081  0.3950
 2343W        W17474  13.498   8.974   4.048 -0.0550  0.2132 -0.0468
 2344W        W17475  14.607   7.816  13.382  0.1820 -0.1155  0.2692
 2345W        W17476  11.016  15.277   0.899  0.2372 -0.0674 -0.1081
 2346W        W17477   8.307   9.659  15.843 -0.0312 -0.0292 -0.0242
 2347W        W17478  16.810  13.758  11.231 -0.1714  0.2416  0.0790
 2348W        W17479   8.407   5.081   2.645  0.1526  0.0074  0.0083
 2349W        W17480  16.293   2.646   6.082 -0.1707 -0.0673  0.1047
 2350W        W17481   2.542  11.617   5.013  0.2920 -0.6318  0.2944
 2351W        W17482   7.152   0.924   0.242  0.0619 -0.3468 -0.4132
 2352W        W17483  18.204  11.987  15.884 -0.0847 -0.0014  0.0792
 2353W        W17484  12.159   5.758  15.826  0.2921 -0.2968  0.2623
 2354W        W17485  13.633  15.742  13.472 -0.3880  0.1147 -0.2246
 2355W        W17486   2.296  13.249   0.512  0.0210  0.0771  0.0958
 2356W        W17487   5.254   6.054   3.369  0.0698  0.0187  0.1774
 2357W        W17488   4.664  16.427  12.081 -0.0351 -0.0366  0.0779
 2358W        W17489  12.069  17.556   2.830  0.2931  0.0100  0.0483
 2359W        W17490   8.964   3.114   0.040  0.2314  0.0271  0.1705
 2360W        W17491  13.033   3.607  12.490 -0.1949  0.1594 -0.2542
 2361W        W17492  18.336  18.111  15.337  0.3178 -0.1095  0.2541
 2362W        W17493   0.453   1.297  12.586 -0.0527 -0.1061  0.3247
 2363W        W17494   7.604   0.493   4.829  0.1652  0.0633 -0.1958
 2364W        W17495   5.660  12.410  11.685  0.0260 -0.1155  0.2255
 2365W        W17496  11.737   2.166  15.133  0.0463  0.4199 -0.2144
 2366W        W17497   5.047  14.710  10.292 -0.0152  0.1187 -0.1187
 2367W        W17498  12.756  16.555  11.249 -0.2563 -0.6163 -0.1603
 2368W        W17499   7.716   2.670  10.802  0.2140 -0.0549 -0.2245
 2369W        W17500   2.829   3.971  11.356  0.0428  0.1922 -0.4781
 2370W        W17501  15.550   8.506   2.230 -0.1610  0.2643  0.1411
 2371W        W17502  14.019  14.606   2.332 -0.3019 -0.1084  0.2501
 2372W        W17503  18.421  17.434   2.863  0.1417 -0.0069 -0.0883
 2373W        W17504   7.058  15.073  11.447  0.2458  0.3332 -0.1226
 2374W        W17505   8.838   9.375   1.574 -0.1571 -0.1233 -0.1749
 2375W        W17506   6.763  12.315  15.294  0.1442  0.0498 -0.3522
 2376W        W17507   6.456  16.782   1.414 -0.2677 -0.0272 -0.1169
 2377W        W17508  15.782   9.410  15.363 -0.1513  0.0917 -0.3630
 2378W        W17509  17.298   6.487   2.473 -0.4327 -0.0641  0.3029
 2379W        W17510  15.705   1.318   2.925 -0.1258 -0.3950  0.1359
 2380W        W17511  14.791   5.583  14.771  0.1605 -0.0201  0.2203
 2381W        W17512   3.289   5.358   4.647  0.0798 -0.3549 -0.1542
 2382W        W17513   6.212  15.231  14.340 -0.0837  0.0823 -0.1115
 2383W        W17514  18.076  17.594  12.413 -0.0374  0.1241 -0.3922
 2384W        W17515  17.526   5.597  13.166  0.1355 -0.1037 -0.5296
 2385W        W17516   7.064   8.134  15.520 -0.2235  0.1814  0.0402
 2386W        W17517   3.076   5.909   5.496 -0.0177 -0.1349  0.0701
 2387W        W17518  13.229   4.926  10.877 -0.3218  0.2009 -0.0162
 2388W        W17519  17.775  17.738   5.803  0.0105  0.0071 -0.2049
 2389W        W17520   6.170   5.022   4.231 -0.1365 -0.1139 -0.0234
 2390W        W17521   7.597   7.187  12.114  0.1480 -0.1563 -0.0809
 2391W        W17522   1.651  17.515   1.146  0.0292  0.0014 -0.2172
 2392W        W17523   9.256   0.462   5.891 -0.3675 -0.2443 -0.1693
 2393W        W17524   9.570  14.441   2.392 -0.1858  0.2796 -0.0721
 2394W        W17525   7.118  10.377   0.544 -0.1841 -0.3963  0.1109
 2395W        W17526  15.971  12.306   1.927  0.0275 -0.0675  0.2133
 2396W        W17527   5.057  12.151  10.431  0.0095 -0.0742 -0.1091
 2397W        W17528   3.553   4.823   6.211 -0.1300 -0.3688  0.3008
 2398W        W17529  18.044  13.848   2.667 -0.5084  0.2313 -0.4089
 2399W        W17530   7.496  18.463  10.217  0.0199 -0.0163  0.1402
 2400W        W17531  13.718   5.120  13.342 -0.1325 -0.0680 -0.0711
 2401W        W17532   0.570  10.013  10.836 -0.1462 -0.1805  0.2822
 2402W        W17533   2.103  16.807  14.622  0.2042 -0.1104  0.2380
 2403W        W17534  14.103  12.328   4.994  0.2031 -0.0908  0.1007
 2404W        W17535  15.846   7.057   5.180 -0.0128  0.2688 -0.0976
 2405W        W17536   3.055   4.197   5.530  0.1325  0.2364  0.2533
 2406W        W17537  17.864  15.534  15.307  0.2622 -0.4128  0.2019
 2407W        W17538   1.524  12.742  12.299 -0.1819  0.1736  0.1339
 2408W        W17539  12.639  12.418   4.280  0.0210 -0.1886 -0.0647
 2409W        W17540  15.456  15.314  12.358 -0.4234 -0.1075 -0.1090
 2410W        W17541   5.555  14.285  15.521 -0.0837  0.3913  0.0721
 2411W        W17542   3.040  18.029  13.520 -0.1594 -0.0778  0.2303
 2412W        W17543   0.328   0.630  13.023  0.1351  0.0751  0.0466
 2413W        W17544  14.467  18.060   3.032 -0.2193 -0.4864  0.3261
 2414W        W17545  15.212   6.058   1.464 -0.0849  0.1091 -0.0169
 2415W        W17546   6.957   3.681   3.279 -0.1281 -0.2131  0.3579
 2416W        W17547  17.299  17.742   3.522  0.1079  0.0978 -0.1011
 2417W        W17548  16.979  14.746   2.223  0.1475 -0.3396  0.0930
 2418W        W17549   1.898  18.531  14.523 -0.1398 -0.1345  0.1025
 2419W        W17550   9.932   6.369   0.898 -0.1430  0.5249 -0.0335
 2420W        W17551  10.116   5.807   1.810 -0.0438 -0.3048 -0.0269
 2421W        W17552   2.736  12.688   0.467  0.0268 -0.2063 -0.3219
 2422W        W17553   4.217  16.840  12.949  0.2318  0.3409 -0.0602
 2423W        W17554   3.836   2.774   2.402 -0.1533 -0.1030  0.0790
 2424W        W17555   3.458   5.368  15.450  0.2544 -0.1790 -0.2744
 2425W        W17556  12.226  15.023  14.346 -0.2202  0.0649  0.0511
 2426W        W17557  18.199   5.113   1.087 -0.2302 -0.5594  0.0039
 2427W        W17558   7.879  10.038   1.310  0.4275  0.0449  0.2715
 2428W        W17559  17.903  12.287   4.726 -0.0675  0.0123 -0.0075
 2429W        W17560   8.672   7.626   1.222 -0.0183 -0.0714 -0.0674
 2430W        W17561   1.611   9.474   1.712  0.0305  0.2466 -0.0924
 2431W        W17562   9.617   4.411   4.897  0.1587  0.0458 -0.0951
 2432W        W17563   2.361  13.237  14.460  0.0412  0.3155  0.0023
 2433W        W17564  13.230  11.260  11.194  0.3321  0.1871  0.2672
 2434W        W17565  17.729  13.659  14.694  0.3177 -0.0616  0.4474
 2435W        W17566   1.765  13.111  12.575  0.2749  0.1219 -0.0614
 2436W        W17567  13.844   1.753   3.423  0.3548 -0.1020 -0.1910
 2437W        W17568  17.247   7.855  14.441  0.1998 -0.1060  0.0743
 2438W        W17569  17.235  15.980  14.255 -0.0441  0.1599 -0.4596
 2439W        W17570  12.948  13.800   4.946 -0.0643  0.4070  0.1749
 2440W        W17571   1.226   3.613   6.146 -0.0780 -0.0909  0.1040
 2441W        W17572   7.451  14.193  11.646  0.2237  0.2985  0.0753
 2442W        W17573  15.813  15.042  13.505  0.0422  0.2875  0.0995
 2443W        W17574   2.501  12.137  13.191  0.1481  0.1394  0.0380
 2444W        W17575  15.551   3.037   5.776  0.1185 -0.1561  0.0462
 2445W        W17576  11.975   4.418  12.967  0.2980  0.0230 -0.1918
 2446W        W17577   3.562   5.797   6.357  0.0630  0.3052 -0.2086
 2447W        W17578   1.192  12.160   9.867  0.1992  0.1491  0.0824
 2448W        W17579   5.880  16.217  10.904  0.1183 -0.2297 -0.0583
 2449W        W17580  15.169  12.527   3.522  0.2178  0.0840  0.1402
 2450W        W17581   5.471   3.116   3.168 -0.0194  0.1618  0.2610
 2451W        W17582   3.171   8.342  15.166 -0.0688  0.5107 -0.1167
 2452W        W17583   6.312   3.812  15.634  0.0826  0.0017  0.2001
 2453W        W17584  15.420  17.280  10.669  0.0404  0.2379  0.1658
 2454W        W17585   9.705   7.342   4.872 -0.0003  0.4776 -0.1072
 2455W        W17586   0.384  14.567   1.490 -0.4523 -0.0386  0.0864
 2456W        W17587   8.521   1.905  15.760 -0.0684  0.3247  0.0935
 2457W        W17588  14.789   2.065  12.258 -0.0243  0.3108  0.4675
 2458W        W17589  12.731  12.103   0.205  0.1237  0.3777  0.2142
 2459W        W17590   3.179  14.487   0.113  0.0307  0.0589 -0.1324
 2460W        W17591   8.081   3.486  11.647  0.0540 -0.0704 -0.1326
 2461W        W17592   6.386   6.904  12.978 -0.3377 -0.1242 -0.2293
 2462W        W17593   1.294   6.771   4.318  0.0381 -0.1490  0.1758
 2463W        W17594  11.194  14.626   5.044 -0.2070  0.0767 -0.0579
 2464W        W17595  18.371  14.332  13.350 -0.0481 -0.2757 -0.0021
 2465W        W17596  14.056   6.786   0.927 -0.1439  0.2985  0.0732
 2466W        W17597  14.325   6.262  14.059 -0.0363 -0.1182  0.0648
 2467W        W17598   9.762  10.370   5.378  0.0691 -0.1852 -0.3261
 2468W        W17599   1.693   2.928  13.373  0.1886 -0.2539 -0.3586
 2469W        W17600   9.929   5.354   0.949  0.2761 -0.1223  0.4253
 2470W        W17601   8.572   4.487  14.593  0.1014 -0.0276  0.1980
 2471W        W17602   9.931   0.534  13.878  0.1244  0.1148 -0.0652
 2472W        W17603   2.097   4.948  13.574  0.2358  0.1368 -0.2790
 2473W        W17604  17.982  10.283   2.207  0.3540 -0.1746  0.2198
 2474W        W17605  18.423  15.270   5.258  0.4366 -0.1337  0.2643
 2475W        W17606  17.847   7.898   0.395 -0.0505  0.0894 -0.1146
 2476W        W17607  18.173   7.429  13.051 -0.0431  0.1635 -0.1304
 2477W        W17608  10.119   4.964   4.046  0.1856 -0.0919  0.2695
 2478W        W17609  12.056   8.951  11.267  0.1790  0.0904 -0.1417
 2479W        W17610   0.878   1.549   1.776 -0.0700  0.0458 -0.2048
 2480W        W17611  13.160  14.888  15.349  0.0388  0.0445  0.4672
 2481W        W17612   9.513  16.728  10.448 -0.0996 -0.0052  0.3053
 2482W        W17613   6.476   5.742  11.072 -0.1857  0.2996  0.0729
 2483W        W17614   7.211   0.128   4.047  0.4469 -0.3356 -0.1165
 2484W        W17615  11.403  17.970   0.805  0.0171  0.2002  0.1192
 2485W        W17616  17.371   7.460  11.297  0.0667  0.2021  0.1029
 2486W        W17617   6.479   3.020   1.509 -0.0260 -0.1689  0.0425
 2487W        W17618  12.809  17.245   3.751 -0.3332  0.0489  0.0796
 2488W        W17619   0.831   1.448   4.851 -0.1257  0.2466  0.2992
 2489W        W17620  14.271  14.126   3.375 -0.1425  0.2132  0.1484
 2490W        W17621   1.537   0.440   2.153 -0.0829  0.2104  0.0460
 2491W        W17622  10.206   1.733   1.880 -0.0619  0.0470  0.2024
 2492W        W17623  11.950  16.882   9.729  0.0954 -0.2027  0.2213
 2493W        W17624  12.051   7.659  11.986  0.0723 -0.0039  0.0622
 2494W        W17625  12.224  10.775  14.141  0.2400 -0.0071  0.0921
 2495W        W17626   5.254  12.864   3.996 -0.3917  0.0532  0.2510
 2496W        W17627  16.267   9.286   3.993  0.0447 -0.0128 -0.0101
 2497W        W17628  12.005   9.879  14.530  0.0744 -0.0432 -0.0883
 2498W        W17629  12.181   0.907  15.058  0.1070  0.0959 -0.1754
 2499W        W17630   1.660  18.205   0.504 -0.0852  0.2899  0.0696
 2500W        W17631  10.734   4.582   3.487 -0.1846 -0.0232  0.1679
 2501W        W17632   7.781  17.774   4.529 -0.1617  0.6209 -0.1207
 2502W        W17633  11.964  10.201   1.147 -0.0253 -0.0721 -0.1676
 2503W        W17634   7.645   9.634   4.668  0.2427 -0.1083 -0.0811
 2504W        W17635  12.182  10.074  14.928 -0.0872 -0.1221 -0.0291
 2505W        W17636   6.966   1.642   5.263  0.1994 -0.0052 -0.2035
 2506W        W17637   0.122   7.299   5.637  0.3491 -0.4854  0.1380
 2507W        W17638   5.111  12.650   3.099 -0.1659  0.0693  0.0026
 2508W        W17639  17.403   5.014   1.490 -0.5008  0.1771  0.0608
 2509W        W17640  17.758  18.071  11.597 -0.2365  0.1669  0.0375
 2510W        W17641   3.369  11.694  14.481 -0.1749  0.0648  0.0392
 2511W        W17642   0.274   6.326  14.124  0.1154 -0.1333 -0.0897
 2512W        W17643   2.712   1.155   5.133  0.2569  0.1155  0.3448
 2513W        W17644   7.425  16.069  12.897 -0.1565 -0.2059 -0.1563
 2514W        W17645   0.778  11.722  12.814 -0.0843 -0.3327  0.1898
 2515W        W17646  17.897   3.775  11.734  0.1557 -0.1130 -0.0794
 2516W        W17647   4.495  17.540   0.309 -0.1452 -0.2238  0.2284
 2517W        W17648  15.046  12.230  13.068  0.1407 -0.0934  0.2212
 2518W        W17649  16.085   9.363   6.029  0.4021 -0.1216  0.3639
 2519W        W17650  14.534   4.769   2.947  0.1598  0.1971 -0.1239
 2520W        W17651   0.124   3.317  11.795  0.0302 -0.0971  0.0727
 2521W        W17652   6.010  17.085  10.847 -0.0042 -0.0603 -0.3128
 2522W        W17653  10.405   2.870   1.297  0.0420  0.1486 -0.1807
 2523W        W17654  16.981  17.872   2.864 -0.2843  0.0872 -0.1568
 2524W        W17655   5.933   1.073  15.807  0.2964  0.1250 -0.0278
 2525W        W17656   6.325   4.445   9.972 -0.0796 -0.1264 -0.2999
 2526W        W17657   2.893  12.430   2.448 -0.1159 -0.0578  0.1474
 2527W        W17658  13.732   5.702   5.093  0.1444 -0.2543 -0.1699
 2528W        W17659   9.674   4.108   2.236 -0.1950 -0.0690  0.0374
 2529W        W17660  15.346   6.709   0.336 -0.0824  0.2610  0.1374
 2530W        W17661   4.754   6.164   5.793 -0.0491 -0.1783 -0.3669
 2531W        W17662   5.125   6.375  12.618  0.2009  0.0183 -0.0764
 2532W        W17663  13.101   9.161   2.287 -0.0281  0.1469  0.1060
 2533W        W17664  15.221   4.206   4.680  0.1272  0.2855 -0.1350
 2534W        W17665  16.799   8.611   0.629 -0.1624 -0.3351 -0.3501
 2535W        W17666   7.225  12.101  15.294 -0.0174 -0.0465 -0.1379
 2536W        W17667  14.827  17.895  10.912  0.4449 -0.2119 -0.2400
 2537W        W17668   9.451  17.631   3.831 -0.3439  0.0193 -0.1314
 2538W        W17669  17.746   7.187  14.859  0.1827 -0.1216  0.1205
 2539W        W17670  16.913  12.038   4.753 -0.0785  0.0751 -0.0062
 2540W        W17671  15.703   4.833  13.069 -0.0555 -0.3395 -0.0134
 2541W        W17672   5.904   2.185   0.842 -0.0489  0.0258 -0.0870
 2542W        W17673   6.729   1.278   1.693  0.0111 -0.1903 -0.1714
 2543W        W17674  16.008   5.645  15.269  0.0217  0.2777  0.1518
 2544W        W17675  15.513   6.405   1.692 -0.0431 -0.5371  0.1852
 2545W        W17676  13.846  12.474  14.734  0.3109  0.0171 -0.1017
 2546W        W17677  10.736   8.222   4.298 -0.1113  0.1434  0.1582
 2547W        W17678   6.490   0.324   1.826 -0.0691  0.0697  0.2770
 2548W        W17679  16.590   3.687  14.779  0.0969  0.3078  0.1510
 2549W        W17680  12.619  16.151  14.907  0.0060 -0.0965 -0.1623
 2550W        W17681  11.270   1.833  13.477  0.6343  0.2255  0.0854
 2551W        W17682   5.474   6.471  15.268  0.0030  0.1396 -0.0770
 2552W        W17683  17.300   2.810   2.704  0.3187  0.1304 -0.1331
 2553W        W17684  15.606   9.014  13.367  0.0921 -0.0061 -0.0428
 2554W        W17685   6.050  13.013   4.464 -0.3437 -0.1900 -0.0211
 2555W        W17686   4.196   9.042   5.298 -0.0160 -0.0490 -0.0738
 2556W        W17687  10.117   8.955   1.639  0.0129  0.3496 -0.0238
 2557W        W17688   5.179   9.203   3.260 -0.1433  0.0488 -0.0830
 2558W        W17689   4.130   6.755   0.999  0.2401  0.3969  0.3299
 2559W        W17690   1.638   7.218  14.968  0.3642 -0.0109  0.0456
 2560W        W17691  16.788  17.080  12.476  0.1192  0.1250  0.0265
 2561W        W17692  12.952  17.378  15.400  0.2457 -0.0298  0.0225
 2562W        W17693   9.820  10.568  15.579 -0.1980  0.0974  0.1329
 2563W        W17694  14.118  13.139  15.450 -0.0488 -0.0911 -0.0310
 2564W        W17695  15.101  11.413  15.837 -0.1625 -0.3755  0.1137
 2565W        W17696  15.616  16.283  11.171 -0.0273 -0.0458  0.2566
 2566W        W17697  17.316   4.974  12.364  0.0969 -0.1496 -0.1658
 2567W        W17698   7.633   3.148   1.106  0.1948 -0.4388  0.0091
 2568W        W17699   5.113   7.169  13.319 -0.0716  0.0485  0.1547
 2569W        W17700   7.220   5.835   2.199 -0.0871  0.1976  0.0677
 2570W        W17701   8.480  15.626   0.237  0.2072  0.1719  0.1835
 2571W        W17702  16.069  11.961   0.594  0.0593  0.2425  0.0675
 2572W        W17703  18.052   1.300   0.431  0.2616 -0.1383 -0.0068
 2573W        W17704  14.492  11.190  11.249 -0.0131 -0.0849  0.0477
 2574W        W17705   2.106  12.166  12.680 -0.2138 -0.2792  0.0527
 2575W        W17706   5.261   0.932  12.839 -0.2854 -0.4468  0.1190
 2576W        W17707   7.100  11.236  12.025 -0.0025 -0.2098  0.0692
 2577W        W17708   2.581   0.409  13.358 -0.2492 -0.2627 -0.1128
 2578W        W17709   5.739   4.746   2.240  0.2497  0.1527 -0.1749
 2579W        W17710   4.935   4.320   0.737 -0.1084  0.0693 -0.1470
 2580W        W17711   0.375  16.652   3.038  0.0144  0.1312 -0.2917
 2581W        W17712  11.698  16.331  11.235 -0.0021  0.1733  0.0871
 2582W        W17713   4.972   0.563  12.893  0.1802  0.1314 -0.1171
 2583W        W17714  16.644   0.038   1.746 -0.2377 -0.1281  0.1267
 2584W        W17715  11.854  14.143   0.016 -0.1407 -0.1403  0.3069
 2585W        W17716  17.320   2.652  10.525 -0.1936 -0.0452  0.2898
 2586W        W17717   0.673   4.880   6.064 -0.0356 -0.1190 -0.0500
 2587W        W17718  16.756   1.326   3.411 -0.0372  0.0742 -0.1640
 2588W        W17719  17.319  13.201   5.043 -0.3149 -0.1017  0.0607
 2589W        W17720  14.823   7.459  15.205 -0.3056  0.0092 -0.0282
 2590W        W17721   2.491   0.069  14.330 -0.0084 -0.2253  0.0473
 2591W        W17722  17.674   8.163  11.822  0.0671 -0.0830 -0.2236
 2592W        W17723  13.759  10.642   1.884  0.0257  0.2988 -0.1585
 2593W        W17724   9.970  10.680   1.484 -0.2433 -0.2580 -0.0047
 2594W        W17725  16.095   8.957   3.437  0.0652 -0.2497  0.0663
 2595W        W17726   2.775   4.199   4.170 -0.2094  0.0297  0.4360
 2596W        W17727   9.569  15.754   1.152  0.0750 -0.2574 -0.0117
 2597W        W17728  16.344   8.646   0.919  0.0232 -0.0731  0.0436
 2598W        W17729   0.192   5.537  14.955 -0.4971 -0.0354 -0.0848
 2599W        W17730   9.047  18.373  12.537  0.1825  0.0799  0.0259
 2600W        W17731  10.195   2.232  13.691  0.2060 -0.2102  0.1153
 2601W        W17732  15.356  17.217  15.511  0.2739  0.2069  0.1890
 2602W        W17733   6.759   0.483  15.309  0.1937 -0.5019  0.1021
 2603W        W17734   2.713   3.561   6.306  0.0548  0.2751  0.0565
 2604W        W17735  10.158   7.448  14.659  0.0015 -0.0177  0.0447
 2605W        W17736  17.284  17.790  11.785 -0.1015  0.0449 -0.5567
 2606W        W17737  13.467  17.968   3.755  0.1185  0.2074 -0.0559
 2607W        W17738  13.967  12.595  13.784  0.1031  0.0854 -0.0594
 2608W        W17739  18.356  11.588  13.517 -0.0057 -0.1705  0.2380
 2609W        W17740   3.311  14.238   2.665  0.2835 -0.1915 -0.3006
 2610W        W17741   3.466  18.470  12.191 -0.4376 -0.1332 -0.4646
 2611W        W17742   5.306   1.032  11.059 -0.0621 -0.4247 -0.1959
 2612W        W17743  11.372   5.892   3.229 -0.2742 -0.4081 -0.0322
 2613W        W17744   8.815  16.519  13.422  0.1488  0.0267  0.2883
 2614W        W17745  16.064   7.475   4.246 -0.2669  0.1615  0.0125
 2615W        W17746  10.452   3.737   4.955 -0.4925 -0.1350  0.0724
 2616W        W17747   1.023  15.641   5.755  0.1422 -0.1511  0.1621
 2617W        W17748   3.373  17.604  15.701  0.1794  0.0040 -0.3381
 2618W        W17749  14.387  13.127   2.281  0.3944 -0.2470 -0.0386
 2619W        W17750  14.183   9.865  11.175  0.3766 -0.2655 -0.0381
 2620W        W17751   3.386  10.996  15.380  0.5053 -0.1202 -0.2280
 2621W        W17752   0.897  16.586  15.646  0.0043 -0.0684 -0.0692
 2622W        W17753  15.131  12.288   4.858  0.1369  0.0659  0.0940
 2623W        W17754   2.417   5.929   3.929 -0.1962  0.1129 -0.2456
 2624W        W17755  15.617   9.048   3.537  0.2782  0.2479  0.0288
 2625W        W17756  18.504  10.587   3.432  0.3077 -0.2162  0.0335
 2626W        W17757   1.713  10.042  11.874  0.1128  0.1198  0.2732
 2627W        W17758   4.881   2.313   9.781 -0.1759 -0.3611  0.0539
 2628W        W17759  12.247  12.519   5.300  0.1071  0.0670 -0.2896
 2629W        W17760  15.497   7.068  12.715  0.2147 -0.0646  0.2045
 2630W        W17761  15.473   5.968  13.648 -0.1270 -0.0649  0.1326
 2631W        W17762   1.561   7.125   4.630  0.1357 -0.0468 -0.4258
 2632W        W17763   7.824   4.502  15.835 -0.0592 -0.0391  0.0125
 2633W        W17764   5.967  14.566   0.639  0.3309  0.0678  0.2848
 2634W        W17765   2.263  11.496   0.663  0.1824  0.2653 -0.0872
 2635W        W17766  14.722   4.072  15.230 -0.2057  0.1700  0.3502
 2636W        W17767  17.931   7.635   5.126  0.2959 -0.0793 -0.0704
 2637W        W17768   0.101  10.555   1.467 -0.0546 -0.1022 -0.1814
 2638W        W17769  18.568   2.650   6.535 -0.1689  0.2331  0.3523
 2639W        W17770  12.831  14.632  10.809  0.1175  0.1029 -0.2536
 2640W        W17771   4.868  17.641  14.883 -0.2208 -0.1585 -0.2295
 2641W        W17772  17.366  16.948   3.672  0.1543  0.0593 -0.0820
 2642W        W17773   6.962   0.253  14.675  0.3397 -0.1536 -0.0653
 2643W        W17774   4.780  15.976   4.752 -0.3149 -0.4395  0.0715
 2644W        W17775   4.889   3.948   2.863  0.0139  0.3344 -0.0354
 2645W        W17776   3.292   1.600  11.047  0.1241  0.1251  0.1644
 2646W        W17777  16.608   9.239   1.992 -0.1696  0.0730 -0.5578
 2647W        W17778  11.180   9.337  13.488  0.1283 -0.1394  0.2954
 2648W        W17779  13.685   6.277  13.472 -0.3173  0.2207 -0.0585
 2649W        W17780  18.347  12.235   3.918  0.1997 -0.1123 -0.2168
 2650W        W17781   2.917   7.303   4.182 -0.0200 -0.3796 -0.1222
 2651W        W17782  17.596  12.626   1.660  0.0862  0.0724 -0.0740
 2652W        W17783  14.694   7.621   6.152 -0.3151  0.0982  0.0222
 2653W        W17784   6.679   7.466   4.239  0.3288  0.0702  0.2683
 2654W        W17785  12.165  18.351   2.628  0.1903 -0.0904  0.0960
 2655W        W17786  12.545  15.588  12.643 -0.3741  0.1824 -0.0057
 2656W        W17787   9.418   8.179   5.414  0.1571  0.1292  0.0800
 2657W        W17788   8.580  14.286   1.382 -0.0790 -0.0617 -0.0345
 2658W        W17789   2.873  15.529   2.895 -0.0528 -0.0314  0.1551
 2659W        W17790   7.441   4.021  14.387  0.1422 -0.1578 -0.0189
 2660W        W17791  14.629   6.851  11.543 -0.1119  0.0998  0.0236
 2661W        W17792  15.427   8.072   2.063 -0.1555 -0.0269 -0.1316
 2662W        W17793   8.350   3.691   6.081  0.3438 -0.1220  0.3273
 2663W        W17794  12.072  15.641  12.965  0.1593  0.1993  0.1929
 2664W        W17795  11.785   8.693   0.578  0.1060  0.0213 -0.0530
 2665W        W17796   8.137  12.583   2.789  0.0710  0.0237 -0.0148
 2666W        W17797  17.782  16.289  14.897 -0.4601  0.0714  0.1111
 2667W        W17798   0.359  12.993  15.101 -0.1775 -0.1851  0.1102
 2668W        W17799   6.807   3.507   5.979 -0.2852  0.2638 -0.1390
 2669W        W17800  17.191   1.842   0.415  0.4178 -0.2305 -0.0353
 2670W        W17801  11.178   3.353  14.044  0.1091 -0.2357  0.1542
 2671W        W17802   1.583   6.102  15.569  0.1570  0.0625 -0.1027
 2672W        W17803  14.395   1.173   3.595 -0.0407  0.3017  0.2858
 2673W        W17804   5.529  16.156  15.886  0.1355 -0.1010 -0.1589
 2674W        W17805  18.361   4.053   3.504  0.1109 -0.2416 -0.3705
 2675W        W17806  14.897   3.652  15.825  0.0794  0.1317  0.0911
 2676W        W17807   2.574   8.444   2.781 -0.1232  0.1763 -0.0406
 2677W        W17808   9.206  16.794   1.872 -0.0472 -0.2473  0.0346
 2678W        W17809   3.136  11.801   0.703  0.0677 -0.1282  0.4989
 2679W        W17810  17.313  16.829  13.306 -0.3259 -0.0528 -0.1281
 2680W        W17811  17.868   0.825  15.522  0.2179 -0.1730  0.2605
 2681W        W17812  16.809   5.333   0.973 -0.1289 -0.0626 -0.3399
 2682W        W17813   2.776  10.413  15.575  0.1160 -0.2014 -0.0737
 2683W        W17814  14.519  15.742  15.948 -0.2562  0.3111 -0.1882
 2684W        W17815  16.154   4.514   6.245  0.0310 -0.1841  0.0879
 2685W        W17816  10.636  11.670  14.466 -0.3123 -0.1638 -0.0876
 2686W        W17817  11.147   1.050   2.593  0.1645 -0.2813  0.1269
 2687W        W17818   7.307   6.744   3.947 -0.2207  0.0141  0.0162
 2688W        W17819   6.981   8.774   3.088  0.0681 -0.0637  0.2029
 2689W        W17820  11.587   2.982   0.669  0.0089  0.0085 -0.1988
 2690W        W17821  12.764  10.041   0.899 -0.2585  0.4866  0.0409
 2691W        W17822  17.364  11.956   0.596  0.0885  0.1825 -0.1694
 2692W        W17823   1.746  14.992   3.212 -0.1951  0.1808  0.1423
 2693W        W17824   3.995   3.377  15.335 -0.0334  0.1577  0.1734
 2694W        W17825   4.696   1.391  15.462  0.1620  0.0743  0.2114
 2695W        W17826   8.892   5.631  15.075 -0.0044  0.0097 -0.3259
 2696W        W17827   1.898   4.205  11.158 -0.1559  0.1457  0.0655
 2697W        W17828  16.248   7.293   3.550 -0.0520 -0.0109  0.0470
 2698W        W17829   4.361   7.250  10.611  0.2428 -0.2553  0.2061
 2699W        W17830  10.643   4.642   0.850 -0.0063  0.1019  0.0478
 2700W        W17831   1.764  17.554   3.302  0.0650 -0.0757  0.0555
 2701W        W17832  13.545  12.546   9.805  0.0928  0.0156 -0.1792
 2702W        W17833   1.345   9.176   2.550  0.1046  0.0483  0.1192
 2703W        W17834   3.067   0.188   1.294  0.1110  0.0871  0.0207
 2704W        W17835  10.783   5.897  13.438 -0.0778  0.4648 -0.2030
 2705W        W17836   7.677  13.749   5.010 -0.1643 -0.1813  0.0455
 2706W        W17837  17.172  10.786  13.607 -0.2040 -0.3161  0.0190
 2707W        W17838   2.065  16.782   2.599  0.1790  0.2268  0.1390
 2708W        W17839   6.778   8.624   0.230 -0.1002  0.0403  0.2492
 2709W        W17840  17.698   5.411   4.793 -0.4713  0.4583  0.2594
 2710W        W17841   6.895  14.375  13.337 -0.0457 -0.0067  0.1026
 2711W        W17842  10.403   2.851  13.532  0.0751  0.2071  0.0834
 2712W        W17843   8.271  16.595  14.340 -0.2395  0.2218  0.0034
 2713W        W17844   7.352   5.113  11.403 -0.0776  0.1691  0.0747
 2714W        W17845  16.011   5.611   0.901  0.1132  0.0336 -0.0610
 2715W        W17846  17.614   9.031   1.152 -0.1861 -0.3113 -0.2339
 2716W        W17847   3.066   1.651  12.770  0.0052 -0.5177  0.3047
 2717W        W17848  12.075   7.453   2.969  0.0762 -0.0138  0.1818
 2718W        W17849  16.695  13.864  15.007  0.0384 -0.0529 -0.2460
 2719W        W17850   8.315  18.374   4.881  0.1618  0.2402 -0.1034
 2720W        W17851  14.867  14.177  10.885  0.0107 -0.0322 -0.1218
 2721W        W17852   5.031  14.711   3.980  0.0130  0.0641 -0.1673
 2722W        W17853  13.553   3.651  13.869  0.0111  0.1163  0.1071
 2723W        W17854   0.956  15.240   4.339 -0.0339 -0.2108  0.1823
 2724W        W17855   2.435  11.051   4.452 -0.3803  0.2664  0.1576
 2725W        W17856   6.703  11.132  10.990 -0.2011  0.2576  0.0560
 2726W        W17857   4.733   1.518  14.434 -0.3744 -0.3157 -0.0045
 2727W        W17858   0.717   3.883   0.471  0.2603 -0.1152  0.1718
 2728W        W17859   8.747   2.596   2.367 -0.2027 -0.0420  0.1510
 2729W        W17860   2.562   7.035   5.281  0.0639 -0.1738 -0.0064
 2730W        W17861  14.988   1.193   4.033  0.4700  0.0571  0.0259
 2731W        W17862   4.552   3.382   0.441  0.3370  0.0563 -0.1538
 2732W        W17863  16.067  12.619  13.889 -0.2941 -0.4251  0.0952
 2733W        W17864  10.428  13.824   2.055 -0.3433 -0.0960  0.0577
 2734W        W17865   2.437   6.526  11.966 -0.1489  0.2021  0.3438
 2735W        W17866   1.481  13.791   0.939 -0.0746 -0.0331  0.4141
 2736W        W17867  14.315  16.777   0.277  0.0059  0.0064  0.0970
 2737W        W17868  10.780   8.980  13.415  0.0905  0.0037 -0.4319
 2738W        W17869   3.334   7.538  11.598 -0.1777 -0.2120 -0.2534
 2739W        W17870  18.566   1.980  12.242 -0.1049 -0.0857  0.1319
 2740W        W17871  17.780   2.890   5.820 -0.0055 -0.4275 -0.0278
 2741W        W17872   0.784  14.221   4.234  0.0474  0.0001 -0.1773
 2742W        W17873  16.926  14.098  10.916  0.2321 -0.1222  0.0989
 2743W        W17874   0.928   9.048  15.407  0.0026 -0.0228  0.1066
 2744W        W17875   3.891  14.430   0.561 -0.3398 -0.0900  0.1692
 2745W        W17876  11.411  13.011   1.423 -0.0697  0.2366 -0.0738
 2746W        W17877  10.474   9.349  10.302  0.2865 -0.1098 -0.2365
 2747W        W17878   3.722   6.147   0.913 -0.4104  0.2936  0.3157
 2748W        W17879  18.540   8.514   1.648 -0.1642 -0.0372 -0.0510
 2749W        W17880  17.988   3.003  15.226 -0.2394  0.0877  0.1209
 2750W        W17881   0.940  13.817   3.739  0.0186  0.0360 -0.1990
 2751W        W17882   2.284   8.800   1.988 -0.0740 -0.0813 -0.1897
 2752W        W17883   4.295  10.932   2.927 -0.0247 -0.1003  0.0887
 2753W        W17884   7.498  15.670   1.112  0.0971 -0.0822  0.0232
 2754W        W17885   5.614  17.399  15.206  0.2378  0.5639  0.0985
 2755W        W17886   2.351  16.676   3.463 -0.0986  0.1167 -0.3927
 2756W        W17887   9.813   7.834   2.727  0.3747  0.0050 -0.0598
 2757W        W17888   3.573   4.529   2.989 -0.0976  0.1741 -0.0654
 2758W        W17889   6.457  18.458   0.895  0.1796  0.2093 -0.0898
 2759W        W17890   9.474   2.264   1.346 -0.2782  0.3213  0.0568
 2760W        W17891   1.816   6.948  15.573 -0.1002  0.1480  0.3611
 2761W        W17892  17.761   0.509   2.715 -0.0764  0.0043  0.1010
 2762W        W17893   0.112   8.597  15.452  0.1391 -0.0297 -0.0438
 2763W        W17894   0.848  12.569  13.529  0.0374 -0.3128 -0.1029
 2764W        W17895   5.969  15.113  12.961  0.1644  0.2162 -0.0091
 2765W        W17896  10.310   0.403   2.505 -0.2281 -0.5468 -0.1740
 2766W        W17897   9.629   6.114   4.377 -0.0205  0.0222  0.2543
 2767W        W17898   7.055  15.286  13.363  0.2363 -0.2450 -0.1783
 2768W        W17899   2.953   4.335  13.352  0.1190 -0.2834 -0.0623
 2769W        W17900   0.370  18.263  13.640  0.3058 -0.2797  0.2550
 2770W        W17901   5.443  12.408  13.658  0.0726  0.1999 -0.2377
 2771W        W17902  13.039  13.361   0.595  0.1596 -0.0456 -0.1246
 2772W        W17903   2.229   8.356  14.904 -0.2808  0.0509 -0.0786
 2773W        W17904   8.951   3.948   1.128 -0.1150  0.0697  0.0952
 2774W        W17905   3.108   0.980   3.489  0.0605 -0.1060  0.0573
 2775W        W17906  18.251   4.881  13.459  0.0948  0.0825 -0.2307
 2776W        W17907   0.511  11.230   0.171  0.3457 -0.1651  0.1058
 2777W        W17908  17.095   4.844   6.058 -0.1407 -0.1576  0.1430
 2778W        W17909  10.171   0.611   0.578 -0.2206 -0.0241 -0.0141
 2779W        W17910  15.931   6.070   0.690  0.0341 -0.0031  0.2035
 2780W        W17911   4.016  15.839  12.269 -0.2159  0.0485  0.2429
 2781W        W17912   9.234   0.770   1.929 -0.1474  0.0057  0.4068
 2782W        W17913   5.859  17.580   3.020 -0.1349  0.3097  0.3714
 2783W        W17914  16.081  16.172   4.507 -0.3484 -0.4500 -0.1371
 2784W        W17915   9.039  12.691   2.041 -0.3153 -0.0968  0.1679
 2785W        W17916   2.210   8.843  13.916 -0.1400  0.1244 -0.1627
 2786W        W17917  15.751   2.842   3.653  0.1198  0.2234 -0.0370
 2787W        W17918   2.815   1.965   3.928  0.0164  0.1302  0.0796
 2788W        W17919  10.058  17.063  12.090 -0.0746  0.1931 -0.0281
 2789W        W17920   4.451  14.423  11.189 -0.2700  0.4170  0.2393
 2790W        W17921  10.489  14.678   1.772  0.2572  0.0817  0.3363
 2791W        W17922  18.501  10.116   2.965  0.2685  0.2835  0.0402
 2792W        W17923  17.545  16.714   2.523 -0.0007  0.1954  0.1230
 2793W        W17924  12.810   5.469   3.583 -0.0114  0.1598 -0.1684
 2794W        W17925  15.725   5.146   0.249 -0.3776 -0.2140 -0.1443
 2795W        W17926   5.454   1.452   5.248 -0.2937 -0.0749  0.0292
 2796W        W17927  11.528  12.848  15.889 -0.0518 -0.2872 -0.2418
 2797W        W17928   6.212  11.964   2.804  0.0640 -0.0910 -0.0513
 2798W        W17929   2.882  11.512  14.697 -0.0757  0.2459 -0.1026
 2799W        W17930   5.510  14.834   3.813 -0.3406 -0.0293  0.0404
 2800W        W17931   3.964   4.050   5.149 -0.2482 -0.4440  0.1257
 2801W        W17932   7.852   7.770   3.181 -0.0741  0.0050 -0.3194
 2802W        W17933  13.728   7.090   2.321 -0.2814 -0.0806 -0.0010
 2803W        W17934  11.920   5.040  11.362  0.1979 -0.4177  0.5239
 2804W        W17935   0.070  17.943   4.597 -0.1323 -0.1656  0.0236
 2805W        W17936  15.240   2.080  15.281 -0.2661 -0.4218  0.2428
 2806W        W17937   0.309   2.126   1.182 -0.5918 -0.0591  0.2768
 2807W        W17938  17.418   6.057   1.983 -0.0600 -0.2861  0.0927
 2808W        W17939  16.226   3.039  12.782 -0.1041 -0.0648  0.0589
 2809W        W17940  18.177   9.760  13.396  0.1661  0.0310 -0.1354
 2810W        W17941   4.136  10.449  13.025 -0.0579 -0.1167 -0.0625
 2811W        W17942   3.054   7.321  13.831  0.2114 -0.0655  0.1592
 2812W        W17943   1.376   1.197   2.730  0.0820 -0.4450  0.2989
 2813W        W17944  13.909  15.552   0.636  0.1047 -0.0143  0.0959
 2814W        W17945   2.377   1.589   5.647  0.2165 -0.1585 -0.1604
 2815W        W17946  13.809  16.062  11.956 -0.0004 -0.1865 -0.0373
 2816W        W17947  11.788  10.439   2.168  0.1491 -0.0151 -0.0899
 2817W        W17948   2.772   1.273   0.742  0.0539 -0.1088  0.0036
 2818W        W17949  15.750   2.723  13.693 -0.1523 -0.2841  0.1857
 2819W        W17950  15.809  14.752   2.337  0.0186 -0.3501  0.3693
 2820W        W17951  10.100  13.613  13.041  0.2843 -0.0479  0.2866
 2821W        W17952   5.438  11.135   4.833 -0.1620  0.1280  0.4543
 2822W        W17953   4.962   3.618   4.965  0.4759  0.2462 -0.1956
 2823W        W17954   3.165  10.126   9.996  0.1277 -0.0803 -0.1639
 2824W        W17955   1.078  15.281   0.071  0.2247  0.0145 -0.0861
 2825W        W17956  11.487   4.747  15.650 -0.3298  0.1008 -0.1221
 2826W        W17957   7.074  18.256  14.785  0.2455 -0.0413 -0.1411
 2827W        W17958   4.814   6.154   4.799 -0.1377  0.2877 -0.0678
 2828W        W17959  11.846  11.297   4.478 -0.0810 -0.0558  0.0377
 2829W        W17960   4.600  10.158  14.812  0.0720 -0.1470  0.1748
 2830W        W17961   0.736  13.824  15.716 -0.3235  0.1086 -0.1940
 2831W        W17962   7.257  14.135  15.264  0.2586  0.1949 -0.0783
 2832W        W17963   2.412   6.607   2.525 -0.2004 -0.0328 -0.0617
 2833W        W17964   7.176  10.457   0.049 -0.4409 -0.1471 -0.2556
 2834W        W17965  16.704  15.112   2.578  0.2098  0.0711  0.1703
 2835W        W17966   5.830   0.854   3.093 -0.3741  0.1608 -0.2195
 2836W        W17967  16.296  15.626  12.379 -0.1067  0.3147  0.0351
 2837W        W17968  16.100   8.729   4.392 -0.1760 -0.1617  0.3935
 2838W        W17969   1.348  16.285  13.209 -0.0430 -0.3661  0.0517
 2839W        W17970   6.121   6.644   1.266 -0.0052 -0.1058  0.0246
 2840W        W17971   3.497  14.175   0.317 -0.1938 -0.2951  0.2922
 2841W        W17972   1.305  16.561   3.804  0.0297  0.2733  0.1948
 2842W        W17973  11.040   1.340   5.479  0.0430  0.0145  0.0687
 2843W        W17974  11.889  17.652  15.320  0.3298  0.0037 -0.0354
 2844W        W17975  12.252  13.304   1.612 -0.0228  0.0095  0.3230
 2845W        W17976  17.455  13.289  14.889  0.3037 -0.2207 -0.0484
 2846W        W17977  13.419   6.580  13.862  0.1161  0.2195 -0.0707
 2847W        W17978   9.840   9.490   2.527  0.0171 -0.0090  0.0580
 2848W        W17979   6.659   9.230  12.998  0.0139 -0.1991 -0.0174
 2849W        W17980   8.833   8.543   0.694  0.1589 -0.0860  0.1534
 2850W        W17981  13.465  18.229  10.815  0.3512 -0.2192  0.0318
 2851W        W17982  13.907   8.482   4.545 -0.1640 -0.1750 -0.4892
 2852W        W17983   5.913   3.596  13.925  0.0442  0.0663  0.1212
 2853W        W17984  15.902  16.856   1.451  0.0019  0.2437  0.1907
 2854W        W17985   8.557   5.865  10.865 -0.1308 -0.1178 -0.1000
 2855W        W17986  10.230   5.458  13.834  0.2023 -0.1033  0.1235
 2856W        W17987  10.448  14.058  11.042 -0.0962  0.0428 -0.0010
 2857W        W17988  16.600   1.133   0.205 -0.1150  0.0026  0.1054
 2858W        W17989  16.325   6.300  13.917  0.0973  0.0229  0.2265
 2859W        W17990  18.045  14.878  14.223 -0.1134 -0.2227 -0.4476
 2860W        W17991  16.151  17.634   1.140 -0.3888 -0.1507 -0.0621
 2861W        W17992  13.009   2.903  11.633 -0.0514 -0.0421  0.0508
 2862W        W17993   5.398  10.336   0.017  0.0216 -0.1456  0.2146
 2863W        W17994  14.619  12.656   2.123 -0.1833 -0.0390 -0.3927
 2864W        W17995   0.488   5.535   3.864  0.0598 -0.1307 -0.0416
 2865W        W17996   3.137  10.575   2.023  0.0636 -0.2034  0.3491
 2866W        W17997   2.947   1.291  14.741 -0.1072 -0.1740 -0.0501
 2867W        W17998   7.167   8.762   1.943  0.0118  0.0760  0.5371
 2868W        W17999   7.308  17.725   1.603 -0.0598  0.2851 -0.1038
 2869W        W18000  14.212  14.058   3.915  0.0263  0.0230  0.0265
 2870W        W18001   1.349   4.165   1.935 -0.0943  0.0849 -0.0963
 2871W        W18002  17.448   4.081   0.317 -0.0384 -0.1816  0.2189
 2872W        W18003  15.246   9.025   5.837  0.0303 -0.2385  0.1395
 2873W        W18004  12.166   5.461  15.332 -0.0477  0.1313 -0.1358
 2874W        W18005  16.936  17.256  14.185  0.0506  0.0699  0.2632
 2875W        W18006  10.599   9.568  14.175 -0.0526  0.0634  0.3009
 2876W        W18007   7.006   9.651  11.270 -0.1274 -0.0416 -0.0930
 2877W        W18008  12.600   5.056   3.702  0.0648 -0.1532  0.2527
 2878W        W18009   8.225  16.939   2.984  0.3831  0.0034 -0.1173
 2879W        W18010  17.172   0.776   4.033 -0.2169  0.0823  0.2192
 2880W        W18011   5.828   6.181   3.334  0.2147 -0.1330 -0.1893
 2881W        W18012   0.949   0.779  14.760  0.1563  0.0808 -0.4463
 2882W        W18013   5.810  16.985  14.996  0.2649  0.1773  0.1017
 2883W        W18014   4.086  14.164  15.045 -0.1004 -0.1165 -0.0301
 2884W        W18015  13.207  16.107   4.380  0.0541  0.0362 -0.0080
 2885W        W18016   0.753   4.339   3.371  0.0368  0.2112  0.0533
 2886W        W18017  12.958  15.804   4.072  0.0336 -0.3437 -0.0993
 2887W        W18018  11.967   5.025  15.305  0.1632  0.1307  0.3715
 2888W        W18019  10.172   0.444   3.284  0.0834  0.3797 -0.2123
 2889W        W18020   6.743  10.204  13.771 -0.0333 -0.0979  0.1088
 2890W        W18021   6.845   0.388  11.470  0.2183  0.1221  0.0924
 2891W        W18022   1.407   2.694   4.910  0.0565  0.2099  0.0016
 2892W        W18023   7.298  11.529  14.339 -0.1753  0.2335 -0.0311
 2893W        W18024  14.735  18.220   0.519  0.1039 -0.4490 -0.0410
 2894W        W18025  17.205   5.199   5.477  0.1652  0.1396 -0.1240
 2895W        W18026   5.372   5.349   3.009  0.3052 -0.1711  0.0139
 2896W        W18027   5.015   9.521  13.929 -0.1204  0.2767 -0.1686
 2897W        W18028   7.878  14.749  13.265  0.1701  0.2185  0.0611
 2898W        W18029   5.253   3.702   3.111 -0.0535  0.2154 -0.0145
 2899W        W18030  14.344   0.317   4.109  0.1676  0.1538  0.1320
 2900W        W18031   2.401  10.359  10.942  0.2124  0.4411  0.1582
 2901W        W18032   3.795  17.867   5.237 -0.3142  0.3969 -0.3457
 2902W        W18033  11.126  10.109   5.629 -0.3672  0.3873  0.0091
 2903W        W18034   6.408   6.475  13.421 -0.0767  0.0701  0.0176
 2904W        W18035   1.946   6.075  12.647  0.1881  0.1673 -0.0061
 2905W        W18036  13.774   3.453   2.232 -0.0188  0.3691 -0.1301
 2906W        W18037   2.700  14.295   1.440 -0.2793 -0.1517 -0.0151
 2907W        W18038  17.952  17.298   5.821 -0.3119  0.1828 -0.0477
 2908W        W18039   1.882  10.246   5.764 -0.0943  0.1070  0.0743
 2909W        W18040   4.726   3.738  15.825 -0.3240 -0.1439  0.0165
 2910W        W18041  12.621  13.537  15.787 -0.2780  0.0468 -0.1482
 2911W        W18042  13.361  15.784   2.568 -0.0349 -0.0389  0.1660
 2912W        W18043  17.192  13.173   2.477 -0.1122 -0.2049 -0.2232
 2913W        W18044  17.819  10.601  15.743 -0.1625 -0.0134 -0.2790
 2914W        W18045  18.305   5.539   5.025  0.1402  0.2178  0.0854
 2915W        W18046   5.382  16.995  12.004  0.1608  0.2560 -0.0575
 2916W        W18047   3.581  10.832   3.705 -0.2156 -0.1711  0.1910
 2917W        W18048  11.736   7.131  13.482 -0.1734  0.3494 -0.2645
 2918W        W18049  15.394  17.512   5.024 -0.3129  0.2672 -0.0976
 2919W        W18050  15.266   0.292  11.803  0.0788  0.0010 -0.0293
 2920W        W18051   6.041  15.872   1.333 -0.1242  0.3290  0.0251
 2921W        W18052  10.592  14.824   3.064  0.1167  0.2186 -0.1220
 2922W        W18053   2.965  17.920  13.988 -0.0659  0.2696 -0.1631
 2923W        W18054  14.738   8.016  14.535 -0.4860 -0.0249 -0.0845
 2924W        W18055   3.380   1.677   4.512  0.1583  0.0042  0.1174
 2925W        W18056   2.124   8.341  15.395 -0.0953  0.0479 -0.2218
 2926W        W18057  12.429   6.729   2.170  0.2100 -0.3584 -0.0260
 2927W        W18058  16.783   6.052   4.422 -0.2452  0.0941  0.0730
 2928W        W18059   2.594   9.802   2.337  0.0897  0.2303  0.0809
 2929W        W18060  14.560   5.780  15.650 -0.0789  0.2271 -0.0505
 2930W        W18061   0.445  13.281   3.478 -0.1924  0.0681 -0.0851
 2931W        W18062  13.078  13.505  10.975 -0.0089 -0.0169  0.0087
 2932W        W18063   2.240  18.351  13.927 -0.2217 -0.0177 -0.3096
 2933W        W18064   2.696  17.867  11.437  0.1265 -0.1608 -0.1794
 2934W        W18065  13.130   9.175   2.859  0.1980  0.0188 -0.1000
 2935W        W18066  10.436   3.732   2.598 -0.0492  0.2458  0.0586
 2936W        W18067   4.122  12.219   1.646  0.1597 -0.3171  0.0582
 2937W        W18068   7.425   2.400   3.844 -0.2166  0.0360 -0.2483
 2938W        W18069   9.983  16.794   2.476 -0.0523 -0.0564  0.0641
 2939W        W18070   7.694  16.109   3.884  0.1628 -0.2337 -0.0133
 2940W        W18071   6.418   3.689  14.144 -0.1309 -0.0827  0.2810
 2941W        W18072   4.759   4.823   2.355  0.0853 -0.2869 -0.1882
 2942W        W18073   4.165  16.704   0.482 -0.1960  0.2433  0.1223
 2943W        W18074   5.150  10.116   0.942 -0.2748  0.3144 -0.0647
 2944W        W18075   4.702   3.493   3.076  0.0076  0.1886  0.2220
 2945W        W18076   9.820   9.969   0.691 -0.3168 -0.0916  0.3744
 2946W        W18077   5.377   4.358  11.181  0.0308 -0.1522 -0.0105
 2947W        W18078  18.270   6.212   4.208  0.0230 -0.0292  0.0813
 2948W        W18079   8.141  15.315  10.982 -0.0939  0.1187 -0.2581
 2949W        W18080  10.594  11.800   1.857  0.1121 -0.3690  0.0380
 2950W        W18081   0.733   7.499   5.029  0.0063  0.0509  0.0986
 2951W        W18082  12.896   7.971  13.897  0.2503 -0.2002 -0.2449
 2952W        W18083  18.462  16.045   3.299 -0.2197  0.1911 -0.1734
 2953W        W18084   1.557  15.663   5.013 -0.3999  0.0219 -0.0639
 2954W        W18085  10.746   2.317  10.859 -0.1596  0.0338 -0.0714
 2955W        W18086   1.115  18.131  13.306  0.3836  0.1977 -0.0374
 2956W        W18087   0.541   3.953   1.294 -0.0143 -0.0738 -0.0781
 2957W        W18088   4.131   8.002   0.516  0.1709 -0.1177  0.2062
 2958W        W18089   4.201  16.396  12.253  0.2268 -0.0609  0.2510
 2959W        W18090  17.901  17.993   2.348 -0.1856  0.1537  0.0300
 2960W        W18091  17.062   6.437   5.503 -0.5422  0.0151 -0.0790
 2961W        W18092   9.419   3.912   4.842 -0.3215 -0.1266  0.0798
 2962W        W18093   9.838   5.725   2.468  0.4319  0.1573  0.3109
 2963W        W18094   8.530   6.322  12.350 -0.0044  0.3550  0.1849
 2964W        W18095  17.079   2.401   2.775  0.0083 -0.0063  0.0935
 2965W        W18096  13.496   9.298  14.477  0.1183  0.1509 -0.2751
 2966W        W18097  15.532   0.915  15.821 -0.2641 -0.0248  0.0266
 2967W        W18098   7.783   6.344  11.705 -0.0732  0.1480 -0.1153
 2968W        W18099   2.617   7.442  12.236 -0.1357  0.2712 -0.0533
 2969W        W18100   8.067   8.315   1.867  0.0018  0.2799 -0.0569
 2970W        W18101   6.425   4.455  10.484  0.1406  0.1863 -0.1867
 2971W        W18102   6.465  13.121  11.271 -0.0819 -0.0227 -0.2369
 2972W        W18103  15.516   4.908   5.388 -0.0671 -0.1405 -0.2767
 2973W        W18104   5.105  17.365   2.339 -0.0169  0.3795 -0.1301
 2974W        W18105   2.353   1.417  15.377  0.0406  0.1432  0.1706
 2975W        W18106  12.804   5.307  11.554 -0.2213  0.2577  0.2466
 2976W        W18107   6.074  10.790   4.299  0.1739 -0.2967 -0.0665
 2977W        W18108   3.002  14.048   1.032 -0.2372 -0.1541 -0.2189
 2978W        W18109   7.787  15.813  13.164  0.2267  0.1559 -0.0609
 2979W        W18110  17.185  10.465   0.754 -0.1334  0.1951  0.2034
 2980W        W18111   3.237  18.535   0.685  0.0548 -0.0634  0.1724
 2981W        W18112   4.148  13.430  11.976 -0.1910  0.0319 -0.2102
 2982W        W18113  14.693  10.195  11.701 -0.0989 -0.1187 -0.0231
 2983W        W18114   0.826   4.181  12.686 -0.2907 -0.2765  0.0913
 2984W        W18115   3.230  17.797   0.175 -0.0044 -0.2424  0.1407
 2985W        W18116  14.054   2.399   3.767 -0.1067 -0.1688 -0.2868
 2986W        W18117  10.649   2.907  14.740 -0.1007 -0.0144  0.2118
 2987W        W18118   5.311   9.684  15.673  0.2684 -0.0542  0.0341
 2988W        W18119  12.751   4.749  11.785  0.3723 -0.1433  0.0476
 2989W        W18120  18.431   8.227   2.108 -0.0657 -0.0274  0.2018
 2990W        W18121   5.308  16.908  13.008  0.0429  0.2573 -0.0101
 2991W        W18122  18.147   8.169  14.880  0.2560 -0.1190  0.3175
 2992W        W18123  12.223   4.288   0.056  0.0682  0.0097  0.0356
 2993W        W18124   9.755  16.215   1.928 -0.0237  0.1813 -0.2258
 2994W        W18125   8.247   3.496  14.430 -0.1130 -0.0414  0.2703
 2995W        W18126  16.422  16.612   5.553  0.0709 -0.0864 -0.1487
 2996W        W18127  12.779   8.819   2.732  0.0107  0.0390 -0.2189
 2997W        W18128   4.562  11.435   2.017  0.0103 -0.3504  0.0039
 2998W        W18129  13.860  10.155  13.745  0.1626 -0.2926 -0.1196
 2999W        W18130   1.630  15.692   5.986 -0.1877 -0.4229 -0.2343
 3000W        W18131  10.124   6.130  11.935 -0.5072  0.1550 -0.1288
 3001W        W18132  17.124   5.796   4.075 -0.1773 -0.2425 -0.2245
 3002W        W18133  11.063  11.725   1.169  0.0218 -0.0196 -0.1817
 3003W        W18134  14.975   4.156  14.249 -0.0637  0.0901 -0.1521
 3004W        W18135   4.364  10.923   2.093 -0.1825  0.1206  0.1863
 3005W        W18136  10.562  18.238  10.987  0.0230 -0.0606 -0.1623
 3006W        W18137   8.751  14.771  15.548 -0.1223  0.0570 -0.1313
 3007W        W18138   9.803   1.968   3.350  0.3024  0.0621 -0.1557
 3008W        W18139  17.206   1.697  11.670  0.0852  0.2039  0.2558
 3009W        W18140   6.063   3.924  11.601 -0.1014  0.1960 -0.2549
 3010W        W18141   2.358   5.842   3.462  0.1489  0.2335 -0.0471
 3011W        W18142   9.460  17.531   4.278 -0.0254  0.0041  0.0135
 3012W        W18143  10.302  14.908   4.588  0.0161  0.2719  0.0104
 3013W        W18144  15.967  18.094   1.231  0.0138 -0.0307  0.2224
 3014W        W18145   8.683  10.663  14.012 -0.2629  0.2754  0.1188
 3015W        W18146  12.758   9.890   2.340 -0.3042  0.0530 -0.1141
 3016W        W18147   6.500   3.515   2.819 -0.1062 -0.2327  0.0313
 3017W        W18148  12.059   4.594  11.120  0.0138 -0.1369 -0.2924
 3018W        W18149   8.356   8.119   4.059 -0.0665  0.0221  0.1742
 3019W        W18150  15.650   8.621   1.030  0.0596 -0.2482  0.2603
 3020W        W18151   6.805  12.969   0.019  0.2634 -0.4211 -0.2936
 3021W        W18152  14.988   6.481   5.163 -0.0799 -0.0387  0.0071
 3022W        W18153   5.876   3.990   3.129  0.1638  0.0889 -0.2460
 3023W        W18154  13.155   5.796   3.319  0.0302 -0.1217 -0.0399
 3024W        W18155  16.552  11.549  14.071  0.1429  0.1122  0.3572
 3025W        W18156  13.900   7.117  13.296 -0.0303 -0.2093 -0.2848
 3026W        W18157   2.317   1.825  12.617  0.0854 -0.3290 -0.2398
 3027W        W18158  15.294  18.477  14.610  0.1025 -0.1061 -0.2809
 3028W        W18159  18.368   8.931   3.931 -0.1798  0.0644 -0.1862
 3029W        W18160   5.788   8.325  12.658  0.4107 -0.3941  0.0237
 3030W        W18161   1.771   7.842   0.800  0.1409 -0.0733  0.0336
 3031W        W18162  18.392  13.926   0.021 -0.0112  0.2009  0.2551
 3032W        W18163   8.637  13.707  10.938  0.2255 -0.0241  0.3496
 3033W        W18164  17.590   4.709  15.222 -0.2486 -0.0204  0.1998
 3034W        W18165   0.867   8.107  12.955 -0.1786  0.0843  0.3304
 3035W        W18166   5.565   6.872   2.357 -0.1015  0.0014 -0.2430
 3036W        W18167   7.348  13.847  14.778 -0.0668  0.3396 -0.4503
 3037W        W18168   8.435   8.426  14.885  0.1527  0.2180 -0.0018
 3038W        W18169   0.395  11.245  11.539  0.2509 -0.0617 -0.2271
 3039W        W18170  16.245  16.274  12.492 -0.1732 -0.3136  0.0687
 3040W        W18171   9.194  13.534  12.442 -0.1535 -0.0706  0.1207
 3041W        W18172  11.365   9.217  11.664 -0.3106  0.0458  0.0070
 3042W        W18173   8.033   6.822   1.785  0.1549  0.0268 -0.0408
 3043W        W18174   3.253  13.659   4.146 -0.2161  0.0132 -0.0285
 3044W        W18175   9.979  17.137  10.613  0.2876 -0.1720 -0.0869
 3045W        W18176   7.738   7.587   0.690  0.2313  0.0013  0.0086
 3046W        W18177  14.951   2.729   4.191 -0.1859  0.4611  0.2136
 3047W        W18178   3.417   8.906   5.399 -0.3886 -0.1504  0.0908
 3048W        W18179  12.302   4.001  12.283  0.1618 -0.1111 -0.1393
 3049W        W18180   8.109  10.828  12.250 -0.0361  0.2514 -0.0159
 3050W        W18181  14.690   1.443  15.749  0.0398 -0.1455  0.0468
 3051W        W18182   4.005  16.527  10.676 -0.1728  0.1368  0.1775
 3052W        W18183   0.693   8.180  15.615  0.0590 -0.0208  0.0565
 3053W        W18184   0.789  16.090  11.017  0.3371 -0.1100  0.1451
 3054W        W18185  18.031  16.036   0.070 -0.1637 -0.2261 -0.0303
 3055W        W18186  15.321   3.022   4.008 -0.1806 -0.2765 -0.1042
 3056W        W18187  13.750  18.474   3.563 -0.1317 -0.0120 -0.1843
 3057W        W18188   9.786   2.977  12.513 -0.3998 -0.1048  0.1283
 3058W        W18189  13.688  12.173  13.720 -0.1448 -0.0252 -0.0719
 3059W        W18190   4.020  12.254   4.742 -0.1239  0.3480  0.0601
 3060W        W18191  11.298  17.980   2.717 -0.0481 -0.0674  0.0493
 3061W        W18192  12.628   2.886  10.654 -0.0070 -0.2106 -0.1445
 3062W        W18193  13.465  13.093  12.218 -0.1289  0.1156 -0.1653
 3063W        W18194  18.208  10.160   3.369  0.0136  0.0239  0.1456
 3064W        W18195  16.402  14.471   3.015 -0.0583 -0.0387 -0.2358
 3065W        W18196  13.742  12.343  12.031 -0.1801 -0.1304 -0.0988
 3066W        W18197  10.769  15.033  10.108  0.0133 -0.1543  0.2498
 3067W        W18198   9.008  14.455   1.593 -0.2422 -0.0453  0.0523
 3068W        W18199  16.029  17.305  12.737  0.0374  0.1353 -0.0370
 3069W        W18200   5.729  13.562   3.868  0.0708 -0.1034  0.0202
 3070W        W18201  13.181   3.556   0.831 -0.0562  0.2224  0.0091
 3071W        W18202  16.815  16.314   2.636 -0.0108  0.1237 -0.2413
 3072W        W18203  10.568   9.561   3.894 -0.1781  0.1707  0.1563
 3073W        W18204  12.696  17.359  11.885 -0.1574 -0.0199  0.0754
 3074W        W18205  14.831   7.688  11.026  0.3851  0.0333 -0.0391
 3075W        W18206  17.023  15.777   0.295  0.0716  0.1019  0.1949
 3076W        W18207   1.578   7.139  11.100 -0.3771  0.0319 -0.0798
 3077W        W18208   0.755  16.225   5.011  0.2290  0.0932 -0.1132
 3078W        W18209   2.469   6.533  15.020 -0.2568  0.1734  0.0857
 3079W        W18210   8.037  12.349   2.333  0.1844  0.4046 -0.0944
 3080W        W18211   2.304  12.886   1.400  0.3967 -0.1901  0.0557
 3081W        W18212  17.645   1.092   0.770 -0.0646  0.1890 -0.3133
 3082W        W18213   7.236   6.168   5.387 -0.1549  0.2646  0.1665
 3083W        W18214   2.804  17.205   4.133  0.0505  0.1684 -0.0630
 3084W        W18215   0.245   5.115   6.149  0.2490  0.4013  0.0782
 3085W        W18216   4.979  17.651   3.766 -0.1565  0.0906 -0.0470
 3086W        W18217  11.348  12.777  12.889  0.0367  0.1005  0.0771
 3087W        W18218  11.615   1.858  11.952  0.0454  0.4693  0.0921
 3088W        W18219   7.727   6.487   2.155 -0.3565  0.0232 -0.1479
 3089W        W18220  17.897  13.107   3.872  0.0471  0.1957 -0.1975
 3090W        W18221   5.614  12.760  15.364  0.1227 -0.3875 -0.0332
 3091W        W18222   5.092  16.145   5.141  0.1321 -0.0670 -0.0650
 3092W        W18223  11.869  11.242   1.439 -0.1693  0.1423  0.1361
 3093W        W18224  10.049   7.139  11.224  0.0117  0.0480 -0.0662
 3094W        W18225   7.235   2.332   3.090 -0.0400  0.0498 -0.2496
 3095W        W18226   2.849   2.254   2.623  0.2457 -0.1757  0.2717
 3096W        W18227  15.682  10.122   4.167  0.0866  0.1324  0.3116
 3097W        W18228  16.406  14.938  11.319  0.0921 -0.2920  0.0694
 3098W        W18229  18.238  14.887   5.685 -0.0003  0.0520 -0.1061
 3099W        W18230  13.952   5.928   3.852 -0.3005 -0.2160  0.0790
 3100W        W18231   5.291   9.674   2.319  0.0773  0.2156  0.0908
 3101W        W18232   5.724   8.855  11.241 -0.2415  0.1296 -0.1506
 3102W        W18233  14.450   4.847   5.183  0.0435 -0.4611  0.2447
 3103W        W18234   6.835   1.647  14.496  0.1417 -0.2098  0.3989
 3104W        W18235  13.308  11.996   0.757  0.0040 -0.1660  0.0155
 3105W        W18236  17.907  10.838   2.047  0.1375  0.2593 -0.1519
 3106W        W18237   9.928  13.908  12.688 -0.0447 -0.2993  0.0744
 3107W        W18238   0.180  14.835   9.926 -0.0335 -0.2511 -0.5381
 3108W        W18239  15.945  10.487   4.358  0.1238 -0.1474 -0.4056
 3109W        W18240   1.834   1.934  12.811 -0.3664 -0.3038 -0.0834
 3110W        W18241  12.368  15.442  11.412  0.0717 -0.1689 -0.2980
 3111W        W18242   3.155   3.256  13.981 -0.0504  0.1046 -0.0341
 3112W        W18243   5.654   4.881  12.067 -0.1640  0.0130  0.0361
 3113W        W18244  17.031  15.046  13.438  0.4066  0.0299 -0.1178
 3114W        W18245   2.235   8.590   1.450 -0.1025 -0.1638  0.0582
 3115W        W18246  12.759  18.556   1.794  0.0113 -0.2907 -0.1006
 3116W        W18247  17.279   5.045  14.375  0.6101  0.5200  0.2547
 3117W        W18248  11.746  10.958   4.120 -0.0596  0.1832  0.1050
 3118W        W18249   2.483   0.320  15.241 -0.4169  0.1239  0.3761
 3119W        W18250   2.507   1.620   6.286 -0.1436 -0.3921  0.0924
 3120W        W18251   5.011  10.694  10.749 -0.2816 -0.1284  0.2156
 3121W        W18252  11.110   9.132   2.869  0.2072 -0.2949  0.1681
 3122W        W18253   4.810  11.158  15.945 -0.0795 -0.0196 -0.1378
 3123W        W18254  16.127  14.389   5.109 -0.2933 -0.2517 -0.0099
 3124W        W18255   3.666  17.731  11.539 -0.1098  0.1388  0.1745
 3125W        W18256  16.890  17.169  13.101 -0.1703  0.0477 -0.2643
 3126W        W18257  14.856   0.702   4.805 -0.2179 -0.2312 -0.0356
 3127W        W18258   0.107  15.421   4.540  0.1285  0.0008  0.0289
 3128W        W18259   0.339  14.075   4.147  0.0843  0.2350 -0.1883
 3129W        W18260   0.346  15.566  12.974  0.0024  0.0456 -0.1194
 3130W        W18261  14.465   3.553  11.213 -0.1535 -0.0719 -0.1290
 3131W        W18262   2.426  16.530   0.510 -0.0277  0.0150 -0.2689
 3132W        W18263   3.187   2.399  15.844 -0.1431  0.0813 -0.0592
 3133W        W18264   7.529  15.994  15.177  0.2527  0.2119  0.0532
 3134W        W18265   1.653   0.971  14.141  0.0797 -0.2662  0.2771
 3135W        W18266  10.775  14.674  13.451  0.0492  0.0941  0.1271
 3136W        W18267  13.307   4.637   2.462 -0.0367  0.3081 -0.2736
 3137W        W18268   3.225   3.611  11.279 -0.0764 -0.1470 -0.0118
 3138W        W18269  17.228  15.013   1.610  0.0397  0.0057  0.2041
 3139W        W18270  14.350   3.528   0.851  0.0225  0.1841 -0.1545
 3140W        W18271   7.077   1.461   4.747 -0.0352  0.1309  0.2052
 3141W        W18272   2.882   4.699   0.284 -0.2106 -0.0195  0.0608
 3142W        W18273   4.098   3.864   9.938  0.0832 -0.3204  0.1724
 3143W        W18274   4.039   9.253  13.620  0.1821  0.0459  0.1723
 3144W        W18275  17.265  12.326  15.330 -0.2605  0.1793  0.0356
 3145W        W18276  17.684  15.978  12.167  0.1590  0.1164  0.0546
 3146W        W18277  15.082   4.714   2.926  0.1142  0.1118 -0.3373
 3147W        W18278   8.194  18.152   0.500  0.1085 -0.1049 -0.1969
 3148W        W18279  17.855   9.790  11.690  0.1284  0.0348 -0.0925
 3149W        W18280   1.501  15.840  12.813  0.2984  0.1854 -0.1536
 3150W        W18281   2.108  13.515   4.760 -0.0524  0.1048  0.3070
 3151W        W18282  14.591  17.417  13.484  0.0964 -0.0898 -0.3209
 3152W        W18283  14.430   5.316   3.454  0.0294 -0.1330  0.0425
 3153W        W18284   2.144   5.064  11.799  0.2246  0.3381 -0.1748
 3154W        W18285  14.664   9.967   3.839  0.1063 -0.0980 -0.0705
 3155W        W18286   1.488  17.405   0.268 -0.0550  0.0343  0.2513
 3156W        W18287   0.129   3.947   4.489 -0.2478  0.3474  0.2493
 3157W        W18288  13.210   7.740   2.013  0.0384  0.0989  0.1818
 3158W        W18289   7.367  15.137  14.933  0.0308 -0.1993 -0.1821
 3159W        W18290   8.029   2.105   2.238  0.3299 -0.1970 -0.0305
 3160W        W18291   4.575   5.145   4.037 -0.0143  0.0043  0.0688
 3161W        W18292   5.852   1.109   5.071 -0.0310 -0.1829  0.2439
 3162W        W18293  10.217   9.759  10.936 -0.0837  0.1815  0.2349
 3163W        W18294  13.823  15.254   1.126 -0.1916  0.2055  0.1661
 3164W        W18295   5.303  14.247  11.040  0.0808 -0.3744  0.1739
 3165W        W18296  18.074  12.741   4.888 -0.2742 -0.1193 -0.3475
 3166W        W18297  10.121  11.125  15.288  0.1138  0.1542  0.1296
 3167W        W18298   9.606  12.867   4.788 -0.2104  0.1807  0.0499
 3168W        W18299  18.066  17.146  13.365  0.1194  0.1169 -0.0744
 3169W        W18300  10.829  15.194  11.913 -0.4640 -0.4519 -0.1832
 3170W        W18301  14.337  14.012   2.801 -0.1001 -0.2956 -0.0973
 3171W        W18302  13.353  11.264   0.451  0.0170  0.1974  0.1716
 3172W        W18303  16.322  13.103   0.636  0.2666  0.1032  0.0495
 3173W        W18304   3.702   7.193   3.132  0.0484  0.3152 -0.1191
 3174W        W18305  13.322   6.417   5.819 -0.1606 -0.0101  0.1163
 3175W        W18306   7.723  17.297  12.909 -0.1584 -0.3537 -0.1217
 3176W        W18307  12.655  16.738   0.353 -0.1637 -0.1266  0.4341
 3177W        W18308  16.028   8.714   2.402  0.0158  0.1651 -0.0218
 3178W        W18309  17.658   8.180   1.334  0.1746 -0.0884  0.3294
 3179W        W18310  14.495  18.033   3.698 -0.1729  0.1474 -0.1078
 3180W        W18311   0.493  10.896   4.893  0.0653  0.0850  0.0929
 3181W        W18312  16.043  18.298  13.484  0.2388 -0.2997  0.0402
 3182W        W18313   0.511  10.260   5.759 -0.1470  0.0163  0.0943
 3183W        W18314  17.866   4.977  12.672  0.1302 -0.3836  0.1895
 3184W        W18315   1.810   1.061   1.417 -0.0857  0.1719 -0.4259
 3185W        W18316  10.482   5.385   4.222  0.0336  0.0517  0.1275
 3186W        W18317  18.051  17.665   2.653 -0.2189  0.1515  0.1091
 3187W        W18318   3.320  10.536   1.151 -0.0442 -0.2133  0.0008
 3188W        W18319  17.692   4.821  14.362 -0.1090 -0.0546  0.1022
 3189W        W18320   7.403  15.037  15.471 -0.0288 -0.0662 -0.2874
 3190W        W18321   0.323   8.087  12.861  0.0348  0.1132  0.0515
 3191W        W18322  12.505  17.711   3.826 -0.1169  0.1470 -0.2146
 3192W        W18323   3.647   5.911   5.491  0.1123 -0.2971  0.1223
 3193W        W18324   4.957  18.292   3.200 -0.2191 -0.0310 -0.2217
 3194W        W18325  15.437  15.637   0.926  0.3221  0.1013  0.0399
 3195W        W18326   1.633   5.840   1.465 -0.4994 -0.1430  0.1320
 3196W        W18327   9.624   1.605   0.228 -0.0637 -0.2546  0.0772
 3197W        W18328   3.662   1.721   5.203 -0.0184  0.2933 -0.0508
 3198W        W18329   1.560  13.774  10.781 -0.0240  0.1402 -0.1021
 3199W        W18330   7.329   4.557   3.052 -0.4825 -0.3626  0.2300
 3200W        W18331  13.739  12.801  11.806  0.1559  0.1931 -0.0533
 3201W        W18332  16.210  14.696   1.970 -0.2457  0.0984  0.0226
 3202W        W18333   2.197  10.206   3.639  0.2753  0.2873 -0.2148
 3203W        W18334   9.915  13.100  12.328 -0.0032  0.1839  0.0589
 3204W        W18335   8.869  15.939   3.818 -0.1547  0.1970  0.0769
 3205W        W18336  15.923   4.827  12.135  0.0578  0.4163  0.3425
 3206W        W18337  13.534  15.919   1.765  0.1251 -0.1346 -0.0835
 3207W        W18338  11.021  17.155   2.343 -0.1258  0.2445 -0.1402
 3208W        W18339   9.215  16.327  14.223 -0.2013 -0.2128  0.0384
 3209W        W18340   7.179  17.663   4.530 -0.1454 -0.0655  0.2379
 3210W        W18341  12.583  12.323  10.735 -0.0552 -0.1415  0.1552
 3211W        W18342  15.360  13.699  15.409 -0.0095 -0.2619 -0.0498
 3212W        W18343   3.061  16.821  11.420 -0.1595 -0.2307 -0.0898
 3213W        W18344   6.491   4.184  14.205 -0.3372 -0.3204  0.1203
 3214W        W18345  12.250   1.948   3.638  0.1521  0.4235  0.1488
 3215W        W18346   0.714   1.522  11.735  0.2224 -0.1578  0.0601
 3216W        W18347   4.675   3.891  11.708  0.2703 -0.3084  0.1695
 3217W        W18348   0.595   7.193  13.240 -0.1292 -0.3229  0.2059
 3218W        W18349  16.004   9.040  11.443  0.2304 -0.0212 -0.2020
 3219W        W18350  13.318  13.973   3.950  0.0872 -0.0664  0.1990
 3220W        W18351   6.337   1.111   3.764  0.0907 -0.1060  0.1013
 3221W        W18352   7.283   0.212  12.082 -0.0653  0.0828 -0.2024
 3222W        W18353   4.669  16.868   4.681  0.0822 -0.2626  0.0060
 3223W        W18354  12.992   1.685  13.005  0.1854 -0.1681  0.0869
 3224W        W18355  15.518   3.075  13.960 -0.0987  0.0686  0.3150
 3225W        W18356  10.603  13.316  15.231 -0.1406 -0.0663  0.1428
 3226W        W18357   6.430   5.192   4.653  0.2969  0.0428  0.2592
 3227W        W18358  12.974  11.211   9.959  0.0412 -0.1886 -0.2202
 3228W        W18359  17.867   2.401   3.957 -0.6283  0.3602  0.2077
 3229W        W18360   5.632  12.559  14.089 -0.0783 -0.1084  0.0998
 3230W        W18361  15.106   9.502   2.029 -0.2068 -0.0763  0.2260
 3231W        W18362   8.586  13.605  13.554 -0.0399 -0.2165  0.2384
 3232W        W18363  16.993   8.317  11.555  0.1199 -0.2509 -0.3711
 3233W        W18364  12.237   7.459   3.479 -0.0047 -0.3808 -0.0740
 3234W        W18365   0.129   6.030  12.973  0.4861 -0.0020  0.0073
 3235W        W18366   5.835   8.183   4.676  0.3174  0.0200  0.0887
 3236W        W18367   3.664  11.797  14.089 -0.4539 -0.2151  0.0626
 3237W        W18368   2.654   8.050  13.628  0.0425  0.3904 -0.2148
 3238W        W18369   3.485   6.020  12.927 -0.0413 -0.1228  0.0494
 3239W        W18370   9.408  13.036  15.580  0.0548 -0.1346  0.0340
 3240W        W18371   9.426   8.004  11.249 -0.3565  0.2953 -0.2381
 3241W        W18372   4.001  10.687  11.782  0.2212  0.0052  0.0421
 3242W        W18373   5.988  14.081  13.807 -0.0567 -0.1680 -0.2629
 3243W        W18374  13.324  10.687   5.854 -0.0893  0.0972 -0.1997
 3244W        W18375   1.265   3.885  12.377 -0.2477 -0.1701  0.1646
 3245W        W18376   7.074  14.133   4.692 -0.0925  0.0589  0.0992
 3246W        W18377   3.931  12.193  12.016  0.1518  0.1420  0.0640
 3247W        W18378   7.295  17.895   3.787  0.1098  0.3632  0.1652
 3248W        W18379  15.388  11.040  11.435 -0.4491  0.0917  0.0535
 3249W        W18380   8.961  13.538   0.839 -0.0169  0.1673 -0.0048
 3250W        W18381   2.877  13.844   3.230 -0.1251 -0.3585 -0.2176
 3251W        W18382   9.109   8.130  11.923 -0.1052 -0.0864  0.0009
 3252W        W18383   6.465  18.264  14.165  0.1867 -0.0783 -0.1577
 3253W        W18384  17.881   9.105   3.999  0.2955  0.1448  0.1725
 3254W        W18385  13.596  17.575  12.846  0.3392 -0.0261  0.1080
 3255W        W18386  11.011   2.002   2.706  0.5224 -0.0179 -0.4606
 3256W        W18387  11.023   1.882   0.132  0.0489 -0.1004 -0.0009
 3257W        W18388   1.503  11.336  12.329  0.0108 -0.1228  0.1744
 3258W        W18389   6.510  13.755   1.013  0.0480 -0.0088  0.3200
 3259W        W18390  16.214  10.273   5.973  0.1735 -0.0164 -0.3228
 3260W        W18391  11.341   5.274   2.738 -0.0077  0.1080  0.3204
 3261W        W18392  12.719   9.058  14.309  0.3157 -0.1716  0.0671
 3262W        W18393  15.768  11.995  12.006 -0.3253 -0.3711  0.0435
 3263W        W18394  14.393  12.727  15.570  0.0670  0.0002 -0.2879
 3264W        W18395   4.247  14.876  11.004  0.1217  0.2699  0.0331
 3265W        W18396  10.017  14.370  10.883 -0.0454 -0.1008 -0.0122
 3266W        W18397   3.094   8.972   0.715  0.1535  0.0914  0.0917
 3267W        W18398  16.761  16.964  14.593  0.0420  0.3618 -0.0274
 3268W        W18399   9.540   9.669  15.564 -0.0978  0.1487 -0.0545
 3269W        W18400   6.517  12.262   5.223  0.0064  0.1947  0.1373
 3270W        W18401   9.630   2.510   2.706  0.1704 -0.1915  0.1229
 3271W        W18402  10.685   2.790   4.672 -0.1744 -0.2397 -0.2392
 3272W        W18403   0.046  10.413   0.371 -0.0815  0.2090 -0.0959
 3273W        W18404   5.947  12.491  15.575 -0.3108 -0.0740  0.0711
 3274W        W18405   5.571   8.591   3.942  0.0208 -0.2146  0.1559
 3275W        W18406   0.634   2.027   0.692  0.0614  0.2377  0.2998
 3276W        W18407   5.979  16.864   1.427 -0.0091  0.1347  0.1856
 3277W        W18408  12.465   5.977  10.199 -0.0489 -0.3406  0.3120
 3278W        W18409  15.574  14.864   4.027  0.2126  0.1372 -0.0811
 3279W        W18410  10.869   9.602  11.658  0.0046 -0.1990 -0.1171
 3280W        W18411  18.278  11.482   6.255  0.0147 -0.0033  0.0636
 3281W        W18412  18.528   1.755  14.098  0.0087 -0.2221  0.2056
 3282W        W18413   5.622   2.105  11.236 -0.1025  0.0558  0.3027
 3283W        W18414   9.999  11.356  11.571 -0.0183  0.1968  0.0161
 3284W        W18415   0.785   6.195   1.543 -0.1296 -0.1620 -0.0723
 3285W        W18416   4.242   2.012  14.805  0.4104  0.1003  0.0651
 3286W        W18417   8.834   8.669   5.089 -0.1575 -0.2699  0.1358
 3287W        W18418   2.917   6.023  15.435 -0.0747 -0.2879 -0.1227
 3288W        W18419   5.837   4.227  11.338  0.0571 -0.0759 -0.1654
 3289W        W18420   9.788  16.214   4.879 -0.0331  0.2571 -0.1583
 3290W        W18421  17.628  12.026  14.826  0.2588 -0.1064 -0.0823
 3291W        W18422   9.258  13.439   1.252 -0.1798  0.0416  0.2768
 3292W        W18423  12.385   3.214   4.757  0.1500 -0.2697  0.1218
 3293W        W18424  18.422  14.595  11.307  0.1176  0.0711  0.1182
 3294W        W18425  17.472   7.750  11.969 -0.1100 -0.0525 -0.1535
 3295W        W18426  17.539  13.889   5.543 -0.1487 -0.1935 -0.2989
 3296W        W18427   7.105  13.296  11.292 -0.0344 -0.2847  0.2922
 3297W        W18428  12.214  12.086  10.464 -0.2692  0.4306 -0.0745
 3298W        W18429  12.163  13.000   3.939  0.1195 -0.0168  0.0333
 3299W        W18430  10.215  16.009   2.908 -0.1043  0.1627  0.0234
 3300W        W18431   7.386   8.397   2.122  0.1412 -0.3348 -0.0037
 3301W        W18432   1.281   3.287   4.911 -0.0453  0.6873  0.2285
 3302W        W18433  13.151   5.466   0.877 -0.2953 -0.0646 -0.0678
 3303W        W18434  18.138   9.536   0.127  0.1795  0.1152 -0.1200
 3304W        W18435   0.406  16.962   4.865 -0.0441 -0.0616  0.0465
 3305W        W18436   5.340  16.222   1.979  0.2308 -0.1015 -0.1764
 3306W        W18437   0.687  10.712   5.839  0.1806 -0.0427  0.0488
 3307W        W18438   6.733   1.925   0.586  0.1422  0.1227 -0.3089
 3308W        W18439   3.897   6.962   5.220  0.1956 -0.3243  0.1786
 3309W        W18440  15.717  15.911  15.699  0.2130 -0.0072  0.0459
 3310W        W18441  15.729  15.393   0.504  0.2959 -0.2065 -0.0664
 3311W        W18442   5.637  13.060   4.736  0.3462 -0.0414  0.2838
 3312W        W18443  12.976   2.149   5.609 -0.0563 -0.3795  0.0040
 3313W        W18444   4.353  18.083  12.105 -0.2494 -0.2163  0.1146
 3314W        W18445   8.266  11.745   3.626  0.0008  0.0654  0.1767
 3315W        W18446  15.247   0.993  15.036 -0.0648 -0.5172  0.0517
 3316W        W18447   1.203   5.773  15.896  0.2744 -0.1745 -0.2877
 3317W        W18448  15.298  13.285   1.576  0.1990  0.1782 -0.1181
 3318W        W18449  10.637   4.203  13.156 -0.0113 -0.1063 -0.3169
 3319W        W18450   0.332   2.306   3.251  0.1199  0.3451  0.0429
 3320W        W18451  15.664   4.815   2.134  0.1201  0.2142 -0.3413
 3321W        W18452   3.835   7.659  13.027 -0.0261  0.2263 -0.0846
 3322W        W18453   4.022   6.306  14.601  0.0530  0.0490 -0.2652
 3323W        W18454   0.476  17.878   0.863  0.3535  0.0971  0.0405
 3324W        W18455   0.398   5.625  12.705 -0.1960  0.1690  0.3581
 3325W        W18456   1.531  17.275  11.603  0.0914  0.0180 -0.0062
 3326W        W18457  15.084  18.039   0.139 -0.0796  0.1562  0.1281
 3327W        W18458  11.442  13.959  12.327 -0.3921  0.2266 -0.3514
 3328W        W18459   9.784   4.078   3.649 -0.0250  0.2485 -0.0132
 3329W        W18460   5.740   0.982   1.798  0.0450  0.0553  0.1378
 3330W        W18461  12.336   8.835  13.390  0.2539 -0.0731 -0.0141
 3331W        W18462  16.596  14.055   5.525 -0.0494  0.2586 -0.0481
 3332W        W18463  14.151   1.979   1.862  0.1342 -0.0740 -0.1206
 3333W        W18464  16.784  16.014   5.168  0.1229  0.2309  0.2436
 3334W        W18465  18.137   1.968   5.967  0.0686 -0.0591 -0.0928
 3335W        W18466  15.112   8.447  11.317 -0.1489 -0.0890  0.0184
 3336W        W18467   1.934   9.411   4.739 -0.1536 -0.2396  0.1709
 3337W        W18468   8.545   3.040  13.374  0.1376 -0.0166 -0.5038
 3338W        W18469   4.698   9.535  12.417 -0.1080 -0.2747 -0.4995
 3339W        W18470   8.129  13.878  10.774 -0.2904  0.2302 -0.2646
 3340W        W18471  16.676   6.499   2.556 -0.1099  0.0231  0.1866
 3341W        W18472  18.391  14.187   2.187  0.3585  0.2658 -0.0108
 3342W        W18473  14.614   6.452  11.846  0.1196  0.1311  0.1831
 3343W        W18474   2.143  10.667   3.243  0.1271  0.1510  0.2847
 3344W        W18475   9.454  15.005  14.370 -0.2553 -0.0309  0.2073
 3345W        W18476   9.507  18.139  12.501  0.0116  0.4976  0.3179
 3346W        W18477   1.149   1.752  15.790 -0.1981  0.1881 -0.0720
 3347W        W18478   8.714  11.649  11.225  0.3109 -0.2281  0.4587
 3348W        W18479   0.880   7.557   3.360 -0.0063 -0.3793 -0.1508
 3349W        W18480  12.576  13.471  14.512 -0.1612  0.0974 -0.0803
 3350W        W18481   1.481   9.543  10.864  0.1383 -0.1486  0.2006
 3351W        W18482   7.802  17.221   4.341  0.4250 -0.1598 -0.0075
 3352W        W18483  17.888   7.851  13.413  0.1792  0.0498  0.3273
 3353W        W18484   5.418   3.215  12.528 -0.1672 -0.0176  0.1050
 3354W        W18485   5.857  10.378   0.246 -0.1911  0.1766 -0.0229
 3355W        W18486  14.359  18.108  15.830  0.1031  0.0089 -0.1004
 3356W        W18487   1.386   1.428   3.565  0.3020  0.0667  0.3650
 3357W        W18488   0.576   8.018  13.881  0.2736 -0.4153  0.2412
 3358W        W18489  16.236   9.636   2.051 -0.0970  0.0139 -0.2551
 3359W        W18490   7.811  14.959   0.481 -0.2074 -0.1516 -0.1749
 3360W        W18491   8.742   4.552  10.883 -0.2896 -0.1330  0.1243
 3361W        W18492  11.660   4.770   4.629 -0.1234 -0.2593  0.1854
 3362W        W18493  11.751   1.665   0.710 -0.0264 -0.0731  0.0274
 3363W        W18494  12.552   7.333  13.150  0.0222 -0.1551  0.1207
 3364W        W18495   2.883  18.155   2.332  0.2337  0.0055  0.1729
 3365W        W18496   8.756   9.540  11.403 -0.0195 -0.0663  0.2463
 3366W        W18497  10.704   4.015   3.902  0.1211 -0.2025 -0.0196
 3367W        W18498   5.848   7.632   0.287  0.0055  0.2670 -0.4373
 3368W        W18499   4.029   1.970  15.302 -0.3054 -0.0672 -0.0787
 3369W        W18500   1.463  11.579   4.118  0.0552  0.0955  0.0606
 3370W        W18501   1.375   6.257   5.006 -0.1566 -0.1307  0.1354
 3371W        W18502  15.433   6.368  14.873  0.0705 -0.1964  0.1922
 3372W        W18503   6.287  16.345   1.189 -0.0029 -0.0437  0.1553
 3373W        W18504   5.552   9.696  11.606 -0.0646  0.0109  0.2341
 3374W        W18505  15.513  14.128   4.472 -0.1126 -0.1165 -0.0296
 3375W        W18506  16.229   8.595  12.647  0.3490  0.3254 -0.3341
 3376W        W18507  16.039   0.164  12.586  0.1936  0.2188 -0.0495
 3377W        W18508  17.113  14.707   4.278 -0.0018  0.0303 -0.3056
 3378W        W18509   6.216  13.355  15.533 -0.0169  0.0110 -0.1287
 3379W        W18510   4.058  11.724  12.192 -0.1184  0.3485  0.1787
 3380W        W18511  16.102  12.653  14.416  0.3310 -0.0980  0.0199
 3381W        W18512   5.285   7.084  15.218 -0.1453 -0.1455 -0.2148
 3382W        W18513   1.175   6.755  12.797  0.1800  0.2256  0.0287
 3383W        W18514  11.220  18.542   0.060  0.1529  0.0625 -0.0455
 3384W        W18515  16.549  14.867  14.177  0.0659 -0.0577 -0.0215
 3385W        W18516   1.192   4.587   3.424 -0.0430  0.0221  0.0915
 3386W        W18517  14.918   1.301  12.985  0.1622  0.1616 -0.1155
 3387W        W18518  17.783   5.222  12.237  0.1424 -0.1129  0.2324
 3388W        W18519   8.346  13.821   1.242  0.0138  0.2294  0.2737
 3389W        W18520   4.500  11.254   2.478  0.3749 -0.0661 -0.2879
 3390W        W18521  10.894  11.378  12.600  0.2745  0.0685 -0.2706
 3391W        W18522  14.318   5.550  11.572 -0.1922  0.0031 -0.2635
 3392W        W18523  11.093   4.417   3.127 -0.1025  0.1167  0.1781
 3393W        W18524   0.951   6.298   2.883  0.2690  0.0159 -0.1338
 3394W        W18525  12.907   6.720  14.593 -0.2076  0.1753 -0.1291
 3395W        W18526   2.240   3.940  12.586 -0.0207 -0.1557 -0.4260
 3396W        W18527   2.563   4.063   3.515 -0.1742  0.0681 -0.2119
 3397W        W18528   4.242   2.364  12.114  0.3881 -0.0045 -0.3275
 3398W        W18529  17.825   7.734   1.581 -0.3627 -0.1385 -0.2078
 3399W        W18530  10.245   7.246   0.659  0.2392  0.1044  0.0080
 3400W        W18531   3.789  15.114   2.565  0.1790 -0.2956  0.2347
 3401W        W18532   5.644  14.177   9.487 -0.0946  0.2896 -0.0274
 3402W        W18533  12.410   9.090   4.381  0.2376  0.1518  0.1056
 3403W        W18534  13.587  14.339  10.646  0.2350  0.1975  0.1377
 3404W        W18535  17.326   4.503   3.246  0.1115  0.0403 -0.1238
 3405W        W18536  13.042   9.673  10.339 -0.1440 -0.2788 -0.0224
 3406W        W18537   3.138   2.069  12.407  0.1658 -0.1422 -0.1547
 3407W        W18538  11.789  16.821   5.243 -0.3882 -0.1921  0.3365
 3408W        W18539   5.085  15.022  11.395  0.0812  0.0653 -0.3386
 3409W        W18540   3.004   2.429   3.785 -0.2466  0.1385 -0.0829
 3410W        W18541   3.051   4.751   3.960  0.0727 -0.1003 -0.0298
 3411W        W18542  16.418   3.032   5.064  0.0932 -0.3553 -0.0798
 3412W        W18543   9.300   1.515  15.117  0.2222 -0.3548  0.0644
 3413W        W18544  13.231  12.244  14.000  0.1108  0.1232 -0.1040
 3414W        W18545  14.566   8.439  12.230 -0.1369 -0.1370  0.1107
 3415W        W18546  13.674  15.420   2.999 -0.0456 -0.1432 -0.1322
 3416W        W18547  11.050   7.116   1.073 -0.1286 -0.2398  0.0819
 3417W        W18548  14.042   3.722  13.707  0.0685 -0.0221 -0.0735
 3418W        W18549  15.560  14.965   2.892 -0.0744 -0.0624  0.0068
 3419W        W18550   1.494  15.296   0.809  0.2148 -0.1171 -0.1304
 3420W        W18551  10.110   5.408  14.720  0.0988  0.0869  0.1657
 3421W        W18552  13.938   1.762  12.827 -0.1562 -0.0791  0.1573
 3422W        W18553   3.745  11.919  15.865 -0.1707 -0.4730  0.1396
 3423W        W18554  12.928   2.979   3.278 -0.1735 -0.0186  0.0099
 3424W        W18555  10.449   8.325   0.480 -0.2822  0.3179 -0.2733
 3425W        W18556  11.489   9.286   2.607  0.1947 -0.0875  0.1217
 3426W        W18557   1.224  18.077  11.136  0.4222 -0.0285  0.2607
 3427W        W18558  12.240  17.286   3.707  0.2154 -0.1374 -0.2231
 3428W        W18559   4.159   2.234  14.046 -0.0975 -0.1866  0.0574
 3429W        W18560  12.088  14.228   4.598 -0.1212  0.4180 -0.1934
 3430W        W18561   2.476   3.037   6.393  0.3584 -0.0854 -0.0555
 3431W        W18562   7.191  15.425  12.435  0.2123  0.2071  0.0994
 3432W        W18563  11.636  18.497  15.659  0.0559 -0.0305  0.1528
 3433W        W18564   1.404   3.341  13.245  0.1376 -0.0807 -0.0502
 3434W        W18565   4.143  13.151   5.396  0.0405 -0.1651  0.1688
 3435W        W18566   4.576  16.676   2.598  0.1971  0.0744 -0.1099
 3436W        W18567   1.865   4.276   2.205  0.2166 -0.4022 -0.2711
 3437W        W18568   6.901   4.602   2.033 -0.0169  0.1934 -0.3141
 3438W        W18569  17.161  16.230   0.076 -0.1399  0.1897  0.0053
 3439W        W18570  17.935   6.573  13.756  0.3065  0.0285 -0.1999
 3440W        W18571  18.143  10.418   1.749  0.2721  0.3302  0.0596
 3441W        W18572  13.713   0.676   1.965  0.2068  0.2491  0.0662
 3442W        W18573   1.462  15.693   1.729 -0.0266  0.1081  0.0756
 3443W        W18574   8.684   8.829  12.556 -0.4391 -0.0490  0.2183
 3444W        W18575  10.104  11.593   1.033 -0.0340  0.2896 -0.0769
 3445W        W18576   0.896   8.396   4.437  0.2387  0.0436 -0.1012
 3446W        W18577   8.287  10.333   1.554 -0.2891  0.1524  0.0320
 3447W        W18578   8.846   6.656  13.025  0.0320  0.1137  0.2179
 3448W        W18579  12.011  14.918  13.372 -0.5399 -0.0001 -0.1577
 3449W        W18580  16.106  11.702  14.163  0.2021  0.0437 -0.2088
 3450W        W18581   3.456   5.165  13.427  0.4253 -0.1870 -0.0244
 3451W        W18582  17.821   3.554  12.250 -0.0888 -0.0906  0.2291
 3452W        W18583   6.938   2.309   0.357  0.0606 -0.5521  0.0083
 3453W        W18584  11.634   0.464   1.490 -0.3625  0.2525 -0.0495
 3454W        W18585   8.204   2.159  11.134  0.1137 -0.0202  0.0793
 3455W        W18586   8.979   8.899  13.811 -0.2499  0.0828  0.1122
 3456W        W18587   9.198   7.853   1.026  0.3939 -0.1348  0.5403
 3457W        W18588  12.275   4.485  14.169  0.0076  0.2801  0.0585
 3458W        W18589  12.609  12.328   2.708 -0.1044 -0.1961 -0.0763
 3459W        W18590   1.054  12.488   2.699  0.0962 -0.2103 -0.0673
 3460W        W18591  18.324  18.432  12.649 -0.4550  0.0107 -0.1548
 3461W        W18592   1.294   7.070   0.342 -0.2052  0.2242 -0.1295
 3462W        W18593   6.008   3.413   3.909  0.3154 -0.0204  0.2475
 3463W        W18594   3.003   8.251   5.812 -0.0561 -0.0646  0.0700
 3464W        W18595   5.709   3.027  13.405 -0.4038  0.0482 -0.0598
 3465W        W18596  13.360  10.291   5.604 -0.3673  0.2947 -0.0104
 3466W        W18597  10.238  18.094   3.007 -0.0416  0.1263  0.1826
 3467W        W18598   7.200   7.985   2.508 -0.1396 -0.0893  0.1668
 3468W        W18599   8.937   4.082   2.068  0.2278 -0.0706 -0.2392
 3469W        W18600   7.039   4.931  13.928 -0.0702  0.0653 -0.0516
 3470W        W18601   7.026   7.474   2.395 -0.1073  0.1269 -0.1929
 3471W        W18602   1.831  11.327   1.868  0.1106 -0.0829  0.4899
 3472W        W18603  18.396  17.549   1.211  0.0001  0.3237  0.1644
 3473W        W18604  11.639   5.065   4.112 -0.3828 -0.2111 -0.0518
 3474W        W18605   7.630  11.403  15.742 -0.0978  0.2455 -0.3556
 3475W        W18606   1.653  11.368   5.169 -0.3813  0.3373 -0.2606
 3476W        W18607   7.744  14.763   5.260 -0.1200 -0.2214  0.0197
 3477W        W18608   9.465  12.543  14.817 -0.0899 -0.2172  0.2089
 3478W        W18609   3.498  10.200   5.729 -0.2361 -0.1282  0.1723
 3479W        W18610   0.095  17.105  12.935 -0.0287 -0.0278 -0.1318
 3480W        W18611   0.086   2.023   4.308  0.3783 -0.1731 -0.0447
 3481W        W18612   3.364   3.540  14.967 -0.3729 -0.0714 -0.2405
 3482W        W18613   0.797  16.030   5.458  0.0720 -0.1455 -0.0122
 3483W        W18614  16.932  16.255   1.326  0.0884  0.1270  0.0232
 3484W        W18615   1.440   6.374  11.872  0.0878  0.0158 -0.1718
 3485W        W18616  15.283   0.691  14.022 -0.0758 -0.1212 -0.0543
 3486W        W18617  17.193   9.457  14.532  0.2257 -0.1114  0.0142
 3487W        W18618  14.694   2.687  12.783  0.2359  0.0360 -0.2667
 3488W        W18619   6.685  10.900  12.001  0.2478  0.3341 -0.1369
 3489W        W18620  12.224  13.300  15.514  0.1114 -0.1867 -0.1538
 3490W        W18621   7.426  10.893   0.110  0.0755  0.0507  0.2599
 3491W        W18622   3.925  12.657   0.596 -0.1132  0.5117 -0.1102
 3492W        W18623   8.086   3.370  12.642 -0.1114  0.1371  0.2396
 3493W        W18624  10.760   5.507  13.002  0.3420  0.0121  0.0981
 3494W        W18625   9.077  17.195  10.391 -0.0465 -0.3953  0.2430
 3495W        W18626   0.143  14.470   3.119  0.1946 -0.1556  0.0747
 3496W        W18627   3.078   1.469   2.332 -0.0343 -0.0099  0.1499
 3497W        W18628  16.960   5.867  14.597 -0.0569  0.0022 -0.0045
 3498W        W18629   0.331  12.103   1.662  0.1900  0.1561  0.1827
 3499W        W18630   3.298   1.932   2.290 -0.0420  0.0693 -0.4049
 3500W        W18631   5.766   2.444   2.403 -0.3831 -0.1926  0.4434
 3501W        W18632  16.496  11.916  14.490 -0.4095 -0.0236  0.0473
 3502W        W18633   9.727  12.009   1.660  0.1317  0.1121 -0.0057
 3503W        W18634   3.696  18.094   9.709 -0.0353 -0.0897 -0.0712
 3504W        W18635   4.186   4.105  15.264 -0.2661  0.1429  0.1207
 3505W        W18636  15.357   2.145  14.038 -0.2077 -0.0681 -0.1193
 3506W        W18637  10.500   4.844   1.373 -0.2342 -0.2311  0.0873
 3507W        W18638  10.540  17.762   4.233 -0.2126 -0.0909 -0.1265
 3508W        W18639   5.401  12.050  13.292 -0.3698  0.2167 -0.1289
 3509W        W18640   6.362  11.136   1.234 -0.1350 -0.2673 -0.1100
 3510W        W18641  12.356   5.701   4.382  0.2962 -0.2013  0.2494
 3511W        W18642   0.308  14.053   0.245 -0.0764  0.2325  0.3172
 3512W        W18643   2.479   7.990  11.806 -0.1541  0.2068  0.1484
 3513W        W18644   0.755   4.413  14.282 -0.0670 -0.0538  0.0578
 3514W        W18645  12.519   5.898   2.532  0.0546  0.1646 -0.2353
 3515W        W18646  14.615   2.634  15.263  0.2373 -0.0192  0.1239
 3516W        W18647   7.062  14.597   4.957  0.2805 -0.1646 -0.1042
 3517W        W18648   6.035   9.778  12.010 -0.2105 -0.1973  0.3656
 3518W        W18649   0.760   2.088  13.979 -0.2467 -0.0985  0.2705
 3519W        W18650  12.333  14.384   0.020  0.1682  0.2734 -0.0402
 3520W        W18651  14.877  15.825   4.670 -0.0573 -0.0441 -0.0530
 3521W        W18652  12.062   9.134   0.352 -0.2213 -0.2791  0.0256
 3522W        W18653  14.296   3.964   2.698  0.0200  0.1497  0.0243
 3523W        W18654  11.834   0.192   2.230 -0.0967  0.1353 -0.0175
 3524W        W18655   6.832   2.156   4.374  0.5636  0.0507 -0.1412
 3525W        W18656  14.450   5.753   0.295  0.0887  0.0562 -0.0206
 3526W        W18657   5.255  18.386  11.576 -0.1101 -0.1595  0.2252
 3527W        W18658  10.218   8.918   3.738  0.0146 -0.0947  0.0556
 3528W        W18659   3.231   7.055  15.162  0.2544  0.2779  0.1468
 3529W        W18660  18.285  12.852  13.471 -0.3878 -0.1069 -0.0674
 3530W        W18661   2.067   7.260   1.667  0.2518 -0.5135 -0.1575
 3531W        W18662   6.219  16.060  15.926  0.3687 -0.0282 -0.0277
 3532W        W18663  11.271  17.650  11.447  0.1033  0.1913  0.3035
 3533W        W18664  18.403  11.185  14.186  0.2830 -0.0941  0.2626
 3534W        W18665  12.687   2.132  13.052  0.3692  0.1901 -0.1212
 3535W        W18666  15.699   0.456  13.064  0.1946 -0.0200 -0.3123
 3536W        W18667   5.766   4.315  12.029  0.0166 -0.1037 -0.1102
 3537W        W18668   3.304   9.387  14.691  0.3411 -0.1021 -0.0687
 3538W        W18669  16.579  12.423   4.817 -0.0551 -0.1428 -0.3401
 3539W        W18670   7.135  12.879   0.850  0.6620  0.3617  0.2847
 3540W        W18671   9.294   2.774  13.315 -0.1919 -0.2667  0.0214
 3541W        W18672   2.284  17.035   0.766  0.3559 -0.1956  0.3672
 3542W        W18673   0.937  12.213   1.079 -0.0781  0.1643  0.1045
 3543W        W18674   5.865  14.280   1.062 -0.3170  0.1170 -0.0170
 3544W        W18675   9.230   5.530   4.607  0.0809  0.0203  0.0138
 3545W        W18676   3.103   9.473   0.049 -0.1017  0.0956  0.0751
 3546W        W18677   4.437  13.127  11.640  0.0622 -0.0586  0.1349
 3547W        W18678  15.706   3.720  14.857  0.1229 -0.0732  0.1630
 3548W        W18679   5.092  10.681  12.360 -0.0870 -0.0578 -0.1086
 3549W        W18680   8.950   3.974   4.792  0.1202  0.0323 -0.0956
 3550W        W18681   5.131   4.650  15.525 -0.1487 -0.0832 -0.1219
 3551W        W18682   8.613  14.590  12.785  0.2280 -0.0723  0.1866
 3552W        W18683   5.101   2.696  15.799  0.4087  0.0467  0.2519
 3553W        W18684  16.411   1.283   0.657 -0.2109 -0.3322  0.2645
 3554W        W18685   0.118   4.847  13.145  0.3439  0.0140 -0.1605
 3555W        W18686  15.759  15.739   4.337  0.1883  0.1333  0.1364
 3556W        W18687  17.003   0.159  12.956 -0.0931  0.1185  0.1081
 3557W        W18688   0.123   5.664   4.659  0.1742 -0.3322 -0.1970
 3558W        W18689  14.444  17.165   4.101 -0.2059 -0.0184 -0.0885
 3559W        W18690  18.048  16.816  12.240 -0.0616 -0.1626 -0.2483
 3560W        W18691   0.859  15.800  10.588 -0.1891  0.4448  0.1690
 3561W        W18692  16.109   8.536   3.643  0.3369 -0.1446 -0.0795
 3562W        W18693   2.033   6.833   1.378  0.0910 -0.2058  0.2653
 3563W        W18694  10.515  16.854  11.312 -0.0677  0.0068  0.1063
 3564W        W18695   8.550  18.339   1.059  0.1049 -0.1367  0.3024
 3565W        W18696   9.147   1.977   2.363 -0.1257  0.3505  0.3183
 3566W        W18697   2.551  12.762   2.263  0.2431 -0.1378  0.1343
 3567W        W18698   7.767   3.419  12.228  0.1272  0.0567  0.2031
 3568W        W18699  11.349  13.902   2.566  0.3107 -0.2284  0.1835
 3569W        W18700   0.125  16.259   2.901 -0.1207 -0.0613 -0.0506
 3570W        W18701  14.336   7.850   4.245 -0.0117 -0.1554 -0.1383
 3571W        W18702   3.339   1.939  14.793 -0.1352 -0.1449  0.2004
 3572W        W18703   7.461  14.012   4.412  0.0669 -0.1904  0.2339
 3573W        W18704   0.606   8.935   5.075 -0.0977 -0.3170 -0.0611
 3574W        W18705   4.003   7.550  13.678 -0.1377 -0.2432 -0.1337
 3575W        W18706  12.073   4.017  14.277 -0.0576 -0.3066  0.3720
 3576W        W18707   1.052   4.451   4.515  0.0047  0.0249 -0.0999
 3577W        W18708   9.745  12.686   0.578  0.2616 -0.2812  0.2668
 3578W        W18709  16.351   7.866  14.654 -0.0816 -0.2794 -0.3328
 3579W        W18710   1.522  13.672  11.824  0.2055  0.0200  0.0923
 3580W        W18711   2.296  15.909  15.815  0.3251  0.2768 -0.2912
 3581W        W18712  16.719  11.265   3.160 -0.1725 -0.2623  0.2053
 3582W        W18713   6.491  14.429  13.018  0.2786 -0.0510 -0.0190
 3583W        W18714  13.685   0.033  11.135 -0.0532 -0.2848  0.2222
 3584W        W18715  12.678  12.135  11.367 -0.0192  0.2037 -0.0218
 3585W        W18716  16.465   5.126   4.600  0.2273  0.5347  0.0614
 3586W        W18717   8.410   4.786   2.242  0.0843 -0.0948 -0.0688
 3587W        W18718  17.397   0.515  15.507  0.0030 -0.0532 -0.0104
 3588W        W18719   9.335   0.749   4.234  0.0496 -0.3071  0.0050
 3589W        W18720  15.469   4.952  11.454  0.0165  0.1655 -0.1787
 3590W        W18721  18.088   2.543   5.136  0.0787 -0.0657  0.1456
 3591W        W18722   0.629  14.974  15.613 -0.3212  0.1083 -0.0041
 3592W        W18723   1.194   7.146  15.764  0.0514  0.2264  0.0803
 3593W        W18724   1.237   4.542   1.615  0.0730 -0.1571 -0.3109
 3594W        W18725   2.496   5.143  11.400  0.0588  0.0884 -0.0184
 3595W        W18726  12.746  17.869  14.589 -0.1187  0.0068 -0.1165
 3596W        W18727  14.257   2.929   2.239 -0.3713 -0.1562  0.0654
 3597W        W18728   0.045  12.205   0.634 -0.0544  0.1003  0.1908
 3598W        W18729   3.195  10.866  13.987 -0.3563  0.3123  0.0047
 3599W        W18730   3.832   2.213  11.788 -0.1661  0.1636  0.1146
 3600W        W18731  10.317   9.265   2.616 -0.0561 -0.0649  0.3585
 3601W        W18732   7.041   5.386  10.988 -0.5735 -0.4227 -0.3747
 3602W        W18733  12.487   6.546   1.665 -0.0907 -0.0993  0.2209
 3603W        W18734  12.242  13.284   4.705  0.1629 -0.3436 -0.3960
 3604W        W18735   1.433  11.993  13.867  0.2332 -0.0542  0.4503
 3605W        W18736   4.715   1.167   0.913 -0.0845 -0.1874 -0.0714
 3606W        W18737   4.118   2.435  14.556  0.0992  0.1107 -0.0978
 3607W        W18738   9.686  16.047   5.404  0.1871  0.3260  0.0361
 3608W        W18739   9.007   9.904  11.859 -0.0127  0.0961  0.3127
 3609W        W18740  16.473   0.515  13.975 -0.0623 -0.6089  0.2807
 3610W        W18741   6.134  11.721  13.645 -0.0098 -0.0908 -0.3424
 3611W        W18742  17.130   3.089  15.379 -0.2277 -0.1285 -0.1824
 3612W        W18743  12.495   0.363  15.291 -0.1071  0.2240 -0.3338
 3613W        W18744   0.660  12.497  15.101 -0.0030  0.0535  0.3922
 3614W        W18745  11.901   6.199   5.191  0.0763 -0.0909 -0.0520
 3615W        W18746  16.276   2.134  12.491  0.2953 -0.2504  0.5382
 3616W        W18747  16.720   8.964  14.973 -0.1436 -0.2321 -0.0110
 3617W        W18748   1.542  15.558  14.343 -0.1739 -0.1734  0.0943
 3618W        W18749  11.273   6.842  13.229  0.3262 -0.1386 -0.0500
 3619W        W18750   4.434  14.151   0.518 -0.0125 -0.2064  0.3027
 3620W        W18751   0.913   4.692   0.100 -0.0312 -0.1196 -0.0111
 3621W        W18752   9.875  17.011   2.971 -0.1165 -0.0456  0.1222
 3622W        W18753  10.460  17.868   1.093 -0.1797 -0.0678  0.2757
 3623W        W18754   3.092   7.577  15.831 -0.2087  0.4119  0.0116
 3624W        W18755   5.581   7.351   0.606 -0.1225  0.0700  0.0447
 3625W        W18756  14.849  10.844   2.841  0.0470  0.0095  0.1187
 3626W        W18757   5.650   4.149   4.498  0.2247 -0.0022  0.3394
 3627W        W18758   1.517  11.478   4.667 -0.0393  0.2036  0.1050
 3628W        W18759   9.881   5.308   0.413 -0.1935  0.1803  0.2138
 3629W        W18760  17.038   4.207   4.604  0.2017  0.1811  0.0912
 3630W        W18761   4.255  16.460  11.727 -0.0137  0.0051  0.1036
 3631W        W18762   7.952  12.658  12.274 -0.0535 -0.0038 -0.1172
 3632W        W18763   2.920  10.096  13.370 -0.2831  0.0328  0.0107
 3633W        W18764  17.652  11.863   2.107 -0.0922  0.2164 -0.3476
 3634W        W18765   6.184  18.093  12.726 -0.0018 -0.0727  0.0037
 3635W        W18766  15.518   5.719   5.115 -0.1546 -0.0866  0.0373
 3636W        W18767  10.806  16.324   1.888 -0.2158 -0.0849  0.1508
 3637W        W18768   6.611   0.221   5.845 -0.0155  0.0822  0.1864
 3638W        W18769   2.818  11.563   2.114  0.0039  0.4412  0.1147
 3639W        W18770  16.193  12.876  14.878 -0.3547  0.0532  0.1764
 3640W        W18771  17.217   0.663   4.589 -0.1750  0.1263 -0.2222
 3641W        W18772   9.054   1.078   0.122  0.0988  0.2436 -0.0542
 3642W        W18773  14.577  17.814   0.231  0.2549 -0.0851  0.0352
 3643W        W18774   5.669  18.527  13.817 -0.0767 -0.1043 -0.2657
 3644W        W18775  16.795  17.520   3.238 -0.1001  0.0689 -0.3370
 3645W        W18776   1.529  18.414  12.074 -0.0587 -0.2080  0.1664
 3646W        W18777   8.395  11.103   0.936 -0.4840  0.0128 -0.3371
 3647W        W18778   8.501   7.102  10.783 -0.1534 -0.0083  0.1686
 3648W        W18779   6.981   0.934  10.448 -0.2204 -0.1567 -0.3789
 3649W        W18780   4.278  15.400  11.047 -0.0312  0.1479  0.0459
 3650W        W18781   8.864   2.672  11.335 -0.0369  0.0142 -0.0546
 3651W        W18782   8.594   6.463   0.799 -0.0675  0.1007 -0.0900
 3652W        W18783  13.260  14.819   1.007  0.1357  0.3729  0.0943
 3653W        W18784   3.136  11.481   5.884 -0.1348  0.0352  0.0508
 3654W        W18785  10.527   5.986  11.138  0.2452 -0.1686 -0.1969
 3655W        W18786   9.131  14.093   2.430 -0.1012 -0.0610 -0.3022
 3656W        W18787   4.741  15.906   0.271  0.1017 -0.2428 -0.3679
 3657W        W18788   2.940   1.247  15.294  0.0280 -0.0774 -0.0325
 3658W        W18789   9.334  11.127  14.777 -0.2517  0.2983 -0.1395
 3659W        W18790  15.873  13.308   0.306  0.1459  0.1119 -0.2987
 3660W        W18791  18.220   9.182   2.796  0.2322  0.1381 -0.0027
 3661W        W18792   2.631   5.743  13.493 -0.2731 -0.0592  0.1212
 3662W        W18793   2.177  18.533  11.969 -0.3090  0.0088  0.2240
 3663W        W18794   0.309   6.784   1.035 -0.1974  0.0130  0.2105
 3664W        W18795   5.459   8.989   4.300 -0.1999 -0.4064 -0.0240
 3665W        W18796  15.274  17.801  10.202 -0.1640 -0.3370  0.0146
 3666W        W18797   4.182  14.750  15.154  0.1763  0.0270 -0.1027
 3667W        W18798   4.788   6.161   1.390  0.2048  0.0153 -0.0160
 3668W        W18799   4.097  17.569   4.217 -0.0968  0.0217 -0.2863
 3669W        W18800   1.747   1.796  14.751  0.1812  0.0862  0.1803
 3670W        W18801   0.475  10.371  11.204 -0.0669  0.1552  0.2364
 3671W        W18802   3.399   8.493   5.081 -0.1100  0.0827  0.2442
 3672W        W18803   9.279  16.525  15.467 -0.4117 -0.2753 -0.1482
 3673W        W18804  11.263  13.430  10.290  0.1845 -0.0497  0.0322
 3674W        W18805  14.211   7.498   5.451  0.0276  0.0204  0.4341
 3675W        W18806   0.734   9.481   6.214  0.2356 -0.1871 -0.1037
 3676W        W18807  17.888   3.924  13.857  0.3628  0.3925  0.2266
 3677W        W18808  17.624  17.614  15.230  0.2049  0.0593  0.0372
 3678W        W18809   0.131   0.743  15.129 -0.3401  0.2168  0.0364
 3679W        W18810   3.411  10.236   4.838  0.1709  0.0944 -0.3498
 3680W        W18811   0.008  11.975  14.407 -0.0586 -0.0113 -0.1046
 3681W        W18812  14.940   5.490   3.129 -0.1860 -0.1708  0.0828
 3682W        W18813  15.002  17.434  11.111 -0.0821 -0.1457 -0.1275
 3683W        W18814  10.966   3.911  13.971 -0.1166 -0.0464  0.0666
 3684W        W18815   2.415   8.593  12.601 -0.1562 -0.1300  0.0931
 3685W        W18816   0.614  11.311   9.943  0.0092  0.3387 -0.3680
 3686W        W18817  18.030   8.646  13.044 -0.1433  0.1013  0.1547
 3687W        W18818   5.582  14.902  15.851  0.0428 -0.2035  0.1069
 3688W        W18819   7.857   4.124  10.414  0.1234  0.0135 -0.2609
 3689W        W18820   1.494  12.750   0.094  0.1063 -0.5157 -0.1013
 3690W        W18821   3.661   8.975  11.110  0.0644  0.0006 -0.2271
 3691W        W18822  15.831   0.907   4.385 -0.2122 -0.1414  0.0914
 3692W        W18823  16.215  11.333   5.080  0.4952  0.2795  0.1673
 3693W        W18824   6.692  14.000  12.865 -0.2126 -0.2671  0.0999
 3694W        W18825  13.302  15.278  14.519 -0.1558 -0.1937 -0.2483
 3695W        W18826  16.663   9.828   0.215 -0.0930 -0.0285 -0.1075
 3696W        W18827   4.500   7.868   5.347 -0.0247  0.2022 -0.1290
 3697W        W18828  12.311   8.420  14.442 -0.0690 -0.2502 -0.1760
 3698W        W18829  17.703   8.645   5.274  0.0405  0.1360  0.1007
 3699W        W18830  15.555  16.069  14.622 -0.0522 -0.0474 -0.4896
 3700W        W18831   0.573   1.798  12.864 -0.1373 -0.2112 -0.0572
 3701W        W18832   2.054  18.401  12.865 -0.3966  0.3436  0.1913
 3702W        W18833   0.220  18.328  15.306  0.3227  0.1399 -0.0312
 3703W        W18834  10.394  13.673   3.752  0.1456  0.2872  0.2312
 3704W        W18835  17.583  13.184  10.372 -0.1751  0.3518  0.0279
 3705W        W18836  12.145   5.561  14.113  0.3962  0.2205 -0.1389
 3706W        W18837   4.365   8.253  13.925 -0.2198 -0.2752 -0.0073
 3707W        W18838  11.871   2.874   2.327  0.0608 -0.1439 -0.0068
 3708W        W18839   7.926   4.338  12.405 -0.0084 -0.1479 -0.1514
 3709W        W18840   7.867  14.740   3.390  0.0838  0.2703 -0.0489
 3710W        W18841  13.878   2.107   5.225  0.0509  0.2373  0.1233
 3711W        W18842  18.026  13.618  10.967  0.0806 -0.1594  0.4006
 3712W        W18843  15.687   8.380   3.313 -0.2536  0.0378  0.2244
 3713W        W18844  10.331   1.078  11.689 -0.0053 -0.0923 -0.0196
 3714W        W18845  17.289  10.246  12.900  0.1140  0.3062 -0.1225
 3715W        W18846  17.812   4.096  14.412 -0.2387 -0.0448  0.3612
 3716W        W18847  11.845   3.172   2.789  0.0724  0.2242  0.2294
 3717W        W18848   0.682  11.399   6.654 -0.4277 -0.0997  0.1275
 3718W        W18849   1.861  12.706  11.642  0.2397  0.3414  0.1543
 3719W        W18850   5.411   2.658   3.366  0.2040 -0.0942 -0.1719
 3720W        W18851   4.705  12.748   2.205  0.0651  0.1220 -0.2376
 3721W        W18852   5.123   4.773  11.390  0.0945 -0.3297 -0.1088
 3722W        W18853   0.729  17.992  11.161 -0.2676 -0.0008  0.0794
 3723W        W18854   3.839   9.582  14.072 -0.1682 -0.1188 -0.1852
 3724W        W18855  13.834   9.093  11.589  0.2004 -0.0390 -0.0770
 3725W        W18856   5.699   2.338  12.587 -0.1511 -0.2230 -0.0028
 3726W        W18857  11.315   1.885   4.756  0.2366 -0.1084 -0.1006
 3727W        W18858  17.644   2.009  11.752  0.1965  0.0241  0.1403
 3728W        W18859   0.395   1.657  15.261  0.0938  0.0170  0.0797
 3729W        W18860   9.564   6.839   2.642 -0.2079  0.1282  0.2329
 3730W        W18861  13.915   9.102  14.581 -0.1933  0.0011 -0.2450
 3731W        W18862  10.785  15.537  14.597  0.3300 -0.0509  0.1251
 3732W        W18863  12.032  11.638   5.166  0.1350 -0.2475  0.2249
 3733W        W18864  13.526  11.881  11.763 -0.1636 -0.0918 -0.0754
 3734W        W18865   4.993   6.509  14.552 -0.2025  0.2420  0.0027
 3735W        W18866   3.589   1.817   0.995 -0.3608  0.0739 -0.1566
 3736W        W18867   9.699   3.225  12.963 -0.0764  0.1810  0.2202
 3737W        W18868  11.953   0.578  10.644 -0.2927  0.1123  0.1367
 3738W        W18869  14.622  10.758  13.911  0.0456  0.0398 -0.0157
 3739W        W18870   8.218  17.081  14.190 -0.0681  0.0871 -0.0195
 3740W        W18871   4.892   8.069  13.746 -0.0663  0.1687  0.0743
 3741W        W18872   0.788  10.040  15.890  0.2504 -0.2447  0.2754
 3742W        W18873   2.072   6.885  14.190 -0.1161  0.2081  0.0288
 3743W        W18874   3.589  13.207  11.219 -0.1463  0.3870 -0.3050
 3744W        W18875  12.514  13.433  12.378  0.0816 -0.3315  0.1063
 3745W        W18876   5.747  17.752  11.394  0.1735 -0.1244  0.1324
 3746W        W18877   6.122   6.143   1.117  0.2303  0.0750 -0.3519
 3747W        W18878   7.515   0.653   3.851 -0.0628 -0.0093 -0.1771
 3748W        W18879   7.884   5.149   3.416 -0.0026 -0.1335  0.0106
 3749W        W18880   1.275   6.299  15.209  0.0964  0.3838  0.1629
 3750W        W18881   9.496  12.129  13.984 -0.3640  0.1830  0.1250
 3751W        W18882  14.171  15.357  15.126 -0.0888  0.2530 -0.0335
 3752W        W18883  14.819   4.998   4.200  0.2081  0.5185  0.0847
 3753W        W18884  18.151  15.851   2.421  0.0285 -0.0874 -0.2450
 3754W        W18885   8.209   6.398   2.620  0.1739  0.3846  0.1398
 3755W        W18886   7.133  13.620  15.319  0.3982  0.1156 -0.0459
 3756W        W18887  17.736   8.549   6.277 -0.1801  0.2136  0.0059
 3757W        W18888   9.610  12.159  11.429 -0.4791  0.0198 -0.0235
 3758W        W18889   7.390   1.337   2.835 -0.0902 -0.1365  0.0526
 3759W        W18890   0.981  10.685  13.763 -0.0081 -0.3010 -0.2011
 3760W        W18891  14.553  10.372   2.133 -0.0199  0.1869 -0.2576
 3761W        W18892  14.757  14.552  14.549 -0.2615 -0.0778  0.0491
 3762W        W18893  11.683   0.123  15.167  0.0407  0.0889  0.3234
 3763W        W18894  10.997  10.793   4.732 -0.2374  0.1161  0.3177
 3764W        W18895  12.350  11.479   1.374 -0.1821 -0.0788 -0.0005
 3765W        W18896  14.213  16.394   5.299  0.1572  0.0918 -0.1498
 3766W        W18897  14.829  14.634   4.464 -0.1916 -0.2337  0.0833
 3767W        W18898   2.315   7.672  11.434 -0.2738  0.0406 -0.3018
 3768W        W18899   7.647  14.321  14.225 -0.1671  0.0200  0.1276
 3769W        W18900   5.029  16.275  15.855 -0.1514 -0.2786 -0.2896
 3770W        W18901  10.842   7.100  14.415  0.1463  0.0402  0.2991
 3771W        W18902   4.026   9.572   5.310  0.4865 -0.1580  0.0825
 3772W        W18903  12.871  13.959  12.979  0.0762  0.1724 -0.2518
 3773W        W18904  16.565   5.977  11.034  0.3700  0.0000  0.0913
 3774W        W18905   3.146   2.560   1.641  0.3485  0.0019  0.0976
 3775W        W18906  10.682  13.614  13.786  0.0308 -0.0525  0.2918
 3776W        W18907   8.487   6.693   1.601  0.3050 -0.0191  0.0763
 3777W        W18908   4.518  10.347  12.508  0.2540  0.0095 -0.3064
 3778W        W18909  13.247   0.610  14.329  0.1383  0.4542 -0.0146
 3779W        W18910  11.677   5.374  15.086 -0.2111  0.3080  0.0834
 3780W        W18911  10.866   4.817   2.883  0.2788 -0.1767 -0.0740
 3781W        W18912  11.655  10.011   5.555 -0.0663 -0.0621 -0.1607
 3782W        W18913   4.616   7.277   0.500 -0.0300  0.0795  0.2632
 3783W        W18914  14.741  12.085   0.520 -0.0166 -0.2282 -0.2055
 3784W        W18915  16.430   8.237  14.054 -0.2017  0.1687  0.0438
 3785W        W18916   3.551   3.518   1.986 -0.2683  0.0118  0.1223
 3786W        W18917  13.126  11.498  12.018  0.2019  0.0644 -0.1261
 3787W        W18918   0.824  13.238  15.238 -0.2876 -0.1397  0.0370
 3788W        W18919  12.897  15.783   4.599 -0.0830 -0.0636  0.1034
 3789W        W18920   0.483   4.294   5.472 -0.0068 -0.0744 -0.0425
 3790W        W18921   8.449   1.517  13.573  0.1412 -0.0784  0.0653
 3791W        W18922   6.737  16.952  14.281  0.2485  0.0670  0.2161
 3792W        W18923  11.032  10.762  12.086 -0.2947  0.3070  0.2465
 3793W        W18924  12.102  16.588  10.530 -0.1912  0.1118 -0.2927
 3794W        W18925   9.544  14.087  15.553  0.0114 -0.0583 -0.4259
 3795W        W18926   1.056  12.182  14.127 -0.0186  0.0255  0.0166
 3796W        W18927   6.015   1.343   2.775 -0.3949 -0.1118  0.2358
 3797W        W18928  16.643   9.726   0.690  0.1813 -0.1737  0.2116
 3798W        W18929  15.290  18.068  11.842 -0.2849  0.1192 -0.3833
 3799W        W18930   6.837  16.635   3.577  0.2874 -0.2145 -0.0091
 3800W        W18931  16.756   7.891  11.526 -0.0394 -0.2591 -0.1168
 3801W        W18932   0.853   9.512   0.014 -0.3821 -0.1906  0.3126
 3802W        W18933  10.016  17.510  13.676  0.0535  0.1578  0.0217
 3803W        W18934  15.604  14.593  11.488  0.2180  0.1216  0.0888
 3804W        W18935   6.689  14.541   1.781 -0.2868 -0.2110 -0.0471
 3805W        W18936   7.230   1.052  12.131 -0.0741  0.1247  0.0064
 3806W        W18937  16.336   4.126  14.045  0.3878  0.1150 -0.1852
 3807W        W18938   6.174   1.688  15.735 -0.1557  0.0610 -0.0072
 3808W        W18939   4.454   4.698  14.467  0.1144 -0.3296 -0.1461
 3809W        W18940   8.669   2.982   2.750 -0.2414 -0.4068  0.1234
 3810W        W18941   8.986  11.533   5.131 -0.1500  0.0741  0.3481
 3811W        W18942   2.614  16.452  12.776  0.1480 -0.1564 -0.1892
 3812W        W18943  17.833  16.867   0.799  0.1407 -0.1541  0.1577
 3813W        W18944   1.115   2.939   4.527  0.1177  0.1026 -0.2855
 3814W        W18945  17.665   9.763   1.493 -0.0099  0.1076 -0.0502
 3815W        W18946   8.798  11.050   1.841 -0.1184  0.0159 -0.0169
 3816W        W18947  18.516  14.046  11.741  0.2782  0.0420 -0.3119
 3817W        W18948   9.623   3.524   5.202  0.0257 -0.1632 -0.3398
 3818W        W18949   9.586  16.611   4.632 -0.1823  0.2287  0.0626
 3819W        W18950   0.807  17.681  15.517 -0.0240 -0.0943 -0.1297
 3820W        W18951   5.559   3.921  10.816  0.5605 -0.4229 -0.3535
 3821W        W18952   0.044  11.650   5.835  0.2223  0.0156 -0.0472
 3822W        W18953   7.442   7.994  14.683  0.2699 -0.1651 -0.1105
 3823W        W18954   6.172   8.122  15.710 -0.1772  0.1063 -0.0066
 3824W        W18955   6.344   6.320  13.914  0.1377  0.0906  0.2906
 3825W        W18956  17.600   8.334  13.313  0.5568  0.0245 -0.1584
 3826W        W18957   9.700   2.674   2.189  0.4410 -0.2787 -0.0644
 3827W        W18958  17.154  16.730   2.171 -0.0984  0.0327  0.1945
 3828W        W18959   4.661   2.318  14.052  0.1819 -0.1583  0.0714
 3829W        W18960   0.381   3.820   4.003 -0.0451  0.1628  0.2057
 3830W        W18961  11.750   5.137  13.535  0.1293  0.1517 -0.0572
 3831W        W18962  14.016  16.118  13.121  0.1630 -0.1857 -0.3749
 3832W        W18963  17.471  17.437   3.138  0.1726 -0.0317  0.0295
 3833W        W18964   0.846  16.682   0.630  0.0250  0.1555  0.1485
 3834W        W18965  10.989   9.314   4.634 -0.1342  0.1204 -0.4646
 3835W        W18966   8.440  11.263   2.461  0.3374  0.3385 -0.1108
 3836W        W18967   7.482   4.774   9.747  0.2083 -0.0349  0.0880
 3837W        W18968  11.674   5.000   2.520 -0.0229 -0.0081 -0.2034
 3838W        W18969   6.804   9.369   0.102 -0.2667 -0.1098 -0.0055
 3839W        W18970   5.996   6.402   2.160  0.2990  0.0098  0.1225
 3840W        W18971   0.525  17.370  13.010  0.1650 -0.0215  0.2193
 3841W        W18972  16.068  14.724  13.242 -0.0898  0.1053 -0.0262
 3842W        W18973  12.003   9.469   4.746 -0.0131 -0.0380 -0.1085
 3843W        W18974  17.869  14.670  11.443 -0.2494 -0.0262 -0.2339
 3844W        W18975  18.307   9.009  13.585  0.3647  0.3464  0.1219
 3845W        W18976   6.341   5.953   2.379 -0.2665 -0.2293 -0.0895
 3846W        W18977   4.658  11.748   1.608  0.5303 -0.0819  0.1076
 3847W        W18978  11.622  16.277   4.358 -0.2517  0.0387  0.0522
 3848W        W18979   6.109  13.152  10.911  0.0583 -0.0580 -0.3574
 3849W        W18980   0.672   0.497   3.962  0.0148  0.0653 -0.1287
 3850W        W18981  10.910   8.651  13.747 -0.0949  0.2072 -0.2598
 3851W        W18982  13.979  18.155  13.279 -0.4644  0.1006  0.0622
 3852W        W18983   0.733   1.393   6.191 -0.0639  0.1021  0.0920
 3853W        W18984   0.911   3.661  12.765  0.1763 -0.0686  0.1315
 3854W        W18985   4.844   4.190   1.204 -0.2271  0.1797 -0.1538
 3855W        W18986   0.521  13.759   9.984  0.2656  0.2890  0.3169
 3856W        W18987  16.618   9.496  15.262 -0.1204  0.1281 -0.0082
 3857W        W18988  15.886   2.144  11.894  0.1542  0.0453  0.0310
 3858W        W18989   6.283  12.273   9.516 -0.1806 -0.2472 -0.2432
 3859W        W18990   4.689  12.391   3.158 -0.2584  0.0789 -0.1079
 3860W        W18991   2.797   5.973  10.912 -0.0849 -0.1068  0.2878
 3861W        W18992  11.400  11.860  10.977  0.1825  0.0202  0.0182
 3862W        W18993   0.833  11.551  15.494  0.0392  0.1517  0.4382
 3863W        W18994  10.112   2.759  14.531 -0.2013  0.4217 -0.0280
 3864W        W18995  16.226  15.588   0.891 -0.2015 -0.1559  0.2518
 3865W        W18996  14.738  13.555   0.248 -0.0260  0.2411  0.0782
 3866W        W18997   2.238  10.267  13.486  0.1153  0.1133 -0.3540
 3867W        W18998  15.607  12.067   5.589  0.0294 -0.1906 -0.3764
 3868W        W18999   1.229   8.814  15.056 -0.1295 -0.2201  0.1131
 3869W        W19000  12.281  14.886  13.848 -0.0017 -0.2516  0.0616
 3870W        W19001  14.367   7.927  12.450 -0.1917  0.2731 -0.0961
 3871W        W19002  10.577  13.650  11.905  0.0202  0.1347  0.4487
 3872W        W19003  18.288  15.274  15.451 -0.3479 -0.0368 -0.0240
 3873W        W19004   6.868   1.414  12.237  0.1268 -0.0340 -0.0134
 3874W        W19005  15.622  16.934   5.077  0.1263 -0.1255 -0.1316
 3875W        W19006   4.938  17.260  15.231 -0.1990  0.1054  0.1125
 3876W        W19007   1.243  12.919   0.463  0.3504 -0.1407 -0.1411
 3877W        W19008  14.323  11.419   2.066  0.1959  0.1373  0.0881
 3878W        W19009   5.619   1.378  15.005 -0.1017 -0.0529  0.0910
 3879W        W19010   8.419  15.960   1.476  0.1688  0.1656  0.4901
 3880W        W19011  15.097  16.256  12.044  0.0006 -0.3085 -0.1123
 3881W        W19012   8.862  10.490  15.328 -0.1744 -0.1050 -0.0980
 3882W        W19013   2.653   4.117  11.837 -0.2175  0.0301 -0.2306
 3883W        W19014  16.343  10.127   2.908  0.1735  0.2823 -0.1599
 3884W        W19015   1.930   5.158  13.068 -0.0859  0.2600  0.2147
 3885W        W19016   1.779  18.367   1.001 -0.1838 -0.5480 -0.0134
 3886W        W19017   0.441  17.871   4.946  0.1006  0.0239 -0.1558
 3887W        W19018   1.304   2.138  12.655  0.2298  0.0018 -0.1863
 3888W        W19019  18.373   4.795  12.749 -0.2038 -0.0145  0.1851
 3889W        W19020   5.148  12.460  12.477  0.3460 -0.0800  0.0317
 3890W        W19021   9.805   0.532   4.338 -0.2908  0.0577 -0.2162
 3891W        W19022   2.354   1.108   6.446 -0.1787  0.0284 -0.1447
 3892W        W19023   4.038   9.174   0.737 -0.2794 -0.0066 -0.5256
 3893W        W19024  18.379   2.172   1.943 -0.6056 -0.0503 -0.0378
 3894W        W19025  13.314  16.526  14.639 -0.0135  0.1377 -0.1154
 3895W        W19026  14.710  12.834   3.286  0.0455 -0.1921 -0.2284
 3896W        W19027  14.438  14.059   1.224  0.2348  0.2905  0.0880
 3897W        W19028  17.641  13.323   5.445 -0.0196  0.0309  0.0045
 3898W        W19029   2.187  14.021   0.380  0.0924 -0.0605  0.2902
 3899W        W19030   2.287  11.089   2.830 -0.2635  0.6347  0.0106
 3900W        W19031   5.184  15.449   2.347  0.1977 -0.2193  0.0061
 3901W        W19032   4.739   4.748   4.589  0.1687 -0.1495  0.1027
 3902W        W19033  18.010   1.047  14.387 -0.1773 -0.0599  0.2360
 3903W        W19034  14.451   6.027  12.018 -0.1716  0.3240  0.2423
 3904W        W19035  13.899   7.167  12.009  0.0445  0.1376  0.1358
 3905W        W19036   0.526  15.014   1.766  0.1964 -0.1768 -0.2359
 3906W        W19037   9.578   2.437   1.790  0.1903 -0.1945 -0.1746
 3907W        W19038  12.606   9.922  12.905 -0.4773 -0.1380  0.0396
 3908W        W19039   8.177   4.729   6.209  0.0419  0.1586  0.2882
 3909W        W19040   4.710   0.400   0.423  0.1324  0.0458  0.2165
 3910W        W19041  12.956  10.091   0.220 -0.0524 -0.1138 -0.1070
 3911W        W19042  15.152  17.048   2.481 -0.3944 -0.0626 -0.2120
 3912W        W19043  15.222   0.036   0.430 -0.0898  0.0349 -0.0626
 3913W        W19044  18.112   8.692  15.003 -0.0181  0.0980  0.1068
 3914W        W19045   5.182   7.236  15.719  0.3010 -0.1712 -0.0632
 3915W        W19046  10.601  10.014   5.715 -0.2694  0.3149  0.0607
 3916W        W19047  13.364   9.512  10.688  0.1758  0.2394 -0.1167
 3917W        W19048   9.954   2.014  11.596 -0.1548  0.2274 -0.1232
 3918W        W19049  13.364   1.537  11.309 -0.0894  0.1349 -0.1717
 3919W        W19050  17.363  16.790  10.308 -0.0740 -0.0294  0.1621
 3920W        W19051  16.623  15.829   3.239 -0.0264  0.3509 -0.0090
 3921W        W19052   6.027  11.977   5.049  0.0947 -0.0158 -0.2456
 3922W        W19053   7.106   0.394   4.867  0.1424  0.1140 -0.0847
 3923W        W19054  16.956   0.538   0.846 -0.1602 -0.1633  0.4104
 3924W        W19055   8.659  10.835   4.652  0.1411  0.0873 -0.0140
 3925W        W19056  15.097  12.319   5.380 -0.0375  0.2814  0.0102
 3926W        W19057  11.580   4.252  15.659  0.1348 -0.1444 -0.1883
 3927W        W19058  12.411   6.588   0.471  0.1008  0.2431  0.0417
 3928W        W19059   0.164   4.451  14.758  0.1827  0.4308 -0.1123
 3929W        W19060  11.629   7.054  11.216 -0.1643 -0.0207  0.0975
 3930W        W19061   7.994   0.118   2.583 -0.1191 -0.0348 -0.0558
 3931W        W19062  12.140  17.417  12.046 -0.0929  0.0430 -0.1500
 3932W        W19063   4.080   5.688  12.121  0.1590 -0.0048  0.2123
 3933W        W19064  15.214   3.385  12.201  0.2455  0.1650 -0.1244
 3934W        W19065  10.185   0.574   1.167  0.0049  0.1668  0.2292
 3935W        W19066   8.793  14.792   0.114 -0.2025 -0.1299 -0.1219
 3936W        W19067  18.074   7.451   2.855 -0.0920  0.0287  0.1307
 3937W        W19068  17.741   3.074   4.397  0.4377  0.2571  0.4894
 3938W        W19069  15.606  15.558  11.652  0.1738 -0.2117  0.5755
 3939W        W19070  15.349  14.392   1.627 -0.0107  0.1537  0.2041
 3940W        W19071   0.225   3.260   1.390  0.1134 -0.0318 -0.3543
 3941W        W19072  18.384   0.937  11.841  0.1646  0.0065  0.0481
 3942W        W19073   0.748  17.388   0.866 -0.3322  0.2340  0.4059
 3943W        W19074  17.153   8.130   1.173  0.0117  0.0989 -0.3719
 3944W        W19075   6.435  13.158  15.036  0.0800 -0.0486 -0.1708
 3945W        W19076   3.907   4.368  14.526  0.0150  0.3123  0.1254
 3946W        W19077   8.244  12.002   1.359 -0.1263 -0.0098 -0.4788
 3947W        W19078   3.864   0.296   2.274 -0.0250  0.1118  0.1204
 3948W        W19079  14.846   7.912  15.474  0.0081 -0.1087  0.2789
 3949W        W19080  10.381   8.628  12.172 -0.0842  0.0325 -0.0052
 3950W        W19081  14.371   1.259   4.105  0.0634 -0.2512  0.3437
 3951W        W19082  14.527   1.362  12.051 -0.1009  0.0631  0.3859
 3952W        W19083   3.853  15.088  15.269  0.0609  0.1453 -0.1745
 3953W        W19084   3.142  13.390   3.364  0.3330  0.3239 -0.0997
 3954W        W19085  12.852   3.325   2.880 -0.2100 -0.0303 -0.0339
 3955W        W19086  13.524   0.183   3.233  0.2037  0.0532  0.3621
 3956W        W19087  14.214  15.194  10.210  0.1844  0.1017 -0.2800
 3957W        W19088  16.041  16.480  13.702  0.1272 -0.2881 -0.0853
 3958W        W19089  10.278  15.689   1.469 -0.0219  0.0703 -0.1716
 3959W        W19090  13.357   1.190   3.280 -0.1620 -0.0400 -0.0628
 3960W        W19091   4.958  17.281  12.941 -0.3064  0.0924 -0.0067
 3961W        W19092  11.252   6.135   0.886  0.0316  0.0464 -0.0418
 3962W        W19093   5.042  18.357   0.455 -0.1514 -0.0276 -0.0250
 3963W        W19094   9.704  17.906   3.303 -0.1807  0.0766 -0.0447
 3964W        W19095   6.266   4.020   0.994  0.1559  0.2187 -0.0413
 3965W        W19096  11.781   5.226   0.572 -0.1524  0.1736  0.3617
 3966W        W19097   2.153   8.698   5.400 -0.0717 -0.1991 -0.2001
 3967W        W19098  12.267   7.980  13.498 -0.0326 -0.2132 -0.2713
 3968W        W19099  10.897   6.309   3.865 -0.2161  0.0713 -0.1528
 3969W        W19100   9.814  15.998   3.354 -0.1412  0.0766  0.1709
 3970W        W19101  11.478   9.407   4.933 -0.0254 -0.1448 -0.0115
 3971W        W19102   5.017  12.168  10.938  0.3901 -0.2735 -0.3330
 3972W        W19103  13.393  11.478  14.653  0.0288  0.0275 -0.0270
 3973W        W19104  17.872  17.595   0.647  0.2757 -0.0487 -0.2851
 3974W        W19105  13.115  14.900  13.149  0.1261 -0.1134 -0.0310
 3975W        W19106   0.699  15.764  14.632  0.2835 -0.0951 -0.3783
 3976W        W19107   3.092   9.689  12.337  0.0695  0.1979 -0.1175
 3977W        W19108  14.082   6.311   1.119 -0.1443  0.2031 -0.2421
 3978W        W19109  17.050  13.287  13.502  0.1482  0.0179  0.2530
 3979W        W19110   0.615  15.684  10.136  0.2154 -0.2857  0.0734
 3980W        W19111   6.243   6.296   1.645  0.0670  0.1194  0.0907
 3981W        W19112   7.885  15.183   1.771 -0.1081  0.1484 -0.0991
 3982W        W19113   3.863  12.539  12.922 -0.3579 -0.2461 -0.0545
 3983W        W19114   7.577   1.193  13.864  0.2789 -0.1733  0.0154
 3984W        W19115  18.001   6.481  11.949  0.0142 -0.0432  0.1623
 3985W        W19116  10.290   4.444  11.627  0.2629 -0.0260  0.2637
 3986W        W19117   9.767  15.590  15.450  0.1941  0.0986 -0.3534
 3987W        W19118  18.461  10.884   0.932  0.0772 -0.1992  0.2038
 3988W        W19119  13.156   7.274   5.249  0.0421 -0.2412  0.0305
 3989W        W19120   3.115  10.659   2.816  0.1439 -0.0297 -0.0202
 3990W        W19121   4.291  17.693   3.221  0.1318 -0.2093 -0.0930
 3991W        W19122   9.309  10.130   2.939  0.0620  0.0381  0.4974
 3992W        W19123   1.798   5.376   5.628  0.0761  0.2464  0.0982
 3993W        W19124  12.770  15.151   3.360 -0.2292  0.2416  0.0613
 3994W        W19125  16.880  18.156   1.541  0.0879  0.1183 -0.1561
 3995W        W19126  17.973   5.093   1.679 -0.1308 -0.0503 -0.2261
 3996W        W19127  15.705  12.305   2.611 -0.1775 -0.2379 -0.3565
 3997W        W19128   3.195  14.934  11.938  0.0170 -0.0404  0.1334
 3998W        W19129   4.268  10.398  14.497 -0.0466  0.3000 -0.2171
 3999W        W19130   6.040  10.270   4.489 -0.0592  0.0880 -0.1645
 4000W        W19131   6.166  17.560  11.669  0.2519 -0.2340  0.1337
 4001W        W19132   3.195   3.828   6.484  0.0911  0.1793  0.0132
 4002W        W19133   3.851   6.149   5.876  0.0016  0.2013 -0.0414
 4003W        W19134   0.503  16.356  15.486  0.1715  0.1482 -0.2340
 4004W        W19135   8.758  17.425  11.477  0.0276 -0.1260 -0.0702
 4005W        W19136  12.862  16.667  12.127 -0.1689 -0.2730  0.3237
 4006W        W19137   1.720  18.191   3.428 -0.1733 -0.0136  0.0446
 4007W        W19138   5.963  15.025  13.488  0.0908 -0.3896 -0.0319
 4008W        W19139  15.808   7.548  15.363  0.2719 -0.2298 -0.3684
 4009W        W19140   7.777  15.399  14.630  0.1922 -0.2319  0.1829
 4010W        W19141  11.824  14.260  11.457 -0.1332  0.0264  0.0432
 4011W        W19142   5.937  11.216  10.423  0.2815 -0.4277 -0.0025
 4012W        W19143  14.634   7.723   0.376  0.1251 -0.0877 -0.1251
 4013W        W19144   7.111  18.239  12.516  0.0855 -0.0441 -0.0249
 4014W        W19145   2.835   0.166   2.009 -0.1983 -0.1346 -0.3623
 4015W        W19146   8.786   5.460  14.559  0.0826  0.4392  0.0061
 4016W        W19147   7.319  18.227   4.204  0.3932 -0.1723 -0.1284
 4017W        W19148  13.316   0.275   1.922  0.1503  0.1703  0.0069
 4018W        W19149   5.194  18.005   4.073  0.0058  0.1144  0.1694
 4019W        W19150  11.103   6.052   1.811 -0.0430 -0.0387  0.3120
 4020W        W19151   6.443  16.471   0.032 -0.3967  0.0775 -0.0431
 4021W        W19152  16.791   9.435   1.123  0.0713 -0.2920  0.0992
 4022W        W19153   0.742   2.653   4.660 -0.1487  0.2732  0.2082
 4023W        W19154  12.090  12.977   0.391  0.0563  0.0536 -0.1719
 4024W        W19155   9.169  15.799  15.006  0.0549 -0.1014 -0.1415
 4025W        W19156  15.369   2.796  12.354 -0.0013  0.3421 -0.0528
 4026W        W19157  15.610   3.673   4.116  0.1543  0.0417 -0.1918
 4027W        W19158  17.082  11.069   5.738  0.1122  0.1658 -0.0727
 4028W        W19159   2.623   8.681   3.775  0.1708  0.1695  0.0904
 4029W        W19160   4.706   0.229  12.536 -0.0438  0.1407 -0.1812
 4030W        W19161   3.637  14.679   3.877 -0.0422 -0.0723  0.0012
 4031W        W19162   2.009   0.438  10.693  0.2298  0.3480 -0.1573
 4032W        W19163   1.400   3.556  15.632 -0.0267 -0.0407 -0.1035
 4033W        W19164   5.915  16.804  14.550  0.0833 -0.1211  0.0328
 4034W        W19165   4.099   0.093   3.712 -0.0199  0.1263  0.0198
 4035W        W19166   6.418   1.601   3.525 -0.0873 -0.1310  0.0669
 4036W        W19167   9.474   7.476   3.523  0.1398  0.1032  0.0004
 4037W        W19168  12.178   6.307  11.423  0.0477 -0.0360 -0.0189
 4038W        W19169   7.040   1.034  11.021 -0.1461  0.2660 -0.1249
 4039W        W19170   5.108   6.681  13.027  0.1689 -0.3286  0.0036
 4040W        W19171   8.612  10.108   3.083  0.0659  0.0136 -0.2267
 4041W        W19172   0.703  13.306   3.911 -0.2309 -0.0549  0.2497
 4042W        W19173  14.202  17.502  14.903  0.1072  0.0671  0.0404
 4043W        W19174   8.714  18.280  12.153 -0.2846 -0.1624 -0.2561
 4044W        W19175   7.809  12.981  10.512  0.0666  0.1471 -0.1168
 4045W        W19176  14.336   7.252   3.640  0.1315  0.0319 -0.0340
 4046W        W19177  16.671  17.989  12.575 -0.0310 -0.0883  0.2363
 4047W        W19178   7.226   5.017  13.208  0.1595  0.1250  0.1585
 4048W        W19179  15.356   0.439  11.337 -0.0370  0.0003  0.1494
 4049W        W19180   6.734  14.195  15.027 -0.3227  0.0883 -0.1253
 4050W        W19181  16.698   8.340   2.791 -0.3261 -0.0494 -0.4038
 4051W        W19182   9.252   0.022  13.466 -0.2180 -0.1604 -0.2694
 4052W        W19183   6.161   9.063  11.331  0.1120  0.0215  0.1852
 4053W        W19184  12.344  16.376  11.457  0.1025  0.1899  0.4710
 4054W        W19185   4.286   7.698  10.906 -0.1694  0.0299  0.0140
 4055W        W19186   6.970  12.198   3.331  0.0112 -0.3325  0.2226
 4056W        W19187   7.804  12.297  13.884  0.0471  0.0405  0.0422
 4057W        W19188  18.140   6.424  15.610 -0.2984 -0.1923 -0.4226
 4058W        W19189   5.867  17.591  14.010 -0.0803 -0.1960 -0.0783
 4059W        W19190   0.462   2.154  12.412  0.0708 -0.2196 -0.1529
 4060W        W19191   3.956   5.140   5.054  0.2142  0.3307  0.1781
 4061W        W19192  11.751   9.329  11.349  0.1392 -0.2328  0.0230
 4062W        W19193  13.887   7.504   3.167 -0.1739  0.1043  0.3275
 4063W        W19194  14.229  11.441   9.892 -0.0707  0.0782 -0.0485
 4064W        W19195   8.145  16.481   1.554 -0.1457  0.2162  0.0044
 4065W        W19196   4.642   3.671   6.355  0.1640  0.0853 -0.0547
 4066W        W19197  18.405   5.442  15.656  0.1374 -0.0431  0.0680
 4067W        W19198   3.959  15.617   2.522 -0.1079 -0.2065 -0.1920
 4068W        W19199   4.507   3.698  12.221 -0.1741  0.0960  0.1216
 4069W        W19200   0.014  10.730  15.149 -0.2317 -0.0683 -0.0584
 4070W        W19201   6.275   2.425  10.485  0.2004  0.3154  0.2508
 4071W        W19202  16.787   9.222   3.911  0.0107 -0.2891  0.1520
 4072W        W19203   2.975   7.658  13.448  0.1776  0.0502  0.1707
 4073W        W19204  10.363   1.369  13.773 -0.0382 -0.2369  0.1099
 4074W        W19205   2.447  16.679  14.299 -0.1283  0.0983 -0.0505
 4075W        W19206  12.205   8.218  12.738  0.1538  0.0253  0.0051
 4076W        W19207  17.280  11.883  14.462 -0.1403 -0.0966 -0.3098
 4077W        W19208   3.003   4.891  13.778  0.0048  0.0776 -0.1363
 4078W        W19209  16.634   5.812  13.044  0.0190 -0.0002 -0.2200
 4079W        W19210   7.942   0.743   2.895 -0.0164  0.2890 -0.1180
 4080W        W19211   8.021   2.813  14.386  0.3084  0.1371 -0.1412
 4081W        W19212   6.005  14.358   5.036  0.0765  0.0482 -0.1284
 4082W        W19213   9.348   7.079  13.571  0.0806  0.0669 -0.2433
 4083W        W19214  14.027  16.892   2.538 -0.1069 -0.2436 -0.4477
 4084W        W19215  14.300  10.688   1.729  0.1157 -0.2305  0.1668
 4085W        W19216  14.442   1.828   0.883 -0.3754  0.0061 -0.0700
 4086W        W19217   0.057  16.179  15.305 -0.1016 -0.0919  0.0089
 4087W        W19218  15.224  14.427  14.642  0.0466 -0.3578  0.0385
 4088W        W19219   9.827  16.676  11.920  0.0518 -0.0573 -0.0061
 4089W        W19220   6.665   7.685   5.037  0.2645 -0.0506 -0.0407
 4090W        W19221   5.049   7.856  10.185 -0.1228  0.1857 -0.0587
 4091W        W19222  14.518  15.802   4.263 -0.2715  0.2695 -0.2163
 4092W        W19223   0.273   3.668   4.947  0.1665  0.0529  0.1072
 4093W        W19224   3.913   2.174   0.168 -0.0177  0.0877 -0.0844
 4094W        W19225   7.223  13.292   1.330 -0.2602  0.0675 -0.0222
 4095W        W19226   7.758  12.904   0.353 -0.0720 -0.3402 -0.1043
 4096W        W19227   4.837  11.003  13.033  0.0935  0.0990 -0.1612
 4097W        W19228  13.364   9.238  12.759  0.1925 -0.2940  0.1141
 4098W        W19229  12.880  16.151   3.223 -0.5261  0.4668 -0.1715
 4099W        W19230  18.253  14.037  12.154 -0.3956 -0.0883  0.2991
 4100W        W19231  17.878   1.128   4.768  0.0995 -0.0231 -0.1490
 4101W        W19232   4.276   4.076  14.789 -0.1901 -0.1617 -0.1901
 4102W        W19233   2.530  18.340   0.664  0.0777  0.1187  0.0062
 4103W        W19234  11.131   9.591   0.420 -0.0947 -0.0490  0.1976
 4104W        W19235   2.964  12.256   4.358 -0.0992  0.0027 -0.2172
 4105W        W19236   1.831  16.511  11.479 -0.0795 -0.1730  0.1227
 4106W        W19237   6.770   7.599  10.582  0.3256 -0.0010 -0.0898
 4107W        W19238   0.612   7.943   0.980  0.2101  0.1268  0.1187
 4108W        W19239   3.431   1.992  13.612 -0.3009  0.3235 -0.2388
 4109W        W19240   6.686   0.760   5.555  0.1838  0.0815  0.2409
 4110W        W19241  10.099  15.818  11.749 -0.1123 -0.0309 -0.0223
 4111W        W19242   6.985  18.539  10.028 -0.1573 -0.2047 -0.2103
 4112W        W19243  16.689  10.353   3.281  0.0134 -0.0697 -0.0834
 4113W        W19244  11.613   8.424   4.389  0.0367 -0.5205 -0.0481
 4114W        W19245   6.083   3.270  14.809  0.1054 -0.5630 -0.1266
 4115W        W19246  13.087  15.622   0.685  0.2510  0.0101  0.0487
 4116W        W19247   2.467   6.269   1.367 -0.3263 -0.4703 -0.0113
 4117W        W19248  11.459   3.359   2.546 -0.1888  0.3629 -0.1102
 4118W        W19249  12.902  15.045   0.682 -0.3691  0.2468  0.2027
 4119W        W19250  10.470   2.626   2.826 -0.1674 -0.2307  0.1189
 4120W        W19251  12.291   5.450  11.548 -0.3338  0.2624  0.1223
 4121W        W19252   4.588  14.259   3.032 -0.2784 -0.2387  0.0213
 4122W        W19253   1.691   0.865   5.387 -0.3370  0.0575  0.0358
 4123W        W19254   0.425   2.230   5.331  0.4349  0.0145 -0.3483
 4124W        W19255  14.831   9.930   4.870 -0.0954 -0.0804  0.0312
 4125W        W19256   6.133   5.922   1.948  0.2415 -0.0556  0.0407
 4126W        W19257  17.132   3.442  13.217 -0.2554  0.4051 -0.1090
 4127W        W19258   6.058   3.637   1.187 -0.4247  0.0944 -0.2393
 4128W        W19259  16.531  15.020   4.420  0.2202  0.1151  0.1832
 4129W        W19260  14.813  17.419   2.592  0.3046 -0.3589 -0.0393
 4130W        W19261   0.002   2.526  15.526  0.1137  0.2091  0.0238
 4131W        W19262  17.121   7.557   3.957  0.1381  0.0202 -0.0125
 4132W        W19263   5.361   4.379   4.130  0.2170 -0.2391 -0.2101
 4133W        W19264  10.407   3.943  14.641  0.0005  0.2531  0.3055
 4134W        W19265   7.749  10.809   5.188  0.3110 -0.0931 -0.0552
 4135W        W19266   0.240   3.380   2.078  0.0233 -0.3246 -0.0452
 4136W        W19267   7.176   4.191   0.540 -0.0438 -0.2690  0.0653
 4137W        W19268  13.703   2.250   0.158 -0.4334  0.0916 -0.1375
 4138W        W19269  17.752   0.841   0.339  0.1111 -0.0402  0.0645
 4139W        W19270   4.060   0.534  11.380 -0.1351 -0.1764  0.0829
 4140W        W19271   1.269  12.471  13.767 -0.0746 -0.1464  0.1073
 4141W        W19272  11.800  12.759   2.330 -0.2226 -0.1327 -0.1213
 4142W        W19273   0.345   9.912   2.432 -0.2717 -0.1757  0.1686
 4143W        W19274   0.900   5.838   5.648 -0.0973  0.0219 -0.0899
 4144W        W19275   4.217   7.637   4.799 -0.1527 -0.4366  0.2201
 4145W        W19276   2.421  17.963  11.040  0.1892 -0.1094 -0.0638
 4146W        W19277  18.002   9.933   0.883 -0.1957 -0.5138  0.1162
 4147W        W19278   9.254  14.879   4.709 -0.0652 -0.0975  0.2410
 4148W        W19279   8.083  10.650  14.394  0.0225 -0.1214 -0.1419
 4149W        W19280  10.501  11.965   1.004  0.1642 -0.2483 -0.1410
 4150W        W19281   5.713   8.303  15.746  0.0117  0.1537 -0.1375
 4151W        W19282  17.955   9.895  10.832  0.1833 -0.0447 -0.0723
 4152W        W19283  10.823   7.326   4.510 -0.3699 -0.2256 -0.1044
 4153W        W19284   5.807   9.644   2.028  0.1126  0.1374  0.0793
 4154W        W19285  15.262  15.280  12.924 -0.1407 -0.2112  0.0849
 4155W        W19286  17.741  14.647   2.881 -0.0473 -0.0916 -0.1651
 4156W        W19287   5.393  10.415   2.832 -0.2784  0.1018 -0.0684
 4157W        W19288   1.974  18.508   3.102  0.3930 -0.0812 -0.0057
 4158W        W19289  12.192  12.972  14.538  0.0577 -0.1066  0.2139
 4159W        W19290   3.165  14.555   1.560  0.2038  0.2689  0.3091
 4160W        W19291   9.560  14.778  14.837 -0.0704 -0.1425 -0.1570
 4161W        W19292   3.891  13.944  12.831  0.2180 -0.1887 -0.2843
 4162W        W19293   9.513   3.914   2.705 -0.0097 -0.2446  0.0895
 4163W        W19294  10.419  13.969  12.851  0.0186 -0.0861 -0.0070
 4164W        W19295  18.199   5.629  11.495  0.0889 -0.3321 -0.1663
 4165W        W19296  10.305  11.161   3.430 -0.0852  0.2378 -0.0755
 4166W        W19297   1.530   3.723   2.831 -0.0733 -0.1538  0.1371
 4167W        W19298   6.323   6.080   5.210 -0.3378 -0.0943 -0.4155
 4168W        W19299  15.392   7.718   2.385 -0.3062 -0.4256 -0.0106
 4169W        W19300   3.385  14.467   4.698  0.2020  0.0531 -0.1935
 4170W        W19301  13.892  11.042   0.467 -0.0684 -0.1617  0.1731
 4171W        W19302  13.826   2.552  15.619  0.2118 -0.0003 -0.2093
 4172W        W19303   9.432   0.525  14.128  0.0339  0.0814 -0.2019
 4173W        W19304  13.732   3.529   4.224 -0.0587  0.0580  0.0865
 4174W        W19305   5.018  14.917   0.206 -0.1675 -0.0984  0.1476
 4175W        W19306  11.554  15.291   3.851 -0.0372 -0.2001 -0.1777
 4176W        W19307  14.232   3.116  11.324 -0.0845 -0.2330 -0.0967
 4177W        W19308   3.580   6.843  10.171  0.1048 -0.0804 -0.0203
 4178W        W19309  12.863   8.166  14.530  0.1833 -0.2712  0.1389
 4179W        W19310   1.682  13.017   2.985 -0.2574 -0.3119 -0.0971
 4180W        W19311   9.512   0.167   4.047  0.0984 -0.0094  0.0457
 4181W        W19312   9.768  12.078  15.726  0.0776 -0.2551  0.0736
 4182W        W19313   9.183   9.669  11.177  0.1494  0.0214 -0.0039
 4183W        W19314   9.251   3.802   0.766  0.0062 -0.0695  0.4437
 4184W        W19315   0.535  18.404  10.422  0.2479  0.2810 -0.5687
 4185W        W19316   8.800   3.992   6.137  0.2210 -0.2721 -0.0014
 4186W        W19317   5.089   4.973   4.192  0.0011 -0.1061 -0.0103
 4187W        W19318  18.360   5.741  15.230 -0.0648 -0.0169  0.2217
 4188W        W19319   3.379  12.206  15.748 -0.0530 -0.1961 -0.2998
 4189W        W19320   3.499   9.750   0.152  0.0932 -0.3130 -0.0692
 4190W        W19321   7.582  12.949  13.065  0.1528  0.0321 -0.0291
 4191W        W19322   0.049   7.449  13.455  0.2892 -0.1076  0.0791
 4192W        W19323   8.887   4.594   2.074  0.1616 -0.3130  0.2020
 4193W        W19324  10.399  18.047   4.647 -0.0644  0.0681 -0.2154
 4194W        W19325   1.462  13.728   2.648 -0.1408  0.0719  0.0845
 4195W        W19326  12.602   0.434  11.576  0.0821 -0.1624 -0.2991
 4196W        W19327   3.361   4.806  11.453  0.2690  0.4356 -0.5539
 4197W        W19328   5.191  10.403  13.600  0.1260 -0.1067 -0.1842
 4198W        W19329  11.419   1.047  11.975  0.0407  0.0739 -0.1603
 4199W        W19330  14.337   3.111  14.969 -0.3791  0.0089  0.0311
 4200W        W19331  17.005   4.591  12.587  0.1006  0.3327  0.0610
 4201W        W19332   8.144  11.443  10.244  0.0343  0.1999  0.1783
 4202W        W19333  16.292   0.428   1.585 -0.2955 -0.2072 -0.4883
 4203W        W19334   2.373   1.149  11.507  0.3758  0.1751 -0.0823
 4204W        W19335   9.423  15.246   3.411 -0.0181  0.2057 -0.3087
 4205W        W19336   9.294   2.302  13.644  0.0970 -0.0618  0.0020
 4206W        W19337  16.271   7.190   0.518  0.0044 -0.2473  0.2251
 4207W        W19338   5.552  10.642  11.458  0.1421  0.2398 -0.2496
 4208W        W19339  17.026  17.416   2.709 -0.0138 -0.0115 -0.3216
 4209W        W19340   9.412   1.170  10.429  0.2756 -0.3132 -0.3248
 4210W        W19341  11.076   7.521   4.869 -0.3952  0.1798  0.1753
 4211W        W19342   6.655   8.406   1.198 -0.0892  0.2922  0.1434
 4212W        W19343  11.589   7.591  11.881 -0.2004 -0.1404  0.0593
 4213W        W19344   2.468   0.473  12.840  0.0183 -0.1527  0.2116
 4214W        W19345   1.546   1.477  11.403 -0.0762  0.1233  0.0960
 4215W        W19346  12.904  10.655   3.543 -0.1573  0.1830  0.6317
 4216W        W19347  11.024  15.596   0.487  0.0643 -0.1298 -0.2518
 4217W        W19348   0.900   3.754  13.410 -0.0069 -0.0242 -0.4324
 4218W        W19349  15.843   5.822   5.523 -0.0733 -0.2962  0.1395
 4219W        W19350   2.480  17.330  11.259 -0.1171  0.0835 -0.1925
 4220W        W19351  11.215   3.393  13.084  0.1794 -0.1442 -0.1022
 4221W        W19352  13.870  10.680   0.821 -0.0906  0.1294 -0.0901
 4222W        W19353   1.311  13.878  14.914  0.0647  0.2514  0.3255
 4223W        W19354   2.104  17.895   1.041 -0.1180 -0.2480  0.3062
 4224W        W19355  18.122  11.405  11.938  0.3150 -0.3326  0.1484
 4225W        W19356   4.900   0.525   2.760  0.1364 -0.0026 -0.0507
 4226W        W19357   7.467  10.427  15.442  0.6003  0.2406  0.2085
 4227W        W19358   8.761   7.468   5.062  0.2279 -0.1738  0.0997
 4228W        W19359   9.918   3.800   3.222 -0.1957  0.2006  0.2570
 4229W        W19360   1.191   0.910  12.389 -0.1003  0.0729 -0.3301
 4230W        W19361  17.962  12.234  12.350 -0.3334  0.0654 -0.0136
 4231W        W19362  14.776   3.379   3.392  0.0010 -0.0065  0.0338
 4232W        W19363   7.191   1.184   1.987  0.1605  0.0039 -0.0083
 4233W        W19364   7.210  14.881  10.554  0.0661 -0.1152 -0.1943
 4234W        W19365   2.629   3.155  15.401  0.2258 -0.1982  0.4040
 4235W        W19366   5.360  12.029  14.793 -0.0985 -0.1061 -0.1860
 4236W        W19367   6.490   5.954   3.229 -0.2182 -0.3372 -0.1669
 4237W        W19368   0.541  18.538   0.815 -0.0477  0.0589  0.0600
 4238W        W19369   3.690   8.579  13.230 -0.0013  0.1495  0.1591
 4239W        W19370  13.548  16.289   1.371  0.0371  0.1071  0.2320
 4240W        W19371   2.128   3.036  12.951 -0.0414 -0.0149 -0.3772
 4241W        W19372  10.030  11.331  12.795  0.0653 -0.0636  0.3264
 4242W        W19373   2.865  16.552   3.477  0.0428  0.2451  0.0413
 4243W        W19374   7.684  17.224   0.464 -0.1184 -0.0208 -0.1725
 4244W        W19375  10.104   9.885   2.039  0.3730 -0.0495 -0.0680
 4245W        W19376  10.400  10.099  15.421 -0.1640 -0.1762 -0.0273
 4246W        W19377   2.072   9.476  15.657  0.0389 -0.0501  0.0516
 4247W        W19378  14.198   4.100  10.486 -0.3351 -0.3536  0.0162
 4248W        W19379  11.889   4.195  10.831 -0.2883 -0.1150 -0.1594
 4249W        W19380   6.917   6.483   5.441 -0.1978 -0.2602  0.2626
 4250W        W19381   2.692   1.544  15.018 -0.0631 -0.2089 -0.5146
 4251W        W19382  16.171  12.624   4.927 -0.2377 -0.2039  0.3580
 4252W        W19383  11.702   4.892   3.580  0.2752 -0.2587  0.1284
 4253W        W19384  13.102   5.335  11.189 -0.0882  0.0119  0.3113
 4254W        W19385   9.188   9.511   1.068 -0.0559 -0.1078 -0.0837
 4255W        W19386   1.733  16.915  10.388  0.1634 -0.0405 -0.0746
 4256W        W19387  12.379   0.111   4.967 -0.1199 -0.1210 -0.0166
 4257W        W19388   0.415   1.102   1.671  0.0334  0.1423  0.0587
 4258W        W19389  17.168   0.405   0.151  0.1805 -0.1983 -0.0008
 4259W        W19390   1.709  16.997  12.756  0.0497 -0.1362 -0.1386
 4260W        W19391  10.952  18.214  13.161 -0.3269  0.0276 -0.3718
 4261W        W19392  16.098  14.541  11.393 -0.0060 -0.2275  0.0648
 4262W        W19393   5.269  14.190  11.924 -0.1976 -0.0437 -0.0218
 4263W        W19394   0.628   1.148  12.071 -0.2545 -0.0645  0.3125
 4264W        W19395   0.231   8.543  12.044 -0.2904 -0.0794  0.2334
 4265W        W19396  18.291  18.461   3.782  0.0947 -0.2568  0.4475
 4266W        W19397   1.387   4.120   2.463  0.0736 -0.3250  0.1905
 4267W        W19398   9.240   7.329  11.682  0.0566 -0.0884 -0.2079
 4268W        W19399  15.846  13.601   3.768 -0.4181 -0.1158 -0.2486
 4269W        W19400   7.852   8.480   3.621  0.1313 -0.2157  0.0237
 4270W        W19401  15.067  13.734   4.441  0.1072  0.3190  0.1310
 4271W        W19402   1.997   0.862  14.456  0.1391  0.0006 -0.3576
 4272W        W19403   3.371   2.387  11.864 -0.2793 -0.2310 -0.1026
 4273W        W19404   3.250  13.411  11.528  0.1776 -0.0728 -0.0277
 4274W        W19405   7.689  14.769  12.210 -0.2611  0.2014 -0.0324
 4275W        W19406  10.110  10.141   0.318 -0.3528 -0.0176  0.0806
 4276W        W19407  12.938  16.490   4.186  0.0121  0.1178 -0.0646
 4277W        W19408   6.309   9.385   4.162 -0.3500  0.0581  0.2398
 4278W        W19409  10.178   9.956  13.997  0.1005 -0.2597  0.0313
 4279W        W19410   2.546   2.729  13.139 -0.0672 -0.2742 -0.0089
 4280W        W19411   8.905   3.584   1.474  0.1263 -0.1416 -0.3198
 4281W        W19412   5.395   2.305   0.925  0.0010 -0.1059 -0.1871
 4282W        W19413  15.881  18.312   5.421  0.0698  0.2130  0.1756
 4283W        W19414   3.767   9.812   0.647 -0.1459 -0.0740  0.1821
 4284W        W19415   5.932  11.968  10.299 -0.0343  0.0708  0.0505
 4285W        W19416   5.126   3.623  15.593 -0.0977  0.3541  0.1400
 4286W        W19417   6.080   4.586   1.077  0.2164  0.3520  0.0171
 4287W        W19418  18.545   5.285   3.313 -0.1184  0.1770 -0.1500
 4288W        W19419  11.435   0.461   0.853 -0.0490  0.0507 -0.1490
 4289W        W19420   5.208   8.240  15.803 -0.1378  0.2743  0.0597
 4290W        W19421  15.979  14.655  15.609 -0.0448  0.1215 -0.1646
 4291W        W19422  16.974   2.253   3.922  0.1244  0.0472 -0.3915
 4292W        W19423   8.589   8.194   3.509 -0.0468 -0.2222  0.3092
 4293W        W19424   1.663   3.126   3.007  0.1861 -0.0806 -0.1673
 4294W        W19425  12.503  15.694   3.214 -0.1878  0.0146  0.2482
 4295W        W19426   5.024   1.384  15.949 -0.3332  0.1602  0.1180
 4296W        W19427   1.252   4.829   0.496  0.1225  0.1124  0.2059
 4297W        W19428   0.923  15.584   2.168  0.0006  0.0890  0.2517
 4298W        W19429  15.663  11.792  14.997 -0.1281  0.2923  0.0265
 4299W        W19430  11.060  17.256   9.773  0.3265  0.0545 -0.0689
 4300W        W19431   2.193   4.238  12.091  0.0061 -0.0587  0.3649
 4301W        W19432   9.122   0.571  10.875  0.0525 -0.6917  0.0438
 4302W        W19433   9.012  10.414   3.224 -0.1592 -0.0109 -0.2309
 4303W        W19434   5.430  18.277  15.576  0.3013  0.0935 -0.3079
 4304W        W19435  10.200  10.476  12.578  0.2063  0.1920 -0.0322
 4305W        W19436  18.235   5.339   3.765  0.0582 -0.0143  0.1365
 4306W        W19437  15.999   3.729  11.808  0.2430 -0.2100  0.1683
 4307W        W19438  14.128   0.261   3.282 -0.1017  0.2110 -0.1567
 4308W        W19439  12.436   3.631   2.157 -0.1326  0.0345 -0.0540
 4309W        W19440  12.552   5.127   4.170 -0.0659 -0.0373  0.0901
 4310W        W19441  13.910  17.451  12.064  0.1586 -0.2256  0.0228
 4311W        W19442  15.516   1.655   3.334  0.3411  0.0250  0.2215
 4312W        W19443  16.022   4.735   0.638 -0.0720 -0.1221 -0.5563
 4313W        W19444   7.739   9.560   1.885 -0.1621  0.3962  0.0527
 4314W        W19445   8.589  16.983  10.375 -0.0417  0.3868 -0.0109
 4315W        W19446   5.723  16.877  10.485 -0.0003  0.0928 -0.1998
 4316W        W19447   8.738   3.996   5.326 -0.1644  0.0546  0.2705
 4317W        W19448  17.272  17.812  12.290 -0.1218  0.3592 -0.0395
 4318W        W19449  14.470   5.013  12.705  0.0181 -0.1586 -0.1190
 4319W        W19450  15.225   2.922   3.525  0.3396  0.0917  0.0155
 4320W        W19451  10.717  14.435   5.138  0.2450  0.0120 -0.0307
 4321W        W19452   3.966  18.189   2.968  0.2659  0.0952 -0.1512
 4322W        W19453   1.600  13.427   5.470  0.1253 -0.1726 -0.0488
 4323W        W19454   7.513  17.174   3.190  0.2061  0.2029  0.4306
 4324W        W19455   0.793  14.090  13.045  0.2215  0.4160  0.3143
 4325W        W19456   6.982  17.753  11.324 -0.2838 -0.2023  0.1910
 4326W        W19457  15.666  14.897  12.229  0.1335  0.0260 -0.1112
 4327W        W19458  14.397  11.361   3.202 -0.1186  0.0967  0.1088
 4328W        W19459   6.780  17.371  15.789 -0.0862  0.0323 -0.1650
 4329W        W19460  15.496   7.972   0.252  0.1225  0.0742  0.1971
 4330W        W19461  10.028   2.062   2.916 -0.1051  0.1307 -0.2650
 4331W        W19462   6.599   0.190  14.260  0.0557  0.0356  0.1682
 4332W        W19463  11.687   3.485   3.420 -0.0614  0.0998  0.1301
 4333W        W19464   1.518  13.833   4.060  0.1679  0.0685 -0.1531
 4334W        W19465  10.054   9.490   0.952 -0.1014 -0.1711 -0.2461
 4335W        W19466  18.474  13.600   2.879  0.3054 -0.0242  0.3248
 4336W        W19467   7.445   2.122  11.066  0.0856  0.1680 -0.1726
 4337W        W19468   2.801  10.603   0.176  0.0372 -0.5072 -0.0753
 4338W        W19469   7.003  15.595  13.725  0.0695  0.0925 -0.3159
 4339W        W19470   9.173  12.008  13.577  0.2023 -0.0194 -0.0139
 4340W        W19471  13.711  12.394   3.997  0.0005 -0.0575  0.0409
 4341W        W19472   6.068  15.876  12.589 -0.2929  0.2113  0.0406
 4342W        W19473   3.987  10.825  14.748  0.1030  0.2794  0.0345
 4343W        W19474  15.370  15.675   2.745  0.1899  0.2239 -0.0798
 4344W        W19475  10.348  11.408  12.432  0.0299 -0.1105 -0.1159
 4345W        W19476  14.772   4.625  13.552 -0.1349 -0.3623  0.1276
 4346W        W19477  16.458   0.406   0.979  0.2775  0.2430 -0.2255
 4347W        W19478   5.749  10.348  15.405  0.0776  0.0041 -0.1229
 4348W        W19479  16.512  17.335  14.982 -0.2549 -0.3769 -0.1460
 4349W        W19480  11.653   3.128   3.847 -0.4166  0.1958  0.1565
 4350W        W19481   6.839  17.002   2.703 -0.3240  0.2970  0.0992
 4351W        W19482   7.952   9.719   5.209  0.1065  0.0655  0.2539
 4352W        W19483  16.667   7.769   4.882  0.1459 -0.1279 -0.1088
 4353W        W19484   8.371   2.458   3.738 -0.0435  0.2393 -0.2927
 4354W        W19485  13.723  11.175   1.531 -0.0848 -0.2224  0.0476
 4355W        W19486  14.870   9.841   1.705 -0.3201  0.0461  0.0659
 4356W        W19487   6.781   1.368   3.819 -0.0082 -0.2329  0.2205
 4357W        W19488  17.237  13.588  12.586  0.2616  0.0296  0.0032
 4358W        W19489   5.106  18.464   3.836  0.1621  0.2024  0.0226
 4359W        W19490   7.276   4.559  11.590  0.2653 -0.2753 -0.2179
 4360W        W19491  12.894  13.772  14.301 -0.0407  0.2828 -0.1378
 4361W        W19492  13.012  10.565  14.798  0.0003 -0.0433 -0.1141
 4362W        W19493   7.580   0.296   3.033  0.0700  0.0569 -0.3546
 4363W        W19494   1.533   9.532   2.232 -0.5141  0.1744 -0.2021
 4364W        W19495  14.369  11.053   2.799  0.1840 -0.3089  0.1456
 4365W        W19496  18.246   6.395   2.292  0.0373  0.0929  0.0583
 4366W        W19497   1.431  14.737  15.315 -0.1961  0.0053 -0.0105
 4367W        W19498  15.809   4.032  15.926  0.0252  0.0620 -0.2702
 4368W        W19499   2.777   3.918   4.696  0.1885  0.0062  0.1035
 4369W        W19500  10.221   4.853   0.958 -0.0391 -0.1495  0.1040
 4370W        W19501   4.886   1.710   3.497  0.0503  0.3239  0.1323
 4371W        W19502   5.387   5.716  14.844 -0.0577  0.1052  0.2258
 4372W        W19503   3.947  17.655   4.809 -0.0729 -0.0354  0.1249
 4373W        W19504  15.819  14.428  10.991 -0.0905 -0.0364 -0.1785
 4374W        W19505  12.288  13.730  12.830  0.0997  0.2267 -0.5015
 4375W        W19506   3.892  15.308  10.758  0.2232 -0.0999 -0.1499
 4376W        W19507   8.435   6.134  13.927  0.2265  0.0160  0.0566
 4377W        W19508   8.969   2.190   2.818 -0.1971 -0.0579 -0.0926
 4378W        W19509  16.162   1.656  11.617  0.1632  0.0244 -0.0813
 4379W        W19510  10.901  12.865  11.747 -0.0168  0.1330  0.0922
 4380W        W19511  17.561   7.085  15.297 -0.0304  0.1873  0.2634
 4381W        W19512  11.637   9.394   1.357  0.1712  0.0141 -0.1102
 4382W        W19513  15.627   3.988   4.554  0.1085  0.0354 -0.1777
 4383W        W19514  18.449   5.951   0.447 -0.0681 -0.0944  0.1704
 4384W        W19515   3.164   0.003   3.568  0.2566  0.2231  0.0874
 4385W        W19516   4.914  11.878  14.597  0.2808 -0.2673 -0.1185
 4386W        W19517   6.143   7.753   4.587  0.1254 -0.1183 -0.3441
 4387W        W19518   5.538  10.933   4.068 -0.0054 -0.0794 -0.0035
 4388W        W19519  17.674   9.028  11.584 -0.2429 -0.0548  0.0234
 4389W        W19520   2.958   2.216   2.004  0.2598 -0.0961 -0.1269
 4390W        W19521   3.380  18.084   3.686  0.2573 -0.2041 -0.0622
 4391W        W19522   6.633  12.904  12.287 -0.4710  0.0523  0.0158
 4392W        W19523   6.834   7.301   5.877  0.2679 -0.0640  0.2848
 4393W        W19524  14.076  17.260   4.399 -0.1788 -0.0883 -0.3587
 4394W        W19525  11.778  15.775  11.239  0.3283  0.1103 -0.0901
 4395W        W19526  11.707   6.373   4.138  0.4540  0.1744  0.0511
 4396W        W19527  15.742   4.627  14.631  0.0212  0.0369  0.3277
 4397W        W19528  17.195   6.861   1.447  0.0598 -0.1339  0.2987
 4398W        W19529  13.062  18.199   0.399  0.1513  0.1308  0.0147
 4399W        W19530  10.634  15.737   0.723 -0.0623 -0.1205  0.2429
 4400W        W19531  16.468  13.084   5.550  0.1588  0.2922 -0.2946
 4401W        W19532  13.756  11.192  13.961  0.1910 -0.0124  0.0211
 4402W        W19533  12.161  11.092   2.078  0.0557 -0.3276 -0.0759
 4403W        W19534   6.516   0.329  14.878 -0.0842 -0.0748 -0.1780
 4404W        W19535   3.598   2.177  10.096  0.0019 -0.0252 -0.2991
 4405W        W19536  13.372   1.826  14.381 -0.3756 -0.1422  0.0842
 4406W        W19537  17.417   6.106  13.664  0.1216  0.2058  0.1433
 4407W        W19538  14.509  16.601   2.875  0.1840  0.1750 -0.1112
 4408W        W19539  17.669  13.628   5.085 -0.2669  0.0425  0.0980
 4409W        W19540  15.218  12.239   0.394 -0.1242 -0.0866 -0.1457
 4410W        W19541   2.595   7.253  14.405 -0.1833  0.0942  0.0702
 4411W        W19542  14.772  15.560   9.732  0.1036 -0.0197 -0.1818
 4412W        W19543  12.318   0.543   3.046  0.0736  0.2909  0.0014
 4413W        W19544  14.005  17.838  12.925  0.2192 -0.0121 -0.3837
 4414W        W19545   6.238  15.214  13.846  0.0545 -0.0615  0.1524
 4415W        W19546  10.843  16.719   2.828  0.0561 -0.4022 -0.0039
 4416W        W19547   8.505  18.561   2.150 -0.2181  0.2776  0.1266
 4417W        W19548  14.626   9.063  14.694 -0.2351 -0.1739 -0.3611
 4418W        W19549   1.070  13.511  13.897  0.2211  0.0636 -0.3344
 4419W        W19550  12.094  15.415   0.740  0.0378  0.0267 -0.0425
 4420W        W19551   8.295   6.091   5.012  0.0605 -0.1258 -0.1149
 4421W        W19552  11.677  13.306  14.624  0.1294 -0.0968  0.1537
 4422W        W19553   1.765  15.240   1.642 -0.3195  0.0293  0.0896
 4423W        W19554   2.042   6.153   3.762  0.1167  0.0040  0.1072
 4424W        W19555  13.151  15.690  10.981 -0.1327  0.4189 -0.0963
 4425W        W19556   5.157  12.489  13.154 -0.1901  0.1735  0.1073
 4426W        W19557   8.010   8.292  10.996 -0.1219  0.0336  0.0763
 4427W        W19558  16.362  15.438  11.062  0.0124 -0.1518 -0.1933
 4428W        W19559   3.801  12.426  15.653 -0.1082  0.2212 -0.0023
 4429W        W19560   4.271  13.088   0.514  0.0319  0.0674 -0.0291
 4430W        W19561  15.000   8.977   5.350 -0.1903 -0.0731 -0.0281
 4431W        W19562  17.697  16.004   5.188 -0.0289  0.1293  0.0157
 4432W        W19563  13.544  10.525  11.961  0.0863 -0.0214  0.2124
 4433W        W19564  11.064   3.229  15.783 -0.1046  0.0111 -0.3160
 4434W        W19565  14.907   6.080   0.849  0.1387 -0.1340  0.1109
 4435W        W19566   3.192  16.550  11.004  0.2332  0.1523  0.1682
 4436W        W19567  16.599  15.069  12.390  0.1006  0.2150 -0.1634
 4437W        W19568   6.238   6.906  10.493 -0.1367 -0.0468  0.0716
 4438W        W19569   1.647  18.454   3.890 -0.4520 -0.0456  0.1878
 4439W        W19570   8.314   0.976  12.248  0.3183 -0.1266 -0.2428
 4440W        W19571   2.251  13.398   1.474  0.2091  0.2000 -0.0893
 4441W        W19572  17.570   0.442   3.749 -0.2910  0.0981 -0.2355
 4442W        W19573   4.897   2.662   3.396  0.1078  0.2129 -0.2570
 4443W        W19574   5.457  12.248  12.868  0.2845 -0.2061  0.4105
 4444W        W19575   2.345   2.080  14.754  0.0519  0.1684 -0.0502
 4445W        W19576  13.275   9.620   2.411 -0.0820 -0.1252  0.1216
 4446W        W19577  12.591   2.409   3.565  0.1454  0.0564  0.1878
 4447W        W19578   4.817   0.826  11.243  0.0025 -0.0266  0.0613
 4448W        W19579  17.026  13.383  10.832  0.2942 -0.1470 -0.0816
 4449W        W19580   6.257  11.702  11.732 -0.3016  0.2717 -0.1018
 4450W        W19581   2.347  18.572   2.048 -0.1646 -0.0266 -0.0095
 4451W        W19582  15.073  18.337   5.162  0.0788 -0.0765 -0.1027
 4452W        W19583  17.010   2.805   6.227 -0.1063  0.0645 -0.1866
 4453W        W19584   0.608   8.693  11.626 -0.0605  0.2961  0.2111
 4454W        W19585   9.795  16.316  11.062  0.1006  0.1129  0.0467
 4455W        W19586  11.013   7.251   1.548  0.2409 -0.2297 -0.0141
 4456W        W19587  15.511  11.782  14.401  0.2773 -0.5403  0.0884
 4457W        W19588   0.193  15.252  15.391  0.0488 -0.1970 -0.1536
 4458W        W19589   2.585  17.663   4.503 -0.3258 -0.0178 -0.0775
 4459W        W19590   9.549  13.718   2.036  0.2503 -0.3337 -0.3105
 4460W        W19591   6.152   3.926   1.647 -0.1706  0.0901 -0.1944
 4461W        W19592   6.231   0.767   5.065 -0.0666  0.1182 -0.1302
 4462W        W19593  17.145   7.313   2.231 -0.0620 -0.1818  0.0002
 4463W        W19594  12.269  14.334  13.758 -0.3092 -0.2903  0.0382
 4464W        W19595   6.073  15.235  11.432 -0.2438  0.0586 -0.0312
 4465W        W19596  10.247  13.196   3.452 -0.1177  0.2027  0.4480
 4466W        W19597   5.673  14.529  11.263 -0.1205  0.2022  0.1647
 4467W        W19598  14.499   5.433  15.176  0.2808 -0.3271 -0.4103
 4468W        W19599   8.544   0.081   2.709 -0.1272  0.3413 -0.2294
 4469W        W19600   1.441   9.503  13.883  0.1861 -0.1261 -0.0519
 4470W        W19601  16.126  11.109  14.908 -0.2062 -0.0998 -0.1344
 4471W        W19602   5.017  16.699  10.465 -0.3441 -0.0649  0.1293
 4472W        W19603  17.334   4.938   4.250 -0.1405 -0.2674 -0.1399
 4473W        W19604   7.527  14.778   1.076 -0.0470 -0.1166  0.0772
 4474W        W19605  14.572   7.944  15.902 -0.3318 -0.4221  0.1182
 4475W        W19606   6.678   8.967  11.875  0.0394  0.0006 -0.0498
 4476W        W19607  11.241  10.458   2.458  0.0641 -0.0623  0.1938
 4477W        W19608  12.629   7.768   0.767  0.2839  0.0878 -0.1299
 4478W        W19609  10.413   3.733   3.077  0.2344 -0.0332 -0.1526
 4479W        W19610   2.554   2.463  14.166  0.1020 -0.2881  0.1571
 4480W        W19611  16.461   8.046   5.387 -0.0242  0.2503  0.1436
 4481W        W19612   1.833  15.553   3.443 -0.1790 -0.1083 -0.2764
 4482W        W19613  10.961   4.370  12.043 -0.2014  0.0758 -0.0207
 4483W        W19614   4.044  15.619  11.817  0.1233 -0.2072  0.1439
 4484W        W19615  14.197   6.214   2.242 -0.0140  0.0902  0.0186
 4485W        W19616   1.906  11.291   0.171  0.4094 -0.3214  0.0047
 4486W        W19617   9.085  14.823   9.879  0.2393  0.1350 -0.0770
 4487W        W19618   1.796  13.553  13.418  0.0697  0.0956  0.0828
 4488W        W19619   0.115   4.698  12.342  0.2268 -0.2017 -0.0979
 4489W        W19620  14.930   0.170  14.410  0.2920  0.0155  0.2662
 4490W        W19621  10.919   6.771   3.617 -0.0694  0.3499 -0.2666
 4491W        W19622  12.302   3.872   5.786  0.0750  0.0636 -0.4629
 4492W        W19623   5.084   6.165  11.265  0.0762 -0.2827 -0.2095
 4493W        W19624  10.451   6.330   3.699  0.0517 -0.0225 -0.0653
 4494W        W19625   6.618   6.390  12.225 -0.1503  0.1850  0.1660
 4495W        W19626   5.524  15.353  15.555 -0.0441  0.3840 -0.4832
 4496W        W19627  18.505  16.485   0.162 -0.2228  0.2437  0.2355
 4497W        W19628  10.033  12.486   0.196  0.4418  0.1039 -0.1615
 4498W        W19629  10.021  16.865  15.821  0.3952  0.2250 -0.3782
 4499W        W19630  18.404   6.175   5.606  0.1009  0.0891 -0.1576
 4500W        W19631   0.077   3.574  14.769  0.2588 -0.2003 -0.2665
 4501W        W19632   1.803  13.142  13.144  0.1068  0.1123  0.0890
 4502W        W19633   9.379  18.490  10.740 -0.1152 -0.4142  0.0032
 4503W        W19634  17.503   2.260  13.352  0.0305  0.0820 -0.1974
 4504W        W19635  14.325   6.541   5.176 -0.0483 -0.2540 -0.1447
 4505W        W19636   0.060   8.091  11.991  0.1341  0.0191 -0.2128
 4506W        W19637  16.621  18.387   3.440 -0.4029  0.1693 -0.1203
 4507W        W19638  12.275   0.839   1.408 -0.0164 -0.1587 -0.2251
 4508W        W19639   3.128   2.775  15.244 -0.2122  0.0428  0.2040
 4509W        W19640   8.579   3.392  11.745 -0.0693 -0.0391  0.1029
 4510W        W19641  12.469  14.085  13.271  0.1810  0.2242  0.0455
 4511W        W19642  17.792  12.116   0.843  0.2619 -0.2408 -0.1284
 4512W        W19643  16.966   0.829  15.919  0.2587  0.0881  0.2712
 4513W        W19644   4.042  11.646   0.748  0.1142 -0.1664 -0.4150
 4514W        W19645   6.294  15.973   3.981 -0.0023 -0.1987  0.1419
 4515W        W19646  17.623   0.409  10.828 -0.0811  0.0712  0.3572
 4516W        W19647   5.292   9.691   3.298  0.0773 -0.0371  0.0755
 4517W        W19648   7.655  16.307   1.359 -0.0473  0.0469 -0.0812
 4518W        W19649  18.378   3.595   4.698  0.0476  0.0502  0.1726
 4519W        W19650  15.862   4.066   3.966  0.1458 -0.0513  0.0590
 4520W        W19651  15.047   6.755  14.106  0.0727  0.1929  0.2724
 4521W        W19652   4.310   4.106  15.795  0.0367  0.2915  0.1002
 4522W        W19653  10.329  15.611  14.945  0.1224  0.0472  0.1079
 4523W        W19654   4.647  13.633  15.654 -0.1707 -0.1001 -0.2052
 4524W        W19655  10.411   3.342  15.185 -0.0861  0.3878 -0.2711
 4525W        W19656   1.320  16.242   9.853 -0.1609  0.0027 -0.0199
 4526W        W19657   6.485  11.727  14.087  0.3569 -0.0430  0.1560
 4527W        W19658   7.483   3.645  14.009  0.0537 -0.1140 -0.4771
 4528W        W19659  18.347  12.227  15.216 -0.0676 -0.1382 -0.5126
 4529W        W19660  18.514  13.013   4.943 -0.0747 -0.0863 -0.2245
 4530W        W19661   2.636  14.328  15.914 -0.0490  0.1283 -0.1910
 4531W        W19662  10.447  17.354  10.642 -0.2323  0.0155  0.0411
 4532W        W19663  14.744  11.781  15.848  0.1735 -0.0822  0.1823
 4533W        W19664   6.332   5.478   5.113  0.0494  0.2268  0.0826
 4534W        W19665  16.442   1.678  13.934  0.1780  0.2083 -0.1297
 4535W        W19666  12.241  17.567  13.419 -0.0412  0.2191 -0.3410
 4536W        W19667   1.943  15.829   4.746 -0.0538 -0.2110  0.2624
 4537W        W19668  18.294   3.935  14.743 -0.2855 -0.0322 -0.1044
 4538W        W19669   2.686  16.326   2.600 -0.0021 -0.1057  0.1107
 4539W        W19670  10.694  13.373  12.334 -0.1220 -0.0248  0.3087
 4540W        W19671   7.976  10.114   4.770 -0.5186  0.1285  0.1909
 4541W        W19672  11.677   9.840   0.935 -0.2352 -0.1794  0.2544
 4542W        W19673   1.986  17.388  11.403 -0.4956  0.2890 -0.2472
 4543W        W19674  16.507   5.246  14.170 -0.1196  0.0082  0.3490
 4544W        W19675   3.204   8.588  12.389  0.2431  0.4332 -0.1831
 4545W        W19676   7.833  11.762   0.244  0.1035 -0.0270  0.1834
 4546W        W19677   9.745  14.818  13.954  0.0223 -0.0317  0.0249
 4547W        W19678  12.701  11.772  15.524 -0.1510 -0.1553 -0.0111
 4548W        W19679  13.979  10.078  12.509 -0.1840 -0.0778  0.2975
 4549W        W19680   7.840  17.856  12.386 -0.0314  0.1231  0.1867
 4550W        W19681   7.338  16.957  13.494  0.0602  0.0156 -0.4929
 4551W        W19682  14.395  10.108  12.235  0.1113  0.1524  0.2529
 4552W        W19683  15.754  16.143  10.087  0.1376 -0.2715  0.4234
 4553W        W19684   5.295  16.713   2.060 -0.0554 -0.1164 -0.0917
 4554W        W19685  12.502  10.778  15.522  0.4415 -0.1700 -0.1886
 4555W        W19686   2.658   6.494   0.967  0.0018  0.1220  0.2119
 4556W        W19687   2.449  18.281  15.269  0.1091  0.0650 -0.0372
 4557W        W19688  15.247  10.475  13.053 -0.2739 -0.3284  0.0604
 4558W        W19689  12.206  12.579  14.858 -0.2730  0.0913 -0.1320
 4559W        W19690  12.809  16.382  14.356 -0.0356 -0.1105  0.1010
 4560W        W19691  17.578   5.355   0.181 -0.0207  0.1469  0.3094
 4561W        W19692  14.307   9.504   0.280 -0.0849  0.2209 -0.2810
 4562W        W19693   9.564   7.178   1.125 -0.1241  0.1179  0.0326
 4563W        W19694   4.681   5.091  10.235  0.1987  0.1204 -0.0157
 4564W        W19695  15.872  10.819  14.254 -0.0733 -0.2944  0.0506
 4565W        W19696  12.689   9.683   4.016  0.0002  0.1930  0.0146
 4566W        W19697   6.368  13.338   0.175  0.0291  0.1366  0.1302
 4567W        W19698   0.310  12.022  11.049 -0.2312  0.1086  0.2321
 4568W        W19699   1.531   8.596  12.269  0.0254 -0.1506 -0.1953
 4569W        W19700  15.109  10.794   4.146 -0.1020 -0.3718  0.0281
 4570W        W19701  11.251  17.303   1.963 -0.2373 -0.0385 -0.1111
 4571W        W19702   6.636  17.835   2.119  0.0332 -0.0118 -0.0804
 4572W        W19703  14.563  14.635   5.496 -0.1831 -0.1633 -0.3635
 4573W        W19704   6.561  10.613   2.250 -0.2182  0.3462 -0.0900
 4574W        W19705   1.178  12.149   3.597  0.1058  0.0018  0.0557
 4575W        W19706  10.620   7.771   4.190 -0.0216  0.3464 -0.1603
 4576W        W19707   1.732  15.976  14.106 -0.0875  0.0857 -0.0133
 4577W        W19708  14.298   0.867  12.206  0.0008  0.7483  0.0017
 4578W        W19709  14.628   8.386   5.896 -0.2802  0.0131  0.4159
 4579W        W19710   2.632  13.823   9.770  0.0276  0.0413  0.2575
 4580W        W19711   4.951  10.060  15.792 -0.1337  0.0828 -0.0287
 4581W        W19712   9.827   3.490  12.351 -0.0638 -0.2782  0.1309
 4582W        W19713  12.255  10.768   5.572  0.1992 -0.2712 -0.0443
 4583W        W19714   9.942  17.459  14.321  0.0082  0.2211 -0.3842
 4584W        W19715   4.505  17.065   0.327 -0.1504  0.2043 -0.0723
 4585W        W19716   3.429   3.734   3.559  0.2009  0.0437  0.2193
 4586W        W19717  16.863  15.525   1.227  0.1369  0.2655 -0.1373
 4587W        W19718  13.167   2.344  11.830  0.0234 -0.1184 -0.1663
 4588W        W19719  17.992   7.293   4.082 -0.2980  0.1042 -0.2211
 4589W        W19720  16.099   8.590   3.080  0.3478  0.1828  0.1887
 4590W        W19721   9.668  11.765  14.345  0.2551 -0.0472 -0.0855
 4591W        W19722   8.065   1.841  15.616  0.1055 -0.1779  0.3064
 4592W        W19723   5.513  12.024   2.009 -0.1270  0.2179  0.2461
 4593W        W19724  17.292   1.332  10.998  0.4099 -0.1190 -0.0808
 4594W        W19725  13.150  12.576  10.843 -0.1038 -0.2220  0.1707
 4595W        W19726   4.414  11.903   4.796 -0.0882  0.0508 -0.0602
 4596W        W19727  14.140  10.492   5.270  0.1359  0.0263  0.1041
 4597W        W19728   0.494   3.940   5.870 -0.1357  0.2932  0.2066
 4598W        W19729   0.075  14.865  11.661  0.3005 -0.2253 -0.3490
 4599W        W19730   7.542  16.666   2.290  0.2015  0.1704  0.1288
 4600W        W19731  17.600  16.861   3.153 -0.0352  0.1492 -0.1117
 4601W        W19732   3.100  13.989   9.951  0.1390  0.1816  0.1741
 4602W        W19733   6.284  11.710   2.010 -0.0422  0.4302 -0.2018
 4603W        W19734   8.514  18.034   3.119 -0.0057 -0.3055  0.2391
 4604W        W19735   0.215   4.674   5.698  0.2807 -0.0210 -0.2238
 4605W        W19736   7.045  10.022  13.389  0.0043  0.1978  0.1668
 4606W        W19737  13.140   3.541   1.562  0.0627 -0.0423  0.1085
 4607W        W19738  10.449  12.036  11.548 -0.1284 -0.0025  0.0731
 4608W        W19739  13.921  13.218  12.430 -0.1808  0.1156  0.1384
 4609W        W19740   5.617   5.744   3.264 -0.0357  0.3207 -0.0988
 4610W        W19741   2.172   0.605  11.223  0.2925  0.1636  0.0251
 4611W        W19742  15.062   8.545   2.249  0.0441 -0.2744  0.3371
 4612W        W19743   0.607   5.114  11.245  0.3319 -0.2305  0.2104
 4613W        W19744   9.055  14.443  12.364 -0.0816 -0.2265 -0.1745
 4614W        W19745  18.173  16.660   1.679  0.3515  0.2872 -0.2492
 4615W        W19746   8.011   4.056   1.840 -0.2342  0.1335  0.2276
 4616W        W19747   5.162  12.433   2.021  0.3433 -0.0403 -0.0934
 4617W        W19748   1.905   2.522  11.338  0.6499 -0.0074 -0.0219
 4618W        W19749  17.640  15.100   5.712  0.1067  0.4241  0.1086
 4619W        W19750  10.127   3.799  11.041 -0.0745 -0.1360 -0.5257
 4620W        W19751  11.492   9.413  10.916  0.0560 -0.2645 -0.0832
 4621W        W19752   1.227   2.627  10.784 -0.1062  0.2244  0.3192
 4622W        W19753  16.142  17.226   2.759 -0.2931 -0.1898 -0.0578
 4623W        W19754  14.868   7.358   5.200  0.3995 -0.0823  0.1120
 4624W        W19755  11.588  13.513   4.500 -0.0894 -0.1575  0.0524
 4625W        W19756   1.500  13.775  14.404 -0.1302  0.0049  0.0604
 4626W        W19757   1.908  15.096   1.013  0.1031 -0.0954 -0.0103
 4627W        W19758   6.268   3.493  13.256 -0.1438 -0.0891  0.1628
 4628W        W19759  12.148  12.965   3.135 -0.1246 -0.2238  0.1372
 4629W        W19760   3.197  17.550  11.290 -0.2204 -0.1258  0.0563
 4630W        W19761   8.048   0.065   1.955 -0.0559  0.0033  0.0994
 4631W        W19762  10.783  15.367  15.140  0.1933 -0.1026  0.1837
 4632W        W19763  12.763  10.622   1.024  0.3748  0.0481 -0.2730
 4633W        W19764   7.311  10.252  13.719  0.0927  0.0174  0.2951
 4634W        W19765   4.528   7.100   2.089 -0.0829  0.1780  0.0799
 4635W        W19766   3.076   7.716   5.675 -0.0481 -0.0741 -0.2806
 4636W        W19767  12.994  16.598   3.015 -0.0577 -0.1192 -0.0437
 4637W        W19768  15.336  16.779   0.186 -0.0364 -0.1148 -0.0870
 4638W        W19769  18.079  16.912  11.271 -0.1836 -0.3269 -0.1607
 4639W        W19770  17.348  15.689   5.085  0.4252  0.0548  0.0722
 4640W        W19771  15.369   0.223   2.376  0.1956  0.1971  0.4502
 4641W        W19772  15.274  15.039  13.427  0.1539  0.1395 -0.0134
 4642W        W19773   6.303   9.983  10.627  0.0237  0.0908 -0.1411
 4643W        W19774  13.920   4.133  11.820 -0.1521 -0.0009  0.5276
 4644W        W19775   4.285  10.429  15.099 -0.1345 -0.2110 -0.4228
 4645W        W19776   7.123  10.560   2.823 -0.0620  0.0444 -0.2846
 4646W        W19777  14.636   9.902   0.410  0.3486 -0.3462 -0.1768
 4647W        W19778  13.271  14.588  13.909 -0.2844 -0.4225 -0.1175
 4648W        W19779   5.675  10.270   1.935 -0.2154 -0.1097 -0.1132
 4649W        W19780   2.765   7.034   1.102  0.1051  0.4076 -0.1687
 4650W        W19781   8.007   2.173   1.263 -0.0558  0.2238 -0.2459
 4651W        W19782  16.419  17.995  13.138 -0.4366  0.2044  0.0383
 4652W        W19783   3.771   3.138   0.010 -0.1655 -0.2987  0.0728
 4653W        W19784  12.219  16.402   0.481 -0.0859  0.0438  0.0406
 4654W        W19785   4.073   2.686   1.021 -0.0688 -0.1959  0.0542
 4655W        W19786  11.609  17.556   2.922  0.2495  0.2187  0.1095
 4656W        W19787  15.462  15.597   0.077 -0.0959  0.0764  0.2194
 4657W        W19788  11.143   2.439   3.295 -0.2572 -0.0354 -0.0215
 4658W        W19789   7.219   5.690  14.902  0.1375  0.0730 -0.1562
 4659W        W19790  17.066   5.409   0.593  0.2529 -0.1440 -0.1998
 4660W        W19791   1.074  11.949   0.201 -0.3102  0.5133  0.0661
 4661W        W19792  14.919  10.227  14.911 -0.2813  0.0115  0.1723
 4662W        W19793  10.863   8.669  12.999 -0.1204 -0.0094 -0.1191
 4663W        W19794   2.352   9.141   5.661  0.1967 -0.2034  0.1685
 4664W        W19795  11.701  13.618  13.591 -0.1834  0.1957  0.0320
 4665W        W19796  17.801   9.702   2.047  0.2894 -0.2786  0.1792
 4666W        W19797  15.718  13.364  13.431 -0.3258 -0.0387 -0.1928
 4667W        W19798   8.094   7.681  13.081  0.3053 -0.2018 -0.0351
 4668W        W19799   2.859  18.502  11.342 -0.1703  0.1281  0.0560
 4669W        W19800   5.409   9.240   0.755 -0.2476 -0.3616 -0.0388
 4670W        W19801  14.602  17.566  14.025  0.0215  0.2558 -0.1234
 4671W        W19802   3.663  10.473   2.145  0.0307  0.1174 -0.4080
 4672W        W19803   8.021   2.559  10.414 -0.4923  0.2943 -0.4878
 4673W        W19804  14.807   9.362  11.768  0.0602  0.2429 -0.1224
 4674W        W19805   8.477   8.655   1.011 -0.0299  0.2313 -0.0925
 4675W        W19806  13.136  18.076   4.199 -0.2202  0.1149 -0.1782
 4676W        W19807  15.569   6.115  12.792  0.0593 -0.0067  0.1865
 4677W        W19808  16.407  13.755   2.167 -0.0908  0.2152 -0.1101
 4678W        W19809   0.608   9.028  13.969  0.1988 -0.4803 -0.4702
 4679W        W19810   3.709   8.798   5.944  0.0448 -0.0182  0.1237
 4680W        W19811  12.353   9.950  10.862  0.1737  0.2443 -0.0101
 4681W        W19812  14.955   9.458   5.185  0.0298  0.0804  0.2557
 4682W        W19813   2.917   1.982   0.060  0.2927 -0.2260  0.2649
 4683W        W19814  14.490  14.068  13.713 -0.0180 -0.0358  0.2377
 4684W        W19815  12.631   7.298  10.209  0.2067 -0.0585 -0.2199
 4685W        W19816   7.789  10.071   2.805 -0.1412 -0.0178  0.1235
 4686W        W19817  18.213  17.427  15.345 -0.3670 -0.1841  0.1907
 4687W        W19818  11.998  18.225  15.074 -0.0901 -0.2157 -0.1959
 4688W        W19819   0.926  12.644   1.449 -0.0961 -0.0611  0.1091
 4689W        W19820   8.407   6.920  13.174  0.1756  0.2111  0.3872
 4690W        W19821   7.622   3.252  14.360 -0.0729 -0.2582 -0.3202
 4691W        W19822  12.450  12.886   4.924  0.3510 -0.0326  0.2160
 4692W        W19823   2.332  18.422   1.107 -0.0551  0.0422 -0.0205
 4693W        W19824   9.243   2.984  11.561  0.0634 -0.0414  0.0062
 4694W        W19825  14.810  16.257   4.381  0.1010 -0.0943 -0.0205
 4695W        W19826   0.548   8.322   4.005 -0.2637 -0.0581 -0.0161
 4696W        W19827  18.542  13.694  12.464  0.0871  0.2398 -0.1410
 4697W        W19828  15.767   4.114  14.391  0.0931 -0.0007 -0.0003
 4698W        W19829  16.190   1.981   1.927  0.6543 -0.2126 -0.2029
 4699W        W19830   8.759   8.432  13.265  0.2410  0.0233  0.1716
 4700W        W19831   4.014   3.379   3.210 -0.2510  0.0431 -0.1455
 4701W        W19832  13.494   4.880  12.941 -0.1095 -0.0729 -0.2726
 4702W        W19833   6.076  16.191   5.106  0.1466 -0.1291 -0.0446
 4703W        W19834  14.488  13.732   3.243 -0.0684  0.0613 -0.1568
 4704W        W19835  12.390  15.997   2.572 -0.3087 -0.0964  0.1266
 4705W        W19836   7.805  10.480  10.711  0.4193 -0.1482 -0.1267
 4706W        W19837   1.537   5.928  13.329  0.0715 -0.0401  0.2384
 4707W        W19838   7.067   0.102   3.127  0.0560 -0.0900 -0.1452
 4708W        W19839  13.815   1.225   4.157  0.0237 -0.4115 -0.1310
 4709W        W19840  10.880   7.378   2.609 -0.1147 -0.3075 -0.0325
 4710W        W19841   1.637  14.243  14.163 -0.0249  0.0662 -0.4203
 4711W        W19842   9.474   7.909  13.965 -0.3854  0.2483 -0.1546
 4712W        W19843  12.480  14.212  12.814 -0.2347  0.2616  0.0299
 4713W        W19844  10.092  17.161   4.771 -0.3362 -0.3754 -0.1403
 4714W        W19845  12.102   6.928   0.787 -0.3255  0.0097 -0.0147
 4715W        W19846   0.833  16.096   2.272  0.3991 -0.0716 -0.1140
 4716W        W19847  13.246  10.731   2.454  0.0933  0.0415 -0.0614
 4717W        W19848   7.489  15.275   1.425 -0.2971  0.1397  0.0976
 4718W        W19849  12.511   7.130  10.769 -0.0418  0.1414 -0.1079
 4719W        W19850  13.743  17.067  12.873  0.0652  0.0029 -0.0304
 4720W        W19851  15.751  14.299  14.538 -0.1441 -0.2098  0.1016
 4721W        W19852   1.902   7.806   1.749 -0.5309  0.1015  0.3588
 4722W        W19853   8.416   5.859   4.415 -0.2210  0.0184  0.2134
 4723W        W19854  11.272  16.190   2.920  0.1678 -0.0371  0.0200
 4724W        W19855   7.607   1.009  14.375 -0.1784  0.0554  0.2839
 4725W        W19856  18.120  13.564  12.106 -0.1928  0.1200 -0.1070
 4726W        W19857   3.363   2.609  13.139 -0.2228 -0.1175  0.1491
 4727W        W19858   2.739  12.732  15.279 -0.0047  0.1119 -0.0309
 4728W        W19859  11.727   7.414  12.492  0.0872 -0.3519 -0.1074
 4729W        W19860  15.325  10.484   2.363 -0.2789 -0.0683  0.4907
 4730W        W19861   7.436   6.872   2.848  0.0094 -0.1429  0.4536
 4731W        W19862   9.392  12.861  11.914 -0.1691 -0.1458 -0.1241
 4732W        W19863  11.107  16.750   4.394 -0.3769 -0.3821 -0.0695
 4733W        W19864   9.384   2.628   4.865  0.2547  0.1607  0.3524
 4734W        W19865   9.239   6.862   2.247  0.0136  0.1927 -0.1579
 4735W        W19866  16.288   5.155  12.384 -0.0161 -0.1484  0.2148
 4736W        W19867  15.187  17.699   1.165  0.2196 -0.1838  0.0699
 4737W        W19868   0.391   3.472  13.422 -0.0001 -0.1610  0.0909
 4738W        W19869  11.452  15.482  12.574  0.0942  0.5009 -0.2875
 4739W        W19870   9.382   0.590   2.852  0.0864 -0.2693 -0.1787
 4740W        W19871   7.777   0.387  15.878 -0.3795  0.2879 -0.0692
 4741W        W19872   7.904  10.952   0.166 -0.0061 -0.0736  0.0182
 4742W        W19873  15.309  13.858   5.301  0.2836  0.1292  0.4237
 4743W        W19874  14.297   7.105  15.257  0.0583  0.1485 -0.1059
 4744W        W19875  17.528  17.280  15.660  0.3153  0.1482 -0.4076
 4745W        W19876   1.031   8.492  15.918  0.1247  0.3621 -0.0847
 4746W        W19877   6.642   4.995  15.307  0.1950  0.0590 -0.1433
 4747W        W19878  12.019  10.718  13.697 -0.4155  0.0037 -0.3481
 4748W        W19879  14.677   4.468   3.318  0.0801 -0.1574  0.0490
 4749W        W19880   8.413  11.776   2.367 -0.2904 -0.3619  0.0067
 4750W        W19881  15.311  17.928   4.128  0.0458 -0.0262  0.1372
 4751W        W19882   1.213  15.729   3.048 -0.1855 -0.1103 -0.1050
 4752W        W19883  16.276  10.051   2.276 -0.1848 -0.1323 -0.4974
 4753W        W19884   1.553  12.621   2.715  0.3421  0.2419  0.4653
 4754W        W19885   2.624  13.777   0.337  0.3112  0.0069 -0.1397
 4755W        W19886   5.424  10.372  12.684 -0.0097 -0.1009  0.4116
 4756W        W19887   6.108   7.517   0.733 -0.1281  0.0754  0.0383
 4757W        W19888   0.656  10.163  13.996 -0.2246 -0.1148  0.2243
 4758W        W19889  10.048  18.381  15.103  0.1402  0.2086 -0.2502
 4759W        W19890   1.290   8.519   5.276  0.2150  0.0093  0.1398
 4760W        W19891  16.251  15.234   1.828 -0.1652 -0.0226  0.0948
 4761W        W19892   7.703   6.679   4.219 -0.2219 -0.0602 -0.0483
 4762W        W19893   9.666  17.219  11.178 -0.1871 -0.1568  0.1503
 4763W        W19894   8.202   4.832   0.116 -0.0037  0.0484 -0.1670
 4764W        W19895  10.849   7.875  12.315 -0.1499  0.1108 -0.4189
 4765W        W19896   1.911  16.391  14.801  0.1364  0.1346 -0.1462
 4766W        W19897  14.674  17.717   1.258  0.0361  0.0780 -0.2353
 4767W        W19898  10.248   4.306  13.876 -0.3417 -0.1291 -0.2800
 4768W        W19899   4.610  14.851   0.521  0.0940 -0.5376 -0.2601
 4769W        W19900  10.724   7.443   1.234  0.4717  0.1376 -0.2994
 4770W        W19901   6.265  12.869   3.040  0.0024 -0.1777  0.2826
 4771W        W19902   1.360  13.063   1.673 -0.3505 -0.0650 -0.1527
 4772W        W19903   2.610  11.887   0.805  0.0288 -0.3120  0.0272
 4773W        W19904  16.346   0.132   0.558 -0.0728  0.0732  0.5143
 4774W        W19905  13.387  10.681  15.159 -0.3897 -0.0485 -0.2910
 4775W        W19906   5.406  11.122   2.550  0.2189  0.3197 -0.1616
 4776W        W19907   1.777  18.153  14.920 -0.2124  0.3016  0.0838
 4777W        W19908   5.937  14.815  15.483 -0.0062 -0.1850 -0.4954
 4778W        W19909   5.543  11.375   2.026  0.0869 -0.2109 -0.0929
 4779W        W19910   1.850   9.296   0.143 -0.1242  0.0881 -0.0951
 4780W        W19911   2.348   6.677  10.423 -0.3911  0.1964  0.1141
 4781W        W19912   7.523  10.792  11.301  0.0809  0.0485 -0.3387
 4782W        W19913  11.184   9.132   3.304 -0.4702  0.0376 -0.1285
 4783W        W19914  13.200   5.374   4.244 -0.0649 -0.2172  0.0730
 4784W        W19915  12.745   9.925  11.890 -0.1689  0.0988  0.1667
 4785W        W19916   7.652  10.653  14.549 -0.2001  0.0172 -0.4374
 4786W        W19917  13.048  12.929   0.283 -0.2204 -0.0973 -0.0794
 4787W        W19918  17.687  17.343  10.564  0.0847  0.2462  0.0256
 4788W        W19919  15.247  13.041  13.605 -0.1250  0.0393  0.0208
 4789W        W19920   6.919   1.231  15.868 -0.3575  0.2185 -0.1356
 4790W        W19921   2.456   7.623   2.576  0.1369  0.3548  0.1747
 4791W        W19922   5.928  16.765   3.692 -0.1709  0.1016  0.0230
 4792W        W19923   6.783   9.499   1.531  0.3735 -0.2689 -0.4519
 4793W        W19924  14.875   7.236  11.771 -0.0941 -0.3703 -0.2081
 4794W        W19925   8.556   2.251  12.214 -0.1245  0.4580  0.2990
 4795W        W19926   6.287  12.874  15.663  0.2848  0.2775  0.0107
 4796W        W19927  17.799   5.086  10.758  0.1119 -0.3620  0.2986
 4797W        W19928   6.785   2.065   1.619  0.0101 -0.0795 -0.0919
 4798W        W19929   1.023   3.109  10.587 -0.1491 -0.1591 -0.0984
 4799W        W19930  11.457  11.201   0.553 -0.1197  0.1869  0.1688
 4800W        W19931   4.241   7.322   3.459 -0.1544 -0.1057  0.5055
 4801W        W19932   7.742   5.686   2.293 -0.2782  0.0387  0.1846
 4802W        W19933  16.949   9.529   2.251  0.1423  0.0383 -0.2701
 4803W        W19934   0.853  12.624  14.075  0.2490  0.1447 -0.2365
 4804W        W19935  10.268  12.878  14.169 -0.0610  0.0712 -0.0428
 4805W        W19936  17.598  12.454   2.126  0.1782  0.2130  0.0578
 4806W        W19937   9.055   1.499  11.974  0.0987 -0.1253  0.0775
 4807W        W19938  14.913   5.035  15.916 -0.4823  0.0071  0.0774
 4808W        W19939   4.141   8.657  13.547  0.0716  0.2724  0.2200
 4809W        W19940  13.862   9.704   0.014 -0.2116  0.1667  0.1699
 4810W        W19941   8.040   2.376  12.250  0.0167  0.2601 -0.0188
 4811W        W19942  17.034  13.705   5.099  0.0330  0.2198 -0.5644
 4812W        W19943   9.622  10.071   2.091  0.0869 -0.1057  0.0017
 4813W        W19944   4.503   5.406  11.562  0.1685  0.3104 -0.0096
 4814W        W19945   2.937  17.348  11.651 -0.2306 -0.1300 -0.1117
 4815W        W19946   7.104  10.773  13.126  0.1048  0.2809 -0.3352
 4816W        W19947   7.216  18.346   3.600  0.0685 -0.2487  0.2325
 4817W        W19948  11.291   6.667   0.866 -0.1645 -0.0701  0.3891
 4818W        W19949   5.248  13.869  15.051  0.1080 -0.1522  0.0113
 4819W        W19950   3.659   8.838   0.557 -0.1625 -0.1832  0.1950
 4820W        W19951   9.439  11.173   2.595  0.0541 -0.1349  0.0478
 4821W        W19952  13.984   5.383  11.092 -0.3975  0.0580 -0.1873
 4822W        W19953   5.506   5.350  15.113 -0.0775  0.2702 -0.0737
 4823W        W19954   4.037   2.286  10.934 -0.0078 -0.1577  0.1357
 4824W        W19955  15.970  15.008  11.035  0.3583  0.0736  0.2605
 4825W        W19956  16.160   8.386  13.132 -0.0079  0.0582 -0.1466
 4826W        W19957   2.949   1.366   0.268  0.3708 -0.0682  0.0256
 4827W        W19958   1.547   6.682  14.953  0.3577  0.3819 -0.1338
 4828W        W19959  15.471  12.466  11.399  0.0950  0.0824 -0.0083
 4829W        W19960  17.779   2.968   0.001 -0.1134  0.0381 -0.0944
 4830W        W19961   0.996  10.585  15.470  0.1489  0.1577  0.1889
 4831W        W19962   9.049   7.070   0.480  0.3426 -0.0679  0.0114
 4832W        W19963  18.093  14.397   2.500  0.0461 -0.2086 -0.1995
 4833W        W19964   0.845   2.064   1.856 -0.1194 -0.1723 -0.1986
 4834W        W19965   2.840  11.781  13.598 -0.0140  0.0464  0.2624
 4835W        W19966  12.673  14.579  11.718  0.0357 -0.0091 -0.1762
 4836W        W19967   6.759  10.475   5.385 -0.1558  0.0525  0.1336
 4837W        W19968  12.961  13.209  12.233  0.2385 -0.2256 -0.0208
 4838W        W19969   2.365  13.031  13.354 -0.1344  0.0825 -0.2230
 4839W        W19970  18.361  16.373  14.067  0.0233 -0.1030 -0.2753
 4840W        W19971   7.754   2.557   2.942  0.3867  0.1153  0.0259
 4841W        W19972   3.590   6.016  12.123  0.2582 -0.3176  0.2582
 4842W        W19973   2.548  18.517   4.847 -0.0843  0.0780  0.1665
 4843W        W19974  11.523  17.578   4.154 -0.2238  0.0641 -0.0864
 4844W        W19975   4.282  12.754  11.370 -0.1658  0.1570 -0.0424
 4845W        W19976   5.515   5.564   5.559 -0.1399 -0.1533  0.0400
 4846W        W19977   2.534  10.207   2.626  0.3034 -0.4126 -0.1004
 4847W        W19978   2.533   7.453  14.894 -0.3325 -0.0217 -0.2065
 4848W        W19979  14.343   1.035  12.944  0.1455 -0.2126  0.0197
 4849W        W19980   3.541  17.218  14.821  0.0757  0.3635 -0.1495
 4850W        W19981   7.167  17.318   0.398 -0.1821 -0.2519  0.0848
 4851W        W19982   9.426  14.306   5.193 -0.0086  0.0429 -0.0999
 4852W        W19983   9.673   8.732  14.287 -0.1016  0.0930  0.2661
 4853W        W19984  10.167  14.327   4.767 -0.0608  0.0805 -0.1529
 4854W        W19985  17.397   4.771   5.621  0.2200  0.3203 -0.1212
 4855W        W19986   0.904  15.241  12.299  0.3684  0.1276  0.0140
 4856W        W19987   1.650   5.026   2.735  0.0781 -0.1924 -0.1355
 4857W        W19988  11.902   0.283   2.804 -0.1906 -0.1216  0.1062
 4858W        W19989  16.965  13.367  15.100  0.2384 -0.3179 -0.0719
 4859W        W19990   1.646   1.383   4.433  0.1358 -0.2272  0.0100
 4860W        W19991  11.890   9.993   2.051 -0.1763 -0.0314  0.2516
 4861W        W19992  14.932   1.622   3.197 -0.3591 -0.2110  0.0222
 4862W        W19993   6.718  15.394  15.902 -0.0725  0.2391 -0.1044
 4863W        W19994  10.973   1.069  13.923  0.0244  0.2251  0.0277
 4864W        W19995  14.713   8.054   5.400 -0.0477  0.0538  0.4298
 4865W        W19996   9.723   4.690   3.721  0.0836  0.0624 -0.3604
 4866W        W19997   3.646   9.827  11.357  0.3053  0.3675 -0.2281
 4867W        W19998   6.375   4.716  13.389  0.0008  0.0095 -0.1204
 4868W        W19999   7.254   8.799  15.874  0.1887  0.0316 -0.3822
 4869W        W20000   8.185   0.432  11.232 -0.1520 -0.3467  0.2721
 4870W        W20001   1.637   4.319   3.618  0.1442  0.0091 -0.0584
 4871W        W20002   2.880  12.450   3.920 -0.1646  0.1487 -0.3865
 4872W        W20003  14.351  15.982  10.936 -0.1147 -0.0691  0.2017
 4873W        W20004   8.009   9.562  10.832  0.3506  0.1892 -0.0929
 4874W        W20005  13.190  13.711  11.463 -0.2306  0.0305  0.3433
 4875W        W20006  12.627   0.902   2.390  0.0865 -0.2053 -0.1689
 4876W        W20007   7.313   8.437   5.296  0.1128  0.1105 -0.1933
 4877W        W20008   1.234   4.201  14.346 -0.1492 -0.1146 -0.0217
 4878W        W20009  12.070   6.002  12.941 -0.2427  0.1577 -0.0063
 4879W        W20010   1.445   1.655   4.042  0.3206  0.0451  0.2651
 4880W        W20011   9.010   6.578   0.578  0.1953 -0.1646  0.4342
 4881W        W20012   3.351  11.451   1.376  0.3360 -0.2281  0.1175
 4882W        W20013   2.691  14.368   0.522  0.1764  0.0465 -0.1828
 4883W        W20014  18.128   6.090   0.051  0.2066  0.0592  0.2336
 4884W        W20015   5.081   2.947   1.864  0.1721  0.3539  0.2382
 4885W        W20016   7.286  15.267  14.341 -0.3362  0.3898  0.3264
 4886W        W20017   7.607  15.792  12.399 -0.0264  0.7081  0.1563
 4887W        W20018  14.377   1.473  13.437  0.0773 -0.0658  0.0642
 4888W        W20019   2.724  12.656  11.734 -0.5364 -0.0067 -0.4528
 4889W        W20020   5.198   1.002   2.428 -0.2518  0.1637  0.1302
 4890W        W20021   4.279  16.057   3.796 -0.3497  0.0429 -0.0925
 4891W        W20022  12.739  15.119  11.724  0.0980  0.1929 -0.1549
 4892W        W20023  11.529   0.196  13.800 -0.3398  0.0530 -0.2401
 4893W        W20024   3.046  14.343   5.007 -0.0713 -0.1737  0.0524
 4894W        W20025  11.946   4.711   6.270 -0.1412 -0.0819 -0.0234
 4895W        W20026   2.643  15.045   5.476 -0.1072  0.1724  0.0703
 4896W        W20027   5.433   8.182   1.969  0.1681 -0.0097  0.0254
 4897W        W20028  12.279  18.070   5.583  0.1548 -0.0211  0.0040
 4898W        W20029  17.497   5.447   4.352 -0.0178  0.0279 -0.0146
 4899W        W20030  10.044  16.903  14.793  0.0406  0.0103 -0.2385
 4900W        W20031   7.730   3.679   1.958  0.0307  0.2154 -0.1779
 4901W        W20032  10.524   5.895  14.055 -0.1709  0.0695  0.0088
 4902W        W20033  14.552   3.939  14.070  0.0392  0.1148 -0.1227
 4903W        W20034  16.129  16.912  11.316 -0.1202 -0.1967 -0.0508
 4904W        W20035   9.027  12.806   5.560 -0.2138  0.1755  0.2667
 4905W        W20036  10.951   6.088  15.278 -0.3421 -0.1746  0.0425
 4906W        W20037  11.402  12.960   3.719 -0.3144 -0.0158  0.1956
 4907W        W20038  12.913   8.771   0.079 -0.0722  0.0960 -0.1323
 4908W        W20039  16.744  14.814  12.788  0.0793 -0.3651  0.2677
 4909W        W20040   1.295   0.625   3.140 -0.0249  0.0313  0.2425
 4910W        W20041   4.572  11.859  10.692 -0.1928  0.1918 -0.0447
 4911W        W20042   0.055   5.067   3.809  0.1339  0.0711  0.0380
 4912W        W20043   5.517  17.146   0.073  0.0870 -0.1434 -0.0427
 4913W        W20044   8.784  15.030   4.213  0.0013  0.2586  0.0883
 4914W        W20045  13.383  11.833   3.378 -0.1035 -0.0406 -0.1618
 4915W        W20046  14.577   4.412  12.419  0.1265 -0.4287 -0.3025
 4916W        W20047   0.549  16.091  15.009 -0.0751 -0.1451  0.1902
 4917W        W20048   6.075   9.965   1.718  0.3268  0.0354  0.0833
 4918W        W20049   4.130  11.678   1.661  0.2539  0.0571 -0.0748
 4919W        W20050   9.464   9.961  11.517 -0.2577  0.1534  0.0797
 4920W        W20051  16.284   5.779  11.797  0.1418 -0.3672  0.1870
 4921W        W20052  12.448  12.479   1.889 -0.0973 -0.0441 -0.0297
 4922W        W20053   2.659  14.542   3.942  0.0393  0.2511 -0.3238
 4923W        W20054   7.477  16.821   0.198 -0.2173 -0.3228 -0.0754
 4924W        W20055   8.291   5.470   0.006  0.2215  0.1543 -0.0830
 4925W        W20056  12.444  11.957  12.711 -0.2849 -0.0841 -0.0322
 4926W        W20057   7.299   6.383  15.068  0.2316  0.0949  0.2201
 4927W        W20058  17.823   0.015   4.000 -0.1925  0.1455  0.0068
 4928W        W20059  13.290   9.924  11.106  0.0357  0.1020 -0.0371
 4929W        W20060   9.025   1.784   5.450  0.0024 -0.0546 -0.1875
 4930W        W20061   5.995   7.092  12.210 -0.1450 -0.0911  0.0356
 4931W        W20062  18.465  17.917   0.873  0.1506  0.3038  0.0804
 4932W        W20063  15.361  12.480  10.377 -0.0679  0.1957 -0.0313
 4933W        W20064   2.255   0.743   1.272 -0.0275 -0.0276 -0.1451
 4934W        W20065   2.335  12.982  10.600 -0.0369 -0.0516 -0.0444
 4935W        W20066  12.103  15.288   9.857 -0.3257 -0.0497  0.0626
 4936W        W20067   6.410   5.343   3.085 -0.1349 -0.0781 -0.0364
 4937W        W20068   7.647  12.955  12.507 -0.4007  0.1388  0.1647
 4938W        W20069  12.137   4.750  13.327 -0.3036 -0.3006 -0.0680
 4939W        W20070  10.657   6.802  11.502  0.0835 -0.2817 -0.0677
 4940W        W20071   3.083   1.390  15.728  0.3913  0.0402  0.0503
 4941W        W20072   7.037   8.436  10.744  0.1492  0.4986 -0.1625
 4942W        W20073   3.053   5.230  14.267  0.1976 -0.1864  0.2709
 4943W        W20074   7.931  16.519  13.907  0.0560  0.1381  0.4244
 4944W        W20075   6.502   7.918   3.330 -0.0733  0.1077  0.2504
 4945W        W20076  12.803  10.121  10.076 -0.0112  0.0351 -0.0298
 4946W        W20077   8.700   8.976  12.049 -0.0774  0.0979  0.0924
 4947W        W20078   0.168  14.556   4.954 -0.2937  0.1171 -0.1207
 4948W        W20079   4.365  15.622   6.049  0.1461  0.0043  0.0322
 4949W        W20080   3.106   3.773  14.614  0.0954  0.2052 -0.1707
 4950W        W20081   2.892  14.412  12.743  0.0635 -0.1124  0.2888
 4951W        W20082   5.061   1.442  12.940 -0.1646 -0.2552  0.1821
 4952W        W20083   3.146   9.561   2.305  0.0847 -0.0752 -0.1418
 4953W        W20084  13.360   7.937  12.318  0.0135 -0.2372  0.2845
 4954W        W20085   8.771  13.395  14.069  0.1327 -0.2346 -0.0794
 4955W        W20086  16.134  13.552  11.711 -0.0685 -0.2302 -0.0053
 4956W        W20087   1.039   7.824  14.396 -0.1015  0.0705 -0.1923
 4957W        W20088   4.655   5.342   1.597  0.0602  0.1020 -0.1036
 4958W        W20089  17.308   9.530   2.640  0.0658  0.0575 -0.0251
 4959W        W20090   4.287  12.625  12.658 -0.1533 -0.0740 -0.1282
 4960W        W20091   3.368   8.393  15.612 -0.0668  0.1366 -0.0104
 4961W        W20092   0.597  11.383   5.037 -0.0846 -0.1460  0.1960
 4962W        W20093  14.683  14.951   3.517 -0.0350  0.2033  0.0333
 4963W        W20094  11.772  16.999  10.479  0.0105 -0.2303  0.2218
 4964W        W20095  18.213  15.560   4.621 -0.0305 -0.2705 -0.0983
 4965W        W20096  11.396  16.728  11.343 -0.2538  0.0465  0.0775
 4966W        W20097   9.702  14.860  12.955 -0.2288  0.2528 -0.1252
 4967W        W20098   9.562   0.594   3.835 -0.0230 -0.2970  0.1546
 4968W        W20099  16.608  10.153  14.054  0.0999  0.1297  0.0256
 4969W        W20100   8.273  17.875   4.932 -0.2780 -0.0247 -0.1704
 4970W        W20101   5.391   8.220   5.586  0.0938 -0.2974 -0.0108
 4971W        W20102  12.711  13.707   4.083  0.0180 -0.1389 -0.2242
 4972W        W20103  10.837   7.372   0.065 -0.2808  0.0846  0.1340
 4973W        W20104  18.181   8.070   5.021 -0.1531  0.3588 -0.0448
 4974W        W20105   8.345  18.203  14.922 -0.2259 -0.3230  0.0139
 4975W        W20106   8.475  10.876   0.104 -0.0603  0.1420 -0.0242
 4976W        W20107  15.043   7.182  14.390  0.3122  0.2839  0.0000
 4977W        W20108   2.980  15.734  12.395 -0.0198 -0.2108 -0.3245
 4978W        W20109   7.679  10.639  12.045 -0.0819 -0.0215  0.0450
 4979W        W20110   9.065  16.672   4.140  0.2123  0.2334 -0.1787
 4980W        W20111  16.672  16.263  11.217 -0.0513 -0.2565 -0.2714
 4981W        W20112  16.859  12.207  13.114 -0.1798 -0.1821 -0.0835
 4982W        W20113  17.405   1.786  13.538 -0.1857 -0.1321  0.0868
 4983W        W20114   2.628   3.979  14.544 -0.1354 -0.0024 -0.0520
 4984W        W20115   7.578   8.689   1.257 -0.0838  0.3044  0.0131
 4985W        W20116  11.337   1.908   0.943  0.1751  0.1371  0.0173
 4986W        W20117  14.506   8.037   3.623  0.0660 -0.0906 -0.0383
 4987W        W20118   6.804  13.008  13.389  0.3839 -0.3747 -0.5399
 4988W        W20119  16.240   9.864  13.269  0.1813  0.0523 -0.1281
 4989W        W20120  17.175   6.587  13.436  0.1101  0.2182 -0.3098
 4990W        W20121  12.914   1.365   1.295 -0.2113 -0.1201  0.3005
 4991W        W20122   0.079   8.600   6.087  0.1564 -0.2927 -0.0272
 4992W        W20123  15.860   5.126  13.464  0.0824 -0.3433 -0.3604
 4993W        W20124  15.153  18.142  15.123  0.2046 -0.1604 -0.2476
 4994W        W20125   0.466  14.606   4.000 -0.1907 -0.1099  0.2468
 4995W        W20126   4.913  18.542   4.377 -0.1418  0.2731  0.0052
 4996W        W20127   2.508   1.871   2.466 -0.0688  0.0639  0.0229
 4997W        W20128   7.376  14.282   3.236  0.1344 -0.1314 -0.3657
 4998W        W20129  14.600  15.350   4.569 -0.0585 -0.0666  0.1689
 4999W        W20130  10.116   9.303  10.611 -0.2668 -0.2345 -0.1055
 5000W        W20131   9.575  15.268   2.024  0.4341  0.0125 -0.2369
 5001W        W20132   6.096  16.609  12.709 -0.3276  0.0548  0.0645
 5002W        W20133  13.261  13.600   1.623 -0.1176 -0.0816  0.1551
 5003W        W20134  16.285  10.224   4.860 -0.3376  0.0268  0.0584
 5004W        W20135   9.685  10.381   3.069  0.1601  0.1360 -0.3807
 5005W        W20136  14.997  18.508  15.942 -0.1329  0.0352  0.1256
 5006W        W20137  12.592   7.044  13.963  0.1050 -0.0792 -0.2183
 5007W        W20138  12.592   9.487  11.951  0.1537  0.1391 -0.3724
 5008W        W20139   4.576  11.136   3.806 -0.1481 -0.1004 -0.0307
 5009W        W20140   4.707   2.318  15.708  0.1989  0.1529 -0.5127
 5010W        W20141   7.078  16.943  15.322  0.1461 -0.0648  0.0779
 5011W        W20142  11.152  12.724  15.520  0.4988 -0.0178 -0.1216
 5012W        W20143  15.616  12.848   1.163 -0.0335 -0.0547  0.0154
 5013W        W20144   6.644  11.075   1.714  0.2293  0.2567 -0.2462
 5014W        W20145  14.809   8.719   1.525  0.0542 -0.0452  0.3472
 5015W        W20146  15.593  10.513   6.030 -0.1565 -0.1372 -0.1423
 5016W        W20147  16.688   9.779  13.512  0.0243 -0.0825  0.3365
 5017W        W20148   9.054  11.297  10.674 -0.0387 -0.0915  0.1659
 5018W        W20149   0.173  11.502  14.141 -0.1680  0.1441  0.3350
 5019W        W20150  11.570   8.512   4.928 -0.1582  0.1302 -0.0527
 5020W        W20151  13.625   1.570  13.784 -0.0177 -0.1273 -0.0750
 5021W        W20152   3.282   3.821  15.452  0.0371 -0.3471  0.0707
 5022W        W20153   8.004  15.605   3.228 -0.2287 -0.2464 -0.2321
 5023W        W20154   2.322  13.289   0.991 -0.2827 -0.1334  0.0113
 5024W        W20155  12.339   6.895  14.395  0.0233  0.0571  0.0224
 5025W        W20156  12.294  15.494  10.379 -0.2359  0.0065 -0.3686
 5026W        W20157   1.397  14.439   5.470  0.0440  0.3053 -0.1406
 5027W        W20158  17.213   6.311   0.476  0.0820  0.2901  0.2681
 5028W        W20159   1.915   8.237   0.351  0.0907  0.0504 -0.1697
 5029W        W20160  14.187  10.775  13.523 -0.4352 -0.1349 -0.1590
 5030W        W20161  16.644  11.562   2.102 -0.4599  0.2343  0.0706
 5031W        W20162   2.713   8.813   3.246 -0.0613  0.2816  0.1918
 5032W        W20163   3.283  11.609   3.614  0.0934  0.1556  0.0798
 5033W        W20164  11.109   8.599   5.115 -0.1661 -0.0301  0.3651
 5034W        W20165   3.073  13.805  12.712 -0.0539  0.1875  0.1611
 5035W        W20166  13.820  16.346   0.328  0.2842  0.2475 -0.0826
 5036W        W20167   5.033   4.793  12.849 -0.3411 -0.1027  0.2942
 5037W        W20168   8.457   3.997   4.529 -0.0055  0.0674 -0.3510
 5038W        W20169   2.254   3.691   6.401  0.0721 -0.0141  0.1110
 5039W        W20170   8.274  12.460   1.683  0.1719  0.0474  0.1519
 5040W        W20171  12.592   1.516   4.523  0.0895  0.0265  0.0223
 5041W        W20172   4.730  10.523   0.570  0.0046 -0.1859 -0.1711
 5042W        W20173  13.155   5.514  12.390  0.1232 -0.1397 -0.4160
 5043W        W20174  14.993   0.483   1.088 -0.1589 -0.0889 -0.4852
 5044W        W20175  15.919  17.084   3.234  0.1653 -0.1526 -0.0749
 5045W        W20176   9.863   2.978   3.948  0.0568 -0.1687 -0.1636
 5046W        W20177   0.230  11.472  14.637  0.0276  0.1722  0.0829
 5047W        W20178   9.912  12.493   5.737  0.1125  0.1304  0.1619
 5048W        W20179  13.414   7.842  11.287 -0.1088  0.0823  0.1421
 5049W        W20180   2.744   0.873   4.651  0.0308  0.2461 -0.3059
 5050W        W20181  18.562   4.710   0.209  0.0319  0.0507  0.1441
 5051W        W20182   9.079  17.607  12.723 -0.4420  0.1093  0.0470
 5052W        W20183   7.448   0.821  10.845 -0.2088 -0.0183 -0.2093
 5053W        W20184  13.204   2.707   5.180  0.1212 -0.0479 -0.1867
 5054W        W20185  18.041  17.333  15.790 -0.0190  0.1940 -0.0557
 5055W        W20186  10.802   1.996  12.692  0.1227  0.0235  0.0319
 5056W        W20187   3.407   4.946   0.187  0.2262  0.2085  0.0373
 5057W        W20188  11.654   1.355   0.191 -0.0837 -0.1522  0.0264
 5058W        W20189  10.739   2.371   2.464 -0.1663 -0.0205  0.0739
 5059W        W20190   7.406   9.004  12.017  0.0855 -0.0828 -0.0395
 5060W        W20191  14.450   4.341  13.103  0.3657 -0.0428  0.3335
 5061W        W20192   0.865  12.177  11.255  0.3126  0.0306 -0.0898
 5062W        W20193   3.138  18.410  11.740 -0.0578  0.0779 -0.1891
 5063W        W20194   0.536   7.070   0.562  0.2576 -0.1570  0.1509
 5064W        W20195  10.042   6.115   4.738 -0.1335  0.1468 -0.0271
 5065W        W20196  17.870  18.091  11.109  0.0362  0.3916 -0.3764
 5066W        W20197   7.278  13.057   3.691 -0.1746 -0.1215 -0.0656
 5067W        W20198   8.179   2.679  10.896 -0.0517  0.0419 -0.0711
 5068W        W20199   0.300  10.718   6.249 -0.2179 -0.0776 -0.2932
 5069W        W20200  16.801  13.338   0.666  0.0444  0.0514  0.0021
 5070W        W20201   7.031  16.825  10.989 -0.1225 -0.0378  0.3700
 5071W        W20202   8.564  13.747  10.432  0.2530  0.2478 -0.1046
 5072W        W20203   2.631   7.129  15.238  0.0939 -0.1016  0.2085
 5073W        W20204   2.827  18.373  13.234  0.0357 -0.0458  0.2425
 5074W        W20205  14.493  16.170   2.561  0.1934 -0.2930 -0.0416
 5075W        W20206   3.623  11.076  11.860  0.1346  0.0633  0.0460
 5076W        W20207  10.057   4.084   1.297 -0.1932  0.1155  0.0990
 5077W        W20208   4.001   3.195   1.958 -0.2468  0.4349  0.1070
 5078W        W20209  18.246   4.726   5.512 -0.3111  0.1770 -0.0011
 5079W        W20210   7.297  12.104  10.030  0.0282  0.6878  0.0628
 5080W        W20211   6.992   3.226   0.992 -0.0248  0.1294 -0.0432
 5081W        W20212  15.877  15.204  14.025  0.0052  0.1724  0.1926
 5082W        W20213   8.442  17.317   0.945  0.0020  0.3205  0.2633
 5083W        W20214   7.970   5.348   1.420  0.0847 -0.0317  0.0933
 5084W        W20215  13.406  10.659   4.857 -0.1182 -0.1730 -0.0975
 5085W        W20216   6.881   7.422  11.697 -0.0215 -0.0109 -0.2698
 5086W        W20217  12.704  11.924   4.236  0.2645 -0.2103 -0.2123
 5087W        W20218  16.037  17.186   5.274 -0.2153 -0.1509  0.0626
 5088W        W20219  10.730   0.970  14.384  0.2052  0.0040  0.3166
 5089W        W20220  16.607  12.878   4.684 -0.0620 -0.2446 -0.0258
 5090W        W20221   5.619  10.428   4.119 -0.1459  0.1651 -0.2204
 5091W        W20222   2.844   7.547   4.684 -0.0498  0.2945  0.1366
 5092W        W20223  12.928   3.414  12.923 -0.1079 -0.0018  0.1550
 5093W        W20224   9.887   1.482  11.267 -0.1706 -0.1817  0.1296
 5094W        W20225   1.749   9.451  14.793 -0.0079  0.0901 -0.0044
 5095W        W20226  17.272  14.867   0.064  0.1115  0.0345 -0.1194
 5096W        W20227   2.743  11.242  12.133 -0.3394  0.0363 -0.0079
 5097W        W20228   6.879  11.742   3.527  0.1686  0.1229 -0.0997
 5098W        W20229  18.191   0.751  12.621 -0.1194 -0.0990  0.0787
 5099W        W20230   0.434   7.931  11.280  0.1147  0.0440 -0.1911
 5100W        W20231   5.982   9.977   1.236  0.3459 -0.0161 -0.1365
 5101W        W20232  17.870  10.829  11.036  0.1783 -0.0955 -0.1268
 5102W        W20233   4.200  13.099  14.343  0.1231 -0.2098  0.2130
 5103W        W20234  13.634  13.603  12.274 -0.0844 -0.2912  0.1167
 5104W        W20235   1.454  16.283  11.665  0.0307 -0.0450  0.3319
 5105W        W20236  11.486   1.768  14.353  0.0096 -0.0641 -0.2947
 5106W        W20237   2.986  10.982  13.324  0.0039  0.2354  0.0016
 5107W        W20238  12.141  15.266   4.655  0.0026  0.2350 -0.2372
 5108W        W20239  17.030   1.241   3.941 -0.0090  0.0062 -0.0792
 5109W        W20240  11.821   0.466   4.282 -0.0435  0.1881 -0.1512
 5110W        W20241   7.155  10.776  15.608  0.1216 -0.1708 -0.1494
 5111W        W20242   6.215   3.954  13.502 -0.1086 -0.0185 -0.1678
 5112W        W20243   8.751  10.164  14.061  0.0766 -0.0308  0.0639
 5113W        W20244   0.106  15.197   5.728  0.2505  0.0118 -0.3889
 5114W        W20245   6.536  14.020  13.730  0.0428  0.0517 -0.0245
 5115W        W20246   0.982   6.137   0.654  0.0620 -0.1136  0.1321
 5116W        W20247  16.588   0.814  15.045  0.3202  0.2338 -0.1542
 5117W        W20248   4.175   0.165   5.534  0.1636  0.1062  0.2132
 5118W        W20249   6.494   3.840   5.671  0.0883 -0.0499  0.1355
 5119W        W20250   5.745  17.742  12.474  0.0519  0.1153 -0.2280
 5120W        W20251   5.733   6.365   1.551  0.1564 -0.0776 -0.2057
 5121W        W20252  11.467  17.722   3.656 -0.1788 -0.0461 -0.1547
 5122W        W20253   2.067   1.797  15.708  0.1467 -0.1102 -0.0010
 5123W        W20254   7.206   4.978   4.861  0.0350  0.0841  0.0109
 5124W        W20255   0.524   9.235   4.025  0.0136  0.1545  0.0152
 5125W        W20256  17.467   0.878  15.822 -0.2800 -0.0332  0.1671
 5126W        W20257  17.485  13.612  15.929  0.2533 -0.1150  0.0627
 5127W        W20258  18.284   4.093  11.753  0.4183 -0.1085 -0.1803
 5128W        W20259  17.672  14.656   2.390 -0.0910  0.1133 -0.2325
 5129W        W20260  18.475  15.523   3.183  0.0717 -0.0299 -0.2728
 5130W        W20261   6.160   1.502  12.860  0.1170 -0.2697 -0.1782
 5131W        W20262   7.367   5.656  15.850  0.0003 -0.0474  0.2005
 5132W        W20263  13.524   4.435  14.668  0.0380  0.1142 -0.0614
 5133W        W20264  10.054   8.691   0.527  0.0650 -0.4142 -0.3753
 5134W        W20265  12.179   0.435  13.374  0.1487  0.1170  0.1861
 5135W        W20266   1.142   0.274  13.441  0.0348  0.2421 -0.0462
 5136W        W20267  10.820  16.200  14.551  0.2975 -0.0362  0.3214
 5137W        W20268   1.362   4.271  12.599 -0.0089  0.5078 -0.2696
 5138W        W20269  11.191   7.114   2.911 -0.2091 -0.0072 -0.0887
 5139W        W20270  13.944   8.003  13.842  0.0642  0.1030 -0.1519
 5140W        W20271   5.438   7.043  12.349 -0.1946 -0.0174  0.2348
 5141W        W20272   0.794   5.661   0.302  0.1519 -0.1064 -0.0793
 5142W        W20273  17.994   2.443  12.536 -0.1745 -0.1307  0.2065
 5143W        W20274   1.297   4.528  13.003 -0.0013  0.2209 -0.2604
 5144W        W20275  13.671   7.409   5.361 -0.0818 -0.0893 -0.0863
 5145W        W20276   9.110  17.386  12.214  0.0283  0.2007  0.1127
 5146W        W20277   8.835  16.726  14.657 -0.1243 -0.1666 -0.4230
 5147W        W20278  15.070   8.401  14.788 -0.2529 -0.1972 -0.0038
 5148W        W20279   2.677   3.524  12.300  0.3157  0.1602  0.2898
 5149W        W20280  13.081  17.256   0.866  0.1564 -0.0093  0.0290
 5150W        W20281  14.198  16.796  15.111  0.0364 -0.1966 -0.0013
 5151W        W20282   5.130   7.451   0.884 -0.0405 -0.0304  0.2234
 5152W        W20283   6.254  18.148  11.716  0.3825 -0.0490 -0.3308
 5153W        W20284   5.680  14.998  12.068  0.1485 -0.1249  0.1539
 5154W        W20285   2.373   5.388   3.737  0.2123 -0.0865 -0.0516
 5155W        W20286  13.422   0.702   1.524  0.3343 -0.4674  0.0034
 5156W        W20287   5.345  17.989  12.405 -0.2709  0.1310 -0.1037
 5157W        W20288  11.865  15.845   0.698 -0.1068 -0.0727 -0.1461
 5158W        W20289   8.929  15.628  10.521 -0.2280  0.1436  0.0478
 5159W        W20290   5.141   3.270  14.579 -0.1182 -0.1469  0.1756
 5160W        W20291   4.505  11.542   0.337  0.2353 -0.4280  0.1431
 5161W        W20292  16.507   2.633  14.312  0.2823 -0.0120 -0.0452
 5162W        W20293  16.512   5.516  12.154 -0.6125 -0.0751 -0.1176
 5163W        W20294  13.518   9.457  11.310 -0.0690  0.0512 -0.1424
 5164W        W20295   5.817  10.264  12.063  0.0071 -0.1165  0.3021
 5165W        W20296  10.460   8.274   2.533 -0.0681  0.1667  0.0827
 5166W        W20297   9.495   6.932   3.941  0.1388  0.0041 -0.1027
 5167W        W20298   3.483   1.496   3.633 -0.1075 -0.0306 -0.0170
 5168W        W20299  11.165   3.275   3.671  0.1288 -0.2808  0.1044
 5169W        W20300  15.362  11.951  13.412 -0.1751 -0.1488  0.1410
 5170W        W20301   9.589  12.700   5.452  0.1637  0.1693  0.0421
 5171W        W20302  11.590  11.973   0.418 -0.1543  0.0140  0.0552
 5172W        W20303  11.094   7.618   4.087  0.0714  0.2888  0.0541
 5173W        W20304   9.183  14.913  13.886  0.3725 -0.1621 -0.0363
 5174W        W20305   0.082  13.596   3.474  0.0373 -0.0409  0.0481
 5175W        W20306  16.110  18.112  13.946  0.0892 -0.1602 -0.0626
 5176W        W20307   3.345   1.795  11.516 -0.0029  0.2419  0.0784
 5177W        W20308  14.484   6.715  12.656 -0.2261  0.0583  0.0343
 5178W        W20309  16.308  10.124   4.355 -0.2821 -0.6591  0.1360
 5179W        W20310   9.257  11.539  15.403  0.0918  0.0095  0.1273
 5180W        W20311   6.194  14.233  14.239 -0.2371 -0.1808 -0.2762
 5181W        W20312   8.078   6.383   0.795  0.3498 -0.0030  0.0122
 5182W        W20313  16.593  12.984  12.592  0.1350 -0.0721  0.3342
 5183W        W20314  14.878  17.223   0.896 -0.0361 -0.1022  0.0308
 5184W        W20315   2.098   5.244  10.394  0.1148  0.1645  0.0281
 5185W        W20316   1.710   6.714   1.046  0.1218  0.1174 -0.0224
 5186W        W20317   8.247   5.026   3.101 -0.0665  0.1166  0.4608
 5187W        W20318   4.997   8.870   2.410 -0.1404 -0.3457  0.1789
 5188W        W20319  16.942   5.819  13.935 -0.0943  0.0536 -0.2156
 5189W        W20320   2.231  16.831  13.571  0.2840 -0.0762 -0.0147
 5190W        W20321   0.928   0.484   5.085  0.4774  0.1720  0.3055
 5191W        W20322   7.913  12.989  14.857 -0.2986  0.2778 -0.2109
 5192W        W20323  12.590   2.055  15.349  0.1128  0.0938 -0.0332
 5193W        W20324   0.334  13.429  14.027 -0.0716 -0.1035  0.1338
 5194W        W20325  11.512   2.607  13.191  0.2655  0.2508  0.1684
 5195W        W20326   6.962   6.996  14.486  0.2813  0.4601  0.0454
 5196W        W20327  12.400   2.747  12.576 -0.3854 -0.3709  0.1665
 5197W        W20328   1.218   0.996   5.480 -0.2533 -0.0539 -0.0086
 5198W        W20329   5.565   6.478  10.104  0.0399 -0.1064  0.0638
 5199W        W20330   6.523  15.815   0.236 -0.1137  0.0238  0.1896
 5200W        W20331   8.473   5.115  12.218  0.0433  0.0742 -0.5973
 5201W        W20332   1.904  12.283  15.468  0.3142 -0.0486  0.2747
 5202W        W20333  10.999  11.355   0.655  0.1661  0.1955 -0.0667
 5203W        W20334   5.271   3.017  14.155  0.0341 -0.1951  0.2491
 5204W        W20335   1.730  10.491  12.871  0.5325  0.1237 -0.2629
 5205W        W20336   1.134   0.283  14.759  0.0758 -0.0808  0.5423
 5206W        W20337   8.810  15.778   2.328  0.0084 -0.1282 -0.1386
 5207W        W20338   9.691   2.694  15.317  0.1784 -0.0009 -0.3506
 5208W        W20339   5.168  17.077   9.521 -0.2220  0.0807 -0.0754
 5209W        W20340   4.772   6.710   2.891 -0.0130 -0.1707 -0.0854
 5210W        W20341   3.292  15.759  13.144 -0.1218 -0.0028  0.1900
 5211W        W20342  13.505  12.929  11.040  0.1004 -0.1977 -0.0806
 5212W        W20343   6.461   6.294   2.791 -0.0117 -0.0662  0.0357
 5213W        W20344  13.306   4.268   3.994 -0.0746 -0.1535 -0.1887
 5214W        W20345  10.465   6.276   1.003  0.3158  0.1467  0.5630
 5215W        W20346  11.428  13.697  10.723  0.0893  0.3004  0.2301
 5216W        W20347   3.652  16.748  11.190 -0.2177 -0.0562  0.1018
 5217W        W20348   1.258   0.843   2.342 -0.0475 -0.1203  0.0608
 5218W        W20349   2.371   6.823  10.911  0.1813 -0.0676  0.1025
 5219W        W20350   5.211   4.439  13.842 -0.3715  0.3921 -0.0472
 5220W        W20351  16.288   8.397  15.884 -0.0017  0.1248  0.0755
 5221W        W20352  11.387   8.018  11.639 -0.2009 -0.0196  0.0083
 5222W        W20353  11.908   0.536  15.309 -0.2255 -0.0669  0.2863
 5223W        W20354   5.170   8.092   2.828  0.3153  0.3054 -0.2761
 5224W        W20355  15.833   3.853  12.317  0.1428 -0.2795  0.2584
 5225W        W20356  15.830   9.781   0.403 -0.0633  0.2190 -0.2791
 5226W        W20357  17.014  12.499  12.707  0.1241  0.1123 -0.1196
 5227W        W20358   9.211   2.446   2.447  0.1884 -0.2150  0.0623
 5228W        W20359  10.000  17.460   3.390 -0.2147  0.1165  0.5908
 5229W        W20360   1.498   8.436   4.717  0.2329 -0.0090 -0.0556
 5230W        W20361   2.793  13.223   3.940  0.4370 -0.0748  0.2623
 5231W        W20362  14.174  18.007   1.791 -0.0040  0.4220 -0.2586
 5232W        W20363   5.133  15.088   4.764 -0.1067 -0.2733  0.3939
 5233W        W20364  14.416  13.126   0.546 -0.0542 -0.3010  0.0227
 5234W        W20365   2.593   4.313   5.760 -0.1617 -0.1784 -0.2397
 5235W        W20366   4.051   6.570   3.153  0.0720 -0.1126 -0.0429
 5236W        W20367   8.481  16.967  15.413 -0.0811 -0.1201 -0.3879
 5237W        W20368  16.973   5.319  11.963 -0.0974 -0.0690  0.0139
 5238W        W20369   9.383   8.547   2.125 -0.0493 -0.0840 -0.0608
 5239W        W20370   7.867  12.125   4.377  0.3454  0.4333 -0.0751
 5240W        W20371   5.110   4.011   2.402  0.0057  0.1554 -0.1409
 5241W        W20372   8.133  14.265   1.667  0.4397 -0.1181  0.2905
 5242W        W20373   3.232   4.103   2.135 -0.0800  0.2356 -0.0972
 5243W        W20374   4.311   9.690   3.170  0.0143 -0.2031 -0.0139
 5244W        W20375   6.062  18.425   4.434 -0.0213  0.3397  0.1119
 5245W        W20376   5.984   8.949   3.841  0.1855  0.0539 -0.1430
 5246W        W20377   6.270   2.038  14.651  0.0594 -0.1871  0.1116
 5247W        W20378   3.063  16.564   1.805 -0.1866 -0.1222 -0.0659
 5248W        W20379   6.094  17.474  11.161  0.0837 -0.2013  0.3583
 5249W        W20380   3.073   0.521  13.522 -0.1979  0.1524 -0.1477
 5250W        W20381   1.757  16.528   5.275  0.1747  0.0387  0.2471
 5251W        W20382   0.957   5.152  13.622  0.0531  0.0222  0.1660
 5252W        W20383   9.193  10.731   1.761 -0.0964 -0.1681  0.1676
 5253W        W20384   2.329   5.178   6.148 -0.0376 -0.2120 -0.1660
 5254W        W20385  10.163  13.622  15.402 -0.0513 -0.1641  0.0967
 5255W        W20386   2.897  14.999   1.454 -0.1801  0.0534 -0.2012
 5256W        W20387  12.295   2.526  13.286 -0.2376 -0.1301 -0.0385
 5257W        W20388  15.227  16.227   3.796 -0.0497 -0.0872  0.2314
 5258W        W20389   2.033  16.774   1.644 -0.0031  0.0951 -0.1099
 5259W        W20390   1.627   8.489  15.515 -0.0513 -0.0494 -0.2765
 5260W        W20391  12.214   1.603  13.701 -0.0112  0.0942 -0.1571
 5261W        W20392  17.089   5.551   4.614  0.0219 -0.0084 -0.0384
 5262W        W20393   6.587   4.567   3.266  0.4012  0.2670  0.2446
 5263W        W20394   2.595   4.833   3.462  0.4369 -0.0824 -0.2004
 5264W        W20395  14.170   6.989  11.328  0.1273  0.2775  0.0137
 5265W        W20396   1.867  12.319   4.283  0.2385  0.1368  0.1403
 5266W        W20397  11.529  13.023   2.729 -0.0529 -0.0204  0.2532
 5267W        W20398   5.392   1.037  13.859 -0.2950  0.2400  0.0665
 5268W        W20399  14.729   7.275   1.827 -0.3172 -0.2887 -0.2115
 5269W        W20400  14.311  13.881  13.188 -0.0344 -0.1259  0.1420
 5270W        W20401  17.520   0.413   4.218 -0.1258  0.0778  0.0472
 5271W        W20402   9.987  17.729  13.235  0.0250  0.3734  0.1838
 5272W        W20403  13.374   9.979  10.622 -0.1272  0.0371  0.0403
 5273W        W20404   0.982   3.328  11.096 -0.0312  0.2660 -0.0059
 5274W        W20405   1.085   0.231  15.219 -0.3111 -0.0875 -0.3806
 5275W        W20406   4.799   7.275   1.733 -0.2326  0.0915 -0.1611
 5276W        W20407  12.593   7.076   3.017  0.1770 -0.0078 -0.4054
 5277W        W20408   9.388   4.401  13.611 -0.2095 -0.1829 -0.3211
 5278W        W20409  17.949  16.541  10.428  0.0044  0.2389  0.0593
 5279W        W20410   8.687   5.107   0.287  0.2654 -0.2090  0.3694
 5280W        W20411   1.595   0.565  12.567 -0.1992  0.0964  0.1578
 5281W        W20412  14.177   3.766   3.130  0.0515 -0.2594  0.0210
 5282W        W20413  14.887  18.190  14.647  0.3015  0.1820  0.2239
 5283W        W20414   3.567   7.077  11.288  0.0830  0.3283  0.0442
 5284W        W20415   4.432  17.418  14.429  0.0498  0.0627  0.1798
 5285W        W20416  14.113  15.703  15.668 -0.2164  0.0932  0.1497
 5286W        W20417  17.310   1.593  15.197 -0.0162  0.0599  0.1013
 5287W        W20418  15.795   7.189  13.079  0.2026 -0.1016  0.0524
 5288W        W20419  15.367   0.511   0.201 -0.0102 -0.1604  0.1965
 5289W        W20420  16.305  17.706  15.550 -0.0258 -0.0042  0.0516
 5290W        W20421  11.869  12.832   3.528 -0.3186 -0.0114 -0.2747
 5291W        W20422   6.212  15.889   2.376 -0.0293  0.0688 -0.1318
 5292W        W20423   1.704   0.211   0.292  0.1431  0.0010 -0.2213
 5293W        W20424   0.604   7.125  11.018 -0.0406 -0.2627 -0.1153
 5294W        W20425   9.589   2.187   4.861  0.1192  0.0970 -0.0308
 5295W        W20426   3.078  11.777  12.900  0.2302  0.2543  0.2129
 5296W        W20427  11.832   9.676   3.399  0.2456 -0.2498  0.1492
 5297W        W20428   3.659  16.424  15.167 -0.4233 -0.2479 -0.4277
 5298W        W20429   9.995   1.493  11.736 -0.0124  0.2421 -0.0174
 5299W        W20430   6.871  13.483   0.007  0.0576 -0.1082 -0.0742
 5300W        W20431   2.375   0.722   2.972 -0.2161 -0.0293  0.0334
 5301W        W20432  10.110   7.615  11.188 -0.0742  0.3038  0.2313
 5302W        W20433   9.564  12.070   3.599 -0.1674  0.0414  0.0332
 5303W        W20434   0.864  18.007   0.495 -0.1742  0.2176 -0.1706
 5304W        W20435   5.840  18.090   3.665  0.1392  0.6316 -0.1516
 5305W        W20436  13.057  17.470  10.283  0.0462 -0.3049  0.0100
 5306W        W20437   7.679  17.025  13.865 -0.5012 -0.0252 -0.1685
 5307W        W20438  17.957   4.466  11.560  0.0121 -0.3204  0.0946
 5308W        W20439   3.443   0.691   3.815 -0.1558 -0.1287 -0.0247
 5309W        W20440   3.412   7.861  11.067 -0.2118  0.1108  0.1846
 5310W        W20441   7.044   3.150  14.672 -0.1888  0.0513 -0.0794
 5311W        W20442   7.916   0.882  11.264 -0.0856  0.0933 -0.0519
 5312W        W20443  10.700   9.775   0.657  0.1461  0.2349  0.1378
 5313W        W20444   5.570  16.390   3.508 -0.0274  0.6116  0.2183
 5314W        W20445   3.710   9.916   1.443  0.0619  0.2042 -0.0301
 5315W        W20446   2.857   2.059  14.994 -0.1469  0.0808  0.4361
 5316W        W20447  16.427  10.089  12.183 -0.2343  0.2984 -0.1986
 5317W        W20448   3.124   8.203  10.002 -0.1433 -0.1353 -0.2963
 5318W        W20449   5.860  13.569  12.857 -0.1507  0.5417 -0.2195
 5319W        W20450  15.189   0.674   3.198  0.3126  0.0586  0.0100
 5320W        W20451  11.458  14.102   3.310  0.3082 -0.1817  0.0542
 5321W        W20452  14.197   3.176  12.148  0.4053  0.2503  0.0203
 5322W        W20453  11.939  11.244  15.558  0.2266 -0.0859  0.0607
 5323W        W20454   9.188  12.946  13.215 -0.2782 -0.1918 -0.3023
 5324W        W20455  17.179   1.115   0.862  0.0654  0.2331  0.1970
 5325W        W20456  13.092  16.101   1.485 -0.1948  0.0775 -0.2520
 5326W        W20457  13.425  13.681   2.181  0.1487  0.0104 -0.2232
 5327W        W20458  18.122  13.023  14.453 -0.0861  0.0025  0.0582
 5328W        W20459  11.309  11.033   1.646 -0.2250  0.0205  0.0537
 5329W        W20460  18.185   8.974   1.185  0.0597 -0.1285 -0.1056
 5330W        W20461   7.038  13.836   0.733 -0.2579 -0.1694  0.0507
 5331W        W20462   8.502   0.902  11.174 -0.1016 -0.2898  0.1096
 5332W        W20463  14.184  12.454   1.986 -0.2148 -0.0625 -0.2027
 5333W        W20464   5.180  10.274   3.228  0.0981 -0.1848 -0.1088
 5334W        W20465   7.002  16.388   9.786  0.3107  0.5141 -0.1290
 5335W        W20466  12.805   2.557   4.013 -0.0336  0.0644 -0.3288
 5336W        W20467   5.810   3.070  15.141 -0.1701 -0.0822  0.0418
 5337W        W20468  10.161   1.613   3.658  0.1855 -0.2372 -0.1528
 5338W        W20469   7.276  17.153   0.917  0.0076 -0.1022 -0.0670
 5339W        W20470  15.453   3.864   3.623 -0.0715  0.1081  0.2376
 5340W        W20471  13.610   8.651  13.872 -0.2633 -0.1634 -0.4058
 5341W        W20472   1.841  13.276  13.832 -0.1975  0.1317 -0.1519
 5342W        W20473   0.889  14.876   0.368 -0.1941  0.0140  0.2532
 5343W        W20474  13.219   5.184  13.315  0.0144  0.0309 -0.1922
 5344W        W20475   7.798  11.700   1.534  0.2144  0.0502 -0.2113
 5345W        W20476   9.660  16.294   4.173  0.0482 -0.2213 -0.0235
 5346W        W20477   8.357  17.084  11.523 -0.2213  0.1964  0.0921
 5347W        W20478  13.235  18.398  15.383 -0.4325 -0.1712 -0.1071
 5348W        W20479   0.655   5.933  14.303  0.0439  0.1367 -0.0436
 5349W        W20480  10.135  11.128   9.645  0.0340 -0.1588 -0.0860
 5350W        W20481   1.872   0.929   4.139  0.0226  0.1340 -0.3113
 5351W        W20482   2.095   6.339   0.931  0.2985  0.2083  0.2989
 5352W        W20483   5.957  11.177   3.228 -0.1173  0.0614 -0.1776
 5353W        W20484  17.130   9.420   0.217 -0.0041  0.0160 -0.0854
 5354W        W20485  12.498  12.957  12.497  0.1529 -0.2140 -0.0773
 5355W        W20486   1.819   8.790   4.536  0.0586  0.1074 -0.3242
 5356W        W20487  10.301   1.574  14.961  0.2930  0.0560  0.1935
 5357W        W20488   4.393  15.558   1.775 -0.1388 -0.1048 -0.0459
 5358W        W20489   2.121  14.744  11.267  0.0981 -0.0860  0.0656
 5359W        W20490  14.952  17.179   4.285 -0.2710 -0.2732  0.0340
 5360W        W20491  16.927   1.817  14.265  0.2118 -0.3971 -0.1060
 5361W        W20492  10.074   1.381   4.186  0.0240  0.0447 -0.0403
 5362W        W20493   5.699  15.945  13.686 -0.0852  0.1646  0.0057
 5363W        W20494   3.254  12.218   4.762  0.0471 -0.0591 -0.0349
 5364W        W20495  12.114  16.750  11.168 -0.0645  0.1329  0.1889
 5365W        W20496  13.448   8.956   0.562  0.1980  0.0273  0.0494
 5366W        W20497  13.347   3.152  13.834 -0.0985  0.1542  0.3263
 5367W        W20498  14.536   9.863  15.824  0.0372  0.2371  0.2536
 5368W        W20499   6.444   3.923  15.154  0.0691  0.3648  0.3817
 5369W        W20500  11.390  13.495  12.629 -0.1468  0.0156  0.1352
 5370W        W20501   7.342  15.233  12.878 -0.1237 -0.3020 -0.2826
 5371W        W20502  10.964   6.947  12.828  0.0658  0.1081 -0.1329
 5372W        W20503   2.392   1.955  15.237  0.0926  0.0680  0.0711
 5373W        W20504  12.522  17.013   2.302 -0.2659 -0.5007  0.1753
 5374W        W20505   5.680  14.678   2.885 -0.2138  0.3473  0.2422
 5375W        W20506   2.177  16.319  13.718  0.1411 -0.2081 -0.0229
 5376W        W20507   0.177   7.419   0.642  0.1290  0.1037  0.0047
 5377W        W20508  15.767  12.582  10.656 -0.0385 -0.5410  0.0994
 5378W        W20509  11.869  14.819   1.604  0.2437 -0.0072 -0.0170
 5379W        W20510   3.695   8.476   1.330  0.0395 -0.3629  0.1824
 5380W        W20511  16.101   2.061  10.326  0.1825 -0.1270  0.1837
 5381W        W20512   6.379   5.679   0.997  0.0133  0.3729  0.0433
 5382W        W20513  18.359  13.108   3.772  0.0203  0.0296 -0.2896
 5383W        W20514   0.775  15.923  15.675  0.0209  0.2434  0.1478
 5384W        W20515   2.072   8.153  14.470 -0.3457 -0.0062 -0.2419
 5385W        W20516   5.461  11.664   2.436 -0.0637  0.2030  0.1745
 5386W        W20517   6.237  10.347   1.981 -0.0776  0.0147  0.0365
 5387W        W20518   2.074   5.954  13.305  0.1848 -0.1690  0.0353
 5388W        W20519   8.552   4.809  11.285  0.2191  0.0076  0.0395
 5389W        W20520  10.890   3.754  14.426  0.2123 -0.1129  0.0872
 5390W        W20521  11.488   4.207   2.845  0.1591 -0.1239  0.1441
 5391W        W20522  11.570  14.540   4.624  0.1342 -0.0510 -0.3197
 5392W        W20523  11.038  18.125   1.827  0.0567  0.0975 -0.1143
 5393W        W20524  12.031   7.356   4.424 -0.3374 -0.0586  0.3641
 5394W        W20525   4.761  11.682   3.828  0.0974  0.1204 -0.4257
 5395W        W20526   3.198  11.631  12.300  0.2672 -0.1351 -0.4079
 5396W        W20527   9.319  17.098   0.960 -0.2144 -0.2604  0.3419
 5397W        W20528   5.394   2.311  14.936  0.2117  0.0559  0.0940
 5398W        W20529   6.038  13.953   0.351  0.1162  0.2078  0.3494
 5399W        W20530   7.699   6.961   5.605 -0.0983 -0.3056 -0.2234
 5400W        W20531  12.693  10.855   3.099  0.0549 -0.0779  0.0366
 5401W        W20532   1.081  14.617   1.188  0.5903  0.0728  0.0503
 5402W        W20533   3.700   2.817   4.533  0.2390 -0.0142 -0.0556
 5403W        W20534   6.473  10.029  14.794  0.0306  0.0076  0.1908
 5404W        W20535  12.378   5.941  13.438 -0.0910 -0.0124 -0.2484
 5405W        W20536   5.563  18.560   1.324 -0.0804  0.0908 -0.1813
 5406W        W20537  16.406   7.843  11.173  0.2896 -0.1304  0.1794
 5407W        W20538   3.311   8.139   3.989 -0.1228  0.0897  0.0954
 5408W        W20539   9.423  14.170  11.373  0.2743 -0.0435  0.0765
 5409W        W20540   2.210  15.223   3.190  0.2119  0.2165  0.1934
 5410W        W20541  13.613   7.648   2.373 -0.2044 -0.2447 -0.1673
 5411W        W20542  14.401  18.493  14.884  0.0586 -0.2011 -0.0169
 5412W        W20543  18.076  16.034   1.020 -0.0798 -0.1761  0.2146
 5413W        W20544   8.119   2.382  12.747 -0.0060  0.1939 -0.1672
 5414W        W20545   1.147   9.504   1.917  0.2381 -0.1328  0.0389
 5415W        W20546  13.524  11.052   2.096 -0.3996 -0.0022  0.1808
 5416W        W20547  15.076  16.361  14.728  0.1093 -0.0317 -0.0467
 5417W        W20548   5.539  14.794   5.184  0.0030 -0.0953  0.1552
 5418W        W20549  13.621   8.869   5.247 -0.1841  0.1198  0.1886
 5419W        W20550  13.415  17.337  12.357 -0.2153  0.2118 -0.0241
 5420W        W20551   3.157  12.906  15.021  0.1666  0.1162 -0.0724
 5421W        W20552   5.656   6.871   5.120 -0.4648 -0.1429 -0.2107
 5422W        W20553   3.281   9.803   4.482 -0.0181  0.2222  0.0771
 5423W        W20554  12.707  13.826  11.482 -0.1168 -0.1740  0.0246
 5424W        W20555  17.879   5.867   1.535  0.1286  0.0978  0.0792
 5425W        W20556   1.012  16.509   5.260 -0.0832 -0.2262 -0.0608
 5426W        W20557   6.042   0.055  11.954 -0.0839 -0.1766 -0.1040
 5427W        W20558   5.395   8.382   2.528 -0.0608 -0.0545 -0.2507
 5428W        W20559  16.698   9.441  15.807 -0.2330  0.2664 -0.1499
 5429W        W20560   5.666   0.150  11.373 -0.3134 -0.4141  0.1752
 5430W        W20561  14.818  16.517   3.599 -0.1431  0.0126  0.1072
 5431W        W20562   7.359  16.439   3.967 -0.2280 -0.0626 -0.1098
 5432W        W20563   9.288  13.947   1.021 -0.4234  0.2426  0.0691
 5433W        W20564  16.901   0.098   1.340  0.0816  0.1598 -0.1591
 5434W        W20565  10.034   0.063  14.228 -0.3210 -0.1012 -0.3177
 5435W        W20566   2.654  17.055  14.118  0.1583  0.1158 -0.2175
 5436W        W20567   8.746  17.910   2.593 -0.0308 -0.2233 -0.1094
 5437W        W20568  16.943   1.038   4.780 -0.0079  0.0732  0.0066
 5438W        W20569  11.459   1.064  12.959 -0.1347 -0.0939  0.0328
 5439W        W20570   2.995   3.872   0.146 -0.0381  0.0629 -0.2862
 5440W        W20571  11.253  16.580   2.077  0.2318  0.1919 -0.3767
 5441W        W20572  16.423  10.663   4.510  0.0268  0.0508  0.0358
 5442W        W20573  14.819  16.227   2.034 -0.1080  0.2829  0.3099
 5443W        W20574   1.901   1.303   3.777 -0.1394 -0.0159 -0.0373
 5444W        W20575   8.973  16.392   2.055  0.2769 -0.1335  0.0929
 5445W        W20576   0.310   3.330  13.896  0.0945 -0.1302  0.0937
 5446W        W20577  15.329   1.584  11.625 -0.0230  0.1758  0.0170
 5447W        W20578  11.053   3.088   2.615  0.2767  0.0373  0.1497
 5448W        W20579   3.527   9.422   5.170  0.0113 -0.0470  0.1199
 5449W        W20580   2.063   3.080  12.443  0.1409 -0.2158  0.1418
 5450W        W20581  17.734  12.156   1.600 -0.2821 -0.2757 -0.5020
 5451W        W20582  14.873   0.155  11.522 -0.0286 -0.1650  0.0986
 5452W        W20583   7.610   3.423  14.971 -0.4950  0.4752  0.3361
 5453W        W20584   6.560  17.561   0.252  0.0530 -0.1567  0.0920
 5454W        W20585  11.319   7.231  10.953  0.2716  0.3030  0.1965
 5455W        W20586  10.760  10.019  10.867  0.4502  0.1153  0.0262
 5456W        W20587  14.442   0.896  14.538 -0.0485 -0.2065 -0.0981
 5457W        W20588   6.427  18.265  15.536 -0.0754  0.3734 -0.1048
 5458W        W20589  14.154   3.815  11.531  0.3067  0.2545  0.1787
 5459W        W20590  14.509  16.272  15.580  0.0215 -0.3980  0.3351
 5460W        W20591   8.113   7.288   1.541  0.2443  0.0394 -0.0563
 5461W        W20592   3.253   4.707  14.257  0.1295 -0.0729 -0.1601
 5462W        W20593   2.037  13.680  14.436  0.0090  0.0448 -0.0686
 5463W        W20594   1.920   1.107  11.237  0.0557 -0.2999  0.2306
 5464W        W20595  14.419   1.913  11.953  0.1784  0.0792  0.1316
 5465W        W20596  11.967  14.538   4.200 -0.0591  0.0914 -0.0039
 5466W        W20597  13.820  18.322   2.334 -0.1691  0.1143 -0.1375
 5467W        W20598  11.553   5.925   4.442 -0.0999 -0.0195  0.4279
 5468W        W20599   3.241   2.901   3.525 -0.1652 -0.1219  0.3161
 5469W        W20600   6.743   0.799  13.332 -0.1515 -0.0089 -0.2167
 5470W        W20601  10.347  14.977  12.970 -0.1605 -0.1747  0.0727
 5471W        W20602   3.266   9.128  13.694  0.0060  0.3487  0.1012
 5472W        W20603   8.932  17.279   3.560 -0.2588 -0.2645  0.3074
 5473W        W20604  17.157  14.205   2.545  0.2095  0.0758  0.1002
 5474W        W20605  18.144  18.524  13.744 -0.0737  0.1032 -0.1058
 5475W        W20606   7.032   0.478  10.624 -0.1029 -0.1078  0.1646
 5476W        W20607   8.942   1.769   3.210 -0.0881  0.1001  0.1505
 5477W        W20608  15.889  15.306   3.183 -0.0140 -0.0488  0.0732
 5478W        W20609   6.518  18.003   4.844 -0.1320  0.0393  0.0618
 5479W        W20610   8.074   6.119  13.136  0.1550  0.1579 -0.1786
 5480W        W20611   0.263   6.645  12.362  0.2125  0.1616  0.0832
 5481W        W20612  14.875  17.919   2.737 -0.2461  0.1370 -0.0503
 5482W        W20613   2.000   7.397   4.433 -0.2123 -0.2903  0.0744
 5483W        W20614  13.407  10.345   2.207 -0.0869 -0.0477  0.2709
 5484W        W20615  14.385   3.904  13.312 -0.1572 -0.2284  0.3130
 5485W        W20616   9.069  13.069   1.626 -0.1608  0.1314  0.2309
 5486W        W20617   0.415   6.953   3.916  0.0710  0.0789 -0.0770
 5487W        W20618  18.114  18.218  15.778 -0.2093  0.0928  0.0282
 5488W        W20619   4.746  15.343  13.250 -0.3696  0.2279 -0.1401
 5489W        W20620   7.153  14.584  14.111 -0.4323 -0.1519  0.1547
 5490W        W20621  13.612  17.350  11.213 -0.2162  0.0873  0.1828
 5491W        W20622  14.452  14.032  11.676 -0.0119 -0.1846  0.2472
 5492W        W20623  10.360  15.830   4.685 -0.1004  0.1398 -0.3998
 5493W        W20624   0.837   3.309  13.257  0.1068 -0.0192  0.0327
 5494W        W20625   5.836   3.086  15.717  0.1367 -0.1041  0.2774
 5495W        W20626   3.711   7.278   0.403  0.0143  0.1598 -0.2132
 5496W        W20627  14.387   9.930   2.912  0.0280  0.1320  0.3015
 5497W        W20628  16.109   9.190   1.716  0.3041 -0.1133 -0.3372
 5498W        W20629   9.215  13.699   5.965  0.0112 -0.0118  0.0877
 5499W        W20630   8.782   1.716   1.437 -0.0151  0.2158  0.2215
 5500W        W20631   5.892   1.452   3.787  0.0188 -0.0974  0.0491
 5501W        W20632  17.997  10.117  14.710  0.0987 -0.2582 -0.2052
 5502W        W20633   7.866   2.214  14.962 -0.1645  0.0794  0.1097
 5503W        W20634   0.740  11.660   0.012  0.0766  0.1618 -0.0173
 5504W        W20635   8.726  11.378  13.510  0.2700 -0.0177  0.1060
 5505W        W20636  16.018  11.941   3.638  0.0360 -0.0743  0.0819
 5506W        W20637  11.230   2.573   0.711 -0.1009  0.1677  0.3959
 5507W        W20638   7.145  15.414  10.656 -0.0804  0.0331 -0.0969
 5508W        W20639   4.150  10.385  14.009 -0.1884  0.1169 -0.4143
 5509W        W20640   2.969  14.963  12.814 -0.2364  0.4124 -0.1852
 5510W        W20641  17.019  10.176  14.552  0.0307 -0.1595  0.1316
 5511W        W20642   3.419  18.198   4.811  0.0749 -0.0062  0.3785
 5512W        W20643   0.815   3.062   5.573  0.0908  0.0529  0.3701
 5513W        W20644   6.308   8.161   4.910 -0.4449 -0.1749 -0.0695
 5514W        W20645   5.795   2.285  14.625  0.0583 -0.1912 -0.1378
 5515W        W20646   0.739  12.675   0.537 -0.0205  0.1379 -0.3039
 5516W        W20647  16.156  11.219  13.058 -0.2359 -0.0177  0.0139
 5517W        W20648  18.474  11.445  11.479 -0.0782  0.3574  0.1806
 5518W        W20649  11.636   7.862   2.485 -0.0909 -0.0995  0.0259
 5519W        W20650  15.542  13.693   2.388  0.2521 -0.3727  0.0699
 5520W        W20651   1.953  12.941  12.158 -0.1109 -0.1610  0.0979
 5521W        W20652   3.171   1.869  10.477 -0.1623  0.3528  0.2614
 5522W        W20653  11.319  16.858  12.525  0.1215 -0.3735 -0.3506
 5523W        W20654  16.129   7.585   5.596 -0.0742  0.2273  0.2246
 5524W        W20655   1.361  11.276   5.586  0.2942  0.1268 -0.0789
 5525W        W20656  16.490  16.779  15.151 -0.1124 -0.0857  0.2398
 5526W        W20657  15.894  13.846   0.149  0.0030 -0.1760 -0.0785
 5527W        W20658  17.188   0.089   2.396 -0.1273  0.5243 -0.0853
 5528W        W20659   3.480   0.016   4.347  0.3378 -0.2795  0.0635
 5529W        W20660  11.743   1.791  15.759 -0.0550 -0.0924 -0.3690
 5530W        W20661   4.835  11.090  12.520  0.0421 -0.1355 -0.1316
 5531W        W20662   1.522  15.228  13.969  0.2281 -0.0551  0.0948
 5532W        W20663  11.727   2.773   4.374  0.4239  0.2442 -0.1090
 5533W        W20664   2.009  13.580   0.194  0.2277 -0.0621 -0.1307
 5534W        W20665  15.696  17.555   3.307  0.0601 -0.3185 -0.0030
 5535W        W20666  11.535  15.616   3.495  0.2004 -0.0677  0.1741
 5536W        W20667   2.607  16.111  13.656 -0.0110  0.0594 -0.1113
 5537W        W20668  10.828  16.650   0.479  0.2137 -0.2691  0.0419
 5538W        W20669  16.775  11.766   2.926  0.0111 -0.1571  0.1037
 5539W        W20670  10.668  11.057  15.181  0.2313  0.1411  0.1496
 5540W        W20671  15.432  18.082  12.986  0.1211 -0.1727 -0.2015
 5541W        W20672  16.578  11.175   4.573 -0.0354 -0.1007 -0.0007
 5542W        W20673  10.783   0.531  15.175 -0.0186  0.0549 -0.0590
 5543W        W20674   0.853   0.393  12.237  0.1417  0.1749  0.0694
 5544W        W20675   9.250  17.244  13.878  0.1020  0.3438 -0.2826
 5545W        W20676  14.949  11.132  11.078  0.1793 -0.3038 -0.1872
 5546W        W20677   6.065   5.883  15.518  0.0195  0.0765 -0.1945
 5547W        W20678  14.737   1.105   4.446 -0.0781  0.1183 -0.1482
 5548W        W20679  11.375  18.458  13.401  0.0309  0.1468 -0.5224
 5549W        W20680  13.628  18.472   4.082 -0.0750  0.2720  0.0187
 5550W        W20681   1.055   2.923   3.586 -0.1030  0.2586  0.0162
 5551W        W20682   9.227  18.339   3.807  0.3553  0.2132 -0.2078
 5552W        W20683   8.035   3.799   3.833 -0.0903 -0.0566  0.1417
 5553W        W20684   0.795   9.195   0.368 -0.0162 -0.0957 -0.1696
 5554W        W20685  16.446  12.089  12.750 -0.1125  0.2274  0.2565
 5555W        W20686   3.980   7.676  14.649  0.2021 -0.2879  0.2598
 5556W        W20687  13.993  10.472  12.227  0.2596  0.4548  0.1712
 5557W        W20688  17.522   9.284   1.730  0.1450 -0.1787 -0.0400
 5558W        W20689   2.336  16.877  12.553 -0.1487  0.2658 -0.0826
 5559W        W20690  11.834  14.796  14.229  0.0457  0.1243 -0.2285
 5560W        W20691   3.707  17.771  12.767  0.0392 -0.0817  0.0610
 5561W        W20692  10.311  18.452  11.969  0.2745  0.0319  0.1130
 5562W        W20693  14.051   9.054   2.819  0.1140  0.1563 -0.1612
 5563W        W20694  10.874   3.158  15.206  0.0487 -0.2300 -0.0295
 5564W        W20695  14.015  12.390  14.311 -0.0520 -0.1081  0.0945
 5565W        W20696  11.010  17.904  15.163  0.0620  0.0833  0.2420
 5566W        W20697  18.572  11.191  15.403 -0.2860  0.2551  0.1514
 5567W        W20698   1.984  11.450   3.952 -0.0398  0.0079  0.0790
 5568W        W20699  13.068  17.054   3.368 -0.2055 -0.0338  0.1532
 5569W        W20700  10.018   6.337   1.726  0.1303  0.1948  0.3692
 5570W        W20701  15.372   7.141   5.410  0.0427 -0.3779  0.2563
 5571W        W20702   6.132   1.131  14.402 -0.1330  0.0167 -0.1894
 5572W        W20703  15.279   0.531   1.826  0.1344  0.0232  0.0633
 5573W        W20704  14.484   5.371   1.409 -0.0085 -0.0292  0.2017
 5574W        W20705   1.167  11.132   1.946  0.2021 -0.0651  0.0284
 5575W        W20706  11.237  10.956   5.495 -0.1765 -0.2805  0.3657
 5576W        W20707  17.340  10.647  15.050 -0.2222 -0.1456  0.0035
 5577W        W20708   9.986  17.869  10.449 -0.2853 -0.0924  0.1731
 5578W        W20709  17.473   5.846   0.596 -0.1778  0.0174 -0.0192
 5579W        W20710  12.956   6.238  11.675 -0.2999  0.0432  0.4635
 5580W        W20711  15.032  15.938  15.869 -0.0075 -0.0241  0.0090
 5581W        W20712   8.236   8.261  13.972 -0.2617  0.0985  0.2439
 5582W        W20713  17.056   2.898   4.801 -0.0452 -0.1061  0.3183
 5583W        W20714   8.272  10.237  11.273  0.0780  0.0341 -0.2583
 5584W        W20715   9.168   1.465   2.907 -0.2257  0.0775  0.2585
 5585W        W20716  17.568   1.077   4.065  0.3670 -0.0928  0.2391
 5586W        W20717   9.413  13.073  11.350 -0.0608  0.0647 -0.0319
 5587W        W20718  11.890  10.508  12.766  0.2263 -0.0841 -0.0662
 5588W        W20719   8.431  14.625   3.676  0.0614  0.0847 -0.1209
 5589W        W20720   5.893  12.068  14.759 -0.0554 -0.1130  0.2491
 5590W        W20721   4.485   0.753  12.011  0.0702  0.1820  0.1190
 5591W        W20722   2.056  16.604  10.743 -0.3763  0.2260  0.1052
 5592W        W20723  11.409  11.792  10.472  0.0961  0.3097 -0.2835
 5593W        W20724  14.103  17.402   1.847  0.3125 -0.1646  0.0681
 5594W        W20725   3.585   7.901   0.413 -0.0397  0.2110  0.1054
 5595W        W20726   5.320  11.228  13.181  0.3693 -0.3369 -0.1520
 5596W        W20727   9.167  17.083   0.426 -0.4797 -0.2283 -0.1279
 5597W        W20728   9.547  15.450   3.964 -0.0915 -0.1064 -0.0500
 5598W        W20729  14.504   3.633   0.187 -0.1277 -0.2306  0.0980
 5599W        W20730   4.877  14.474   1.174  0.1630  0.0621 -0.1414
 5600W        W20731   4.244  14.266  10.562  0.3846 -0.1635  0.0174
 5601W        W20732  11.931   0.651  12.222  0.0443  0.1027 -0.0611
 5602W        W20733  11.566  16.719   1.148  0.3621 -0.0463  0.1011
 5603W        W20734   3.853  13.527   2.030  0.0630 -0.3618 -0.0969
 5604W        W20735  11.846  17.326   2.406 -0.1112 -0.0822 -0.2512
 5605W        W20736   0.534  12.063   2.660  0.0881  0.0692 -0.0187
 5606W        W20737   8.665   9.612   3.220  0.1145 -0.1305  0.1522
 5607W        W20738   8.643   7.666  14.904 -0.2381  0.0956  0.2282
 5608W        W20739   8.469   8.625   3.849  0.2068  0.1901  0.1400
 5609W        W20740   6.675   2.579   0.007 -0.2885 -0.0968  0.0440
 5610W        W20741  12.500   3.572   4.408  0.0063 -0.1504  0.3087
 5611W        W20742   9.645  11.553   4.022 -0.1345 -0.0825  0.0954
 5612W        W20743   4.958   7.517   5.542 -0.1450  0.0831  0.0244
 5613W        W20744   6.300  12.536  15.225 -0.0096 -0.0793  0.0337
 5614W        W20745  15.275   1.275   1.201 -0.2258 -0.0934  0.0947
 5615W        W20746  12.421  13.715   4.545  0.4455  0.1591 -0.0358
 5616W        W20747   4.586   4.824  10.646  0.2524 -0.0136  0.2515
 5617W        W20748   9.888   8.904   4.217 -0.1136 -0.0633 -0.0363
 5618W        W20749   0.680  12.317  10.844 -0.0424  0.5050 -0.1015
 5619W        W20750   9.009  13.234  11.708  0.1022 -0.2180  0.0458
 5620W        W20751  15.353  10.812  15.180 -0.2425  0.1062  0.1840
 5621W        W20752  13.888   3.592   2.796  0.1150  0.2006 -0.2989
 5622W        W20753   1.483   5.120   5.996 -0.1978  0.0197 -0.0913
 5623W        W20754   6.128   9.628   2.584  0.4723  0.0456  0.3632
 5624W        W20755  13.870  14.721   1.821 -0.2074  0.4468 -0.1387
 5625W        W20756  12.481  16.764  13.097  0.1655 -0.1079  0.1382
 5626W        W20757  16.005  17.140   4.732  0.1743  0.4055  0.0471
 5627W        W20758   3.461  10.359  13.560  0.2309  0.3709 -0.1037
 5628W        W20759  13.250   1.732  15.331  0.1212  0.0601 -0.1568
 5629W        W20760   8.500  12.426   0.350  0.1970  0.4579  0.2442
 5630W        W20761  10.732   0.701  13.149  0.0632 -0.0370 -0.0882
 5631W        W20762   6.129  14.086   1.423 -0.1885  0.1464 -0.1190
 5632W        W20763  12.009   8.377   4.635 -0.1060  0.1816 -0.2392
 5633W        W20764  13.110  11.390   3.239  0.2427  0.3076 -0.3735
 5634W        W20765   7.447  10.270  14.894 -0.0463  0.4083  0.0544
 5635W        W20766   0.986  15.071  12.779  0.0553 -0.2727 -0.1469
 5636W        W20767   6.893   2.358   3.926  0.0029 -0.3463 -0.0855
 5637W        W20768   2.713  16.610  13.803  0.0500  0.0354 -0.1460
 5638W        W20769  10.676   4.602  12.785  0.5683 -0.0162 -0.0355
 5639W        W20770  13.681   0.637   3.391  0.1631  0.1556 -0.2307
 5640W        W20771  10.937  17.601   2.634 -0.2407 -0.1474 -0.2658
 5641W        W20772   5.228  14.441   0.429 -0.1875  0.1999 -0.1074
 5642W        W20773   3.585  11.542  13.577 -0.0153  0.0167 -0.1693
 5643W        W20774   0.479  16.448  13.362  0.0217  0.4351  0.0080
 5644W        W20775  10.970   4.719  11.489 -0.0954 -0.0274 -0.1111
 5645W        W20776   7.354   4.537  13.553  0.2817  0.0742 -0.0580
 5646W        W20777   6.603  18.522  13.759 -0.2559  0.1529  0.1318
 5647W        W20778  14.459   1.627   3.290  0.2520  0.0272  0.0746
 5648W        W20779   8.777   3.109   1.405  0.3230  0.3464  0.4058
 5649W        W20780  13.556   2.538  12.372  0.0403  0.0478 -0.1330
 5650W        W20781  13.094   9.571  12.043 -0.1903  0.1534  0.0663
 5651W        W20782   3.229   8.386  10.481 -0.0910 -0.1453  0.0814
 5652W        W20783   2.734   9.217   0.939 -0.0841  0.2671  0.0615
 5653W        W20784   1.183  17.361   4.515 -0.0268  0.1100  0.2144
 5654W        W20785  11.863  12.375   4.452 -0.0528  0.2293 -0.1088
 5655W        W20786   6.079  13.996   3.309  0.2146 -0.0227  0.1578
 5656W        W20787  12.909  14.800   1.606  0.0506  0.3318 -0.2543
 5657W        W20788  13.768   9.832  12.882 -0.2202  0.0970  0.0329
 5658W        W20789   7.105  16.999   2.266  0.1049 -0.0517  0.1755
 5659W        W20790   4.731   4.505  12.102  0.1303 -0.0722 -0.0657
 5660W        W20791   7.554   1.908  13.429  0.1763 -0.0476  0.2980
 5661W        W20792  15.782   1.313  11.747 -0.3878  0.1211 -0.0809
 5662W        W20793  13.680   7.051   0.734 -0.0142 -0.0402 -0.2514
 5663W        W20794   2.252  11.526  15.488 -0.1213 -0.1268 -0.1133
 5664W        W20795  14.471   5.013  15.604 -0.2021 -0.1662  0.0401
 5665W        W20796   9.923   1.181   0.397  0.0039  0.3458  0.2408
 5666W        W20797  17.135  14.665   5.318  0.0411  0.3735  0.0460
 5667W        W20798  13.001   7.427   2.766 -0.2028  0.1488  0.0800
 5668W        W20799   9.971  10.236  15.244  0.1149  0.1787  0.1601
 5669W        W20800  14.991   7.705   1.853 -0.2600  0.2316 -0.5155
 5670W        W20801   3.894   8.760  11.519 -0.0683  0.0186  0.3573
 5671W        W20802   1.501   0.968   1.866 -0.1108 -0.2301 -0.0473
 5672W        W20803  17.943   4.874  11.874  0.0051 -0.2688 -0.1082
 5673W        W20804  13.179   5.345  10.596  0.2155  0.5379  0.1324
 5674W        W20805  11.422  12.682   0.394 -0.2372  0.1462 -0.0333
 5675W        W20806  16.306  13.581   0.386  0.1703  0.0857  0.0855
 5676W        W20807  11.610   4.840  12.436  0.1974  0.5165  0.3279
 5677W        W20808   3.878   9.730  13.560 -0.2358 -0.0084  0.0984
 5678W        W20809  17.376  12.015   4.911 -0.1080  0.1340  0.5200
 5679W        W20810   0.123  11.271   0.469 -0.1436  0.1091 -0.2775
 5680W        W20811  11.624  18.514   4.553  0.0570 -0.1910  0.2791
 5681W        W20812  17.569   4.144  11.661 -0.1609  0.0080 -0.0472
 5682W        W20813  16.275   6.225  13.186 -0.1971 -0.0293 -0.0255
 5683W        W20814   7.023  11.888   4.335  0.0532  0.0563  0.2519
 5684W        W20815   3.478  15.102   3.591 -0.4033 -0.1842  0.1848
 5685W        W20816   2.989   2.924   4.087  0.1735 -0.2270  0.0915
 5686W        W20817   7.515   7.330   2.698  0.0531  0.0575  0.0537
 5687W        W20818   9.057   1.599  10.867  0.0794  0.0737 -0.0062
 5688W        W20819  16.028  12.955  12.578  0.0739  0.1767 -0.1145
 5689W        W20820  10.078   8.359  13.694 -0.1086 -0.3455 -0.0171
 5690W        W20821  17.421  12.623   2.548 -0.0539  0.3858  0.3660
 5691W        W20822  10.928   8.087  10.438 -0.3228 -0.0912 -0.0781
 5692W        W20823  18.415  11.712   0.364  0.3373  0.2356 -0.1967
 5693W        W20824  11.357  18.007   1.290  0.1169 -0.3439 -0.1829
 5694W        W20825   0.710  13.286   2.182 -0.0954 -0.1901 -0.3791
 5695W        W20826   4.303   0.487   2.236 -0.3345  0.1062  0.0423
 5696W        W20827  12.658   5.650   1.807 -0.3224  0.0812 -0.0946
 5697W        W20828  12.481  12.795  10.899  0.5367  0.2265 -0.3039
 5698W        W20829   5.925   6.631   3.091  0.1820  0.2558  0.2282
 5699W        W20830   1.047   1.311  11.405  0.2520 -0.0105 -0.4942
 5700W        W20831   5.500   3.818   2.623  0.0115  0.3178  0.2373
 5701W        W20832   0.479  11.494  11.982  0.1513  0.2217  0.1781
 5702W        W20833   9.979   2.464  11.836  0.1564 -0.1468 -0.2284
 5703W        W20834  18.211  14.420  15.810  0.1743 -0.1716 -0.1165
 5704W        W20835   6.999  11.034   4.134 -0.0326 -0.3233  0.3694
 5705W        W20836  13.064   1.543   3.082 -0.0620 -0.0180  0.1384
 5706W        W20837   8.907   1.316  13.445  0.0460 -0.1438 -0.0265
 5707W        W20838  12.098   7.047   3.249  0.1753  0.3526 -0.2199
 5708W        W20839  18.279  12.407   0.192  0.0763 -0.0691 -0.3123
 5709W        W20840  16.389  11.836   3.957 -0.4146 -0.0265  0.0545
 5710W        W20841  11.359  14.968  14.031  0.1393 -0.2021 -0.0053
 5711W        W20842   9.186  16.846  14.277 -0.0532 -0.1515 -0.1573
 5712W        W20843  16.823   2.186  12.919  0.0441 -0.1594  0.1084
 5713W        W20844   0.330  12.341  12.428  0.0079  0.3641  0.0883
 5714W        W20845   1.261  17.000   0.851  0.0662  0.2077  0.0729
 5715W        W20846  16.635  17.105   2.862  0.0029  0.0413 -0.1479
 5716W        W20847   0.364  10.193   1.545  0.0144  0.0194 -0.1668
 5717W        W20848   5.143   4.500   2.186  0.4327 -0.1136  0.2292
 5718W        W20849   8.656  18.010   0.658 -0.0199 -0.0189  0.3270
 5719W        W20850  11.816   4.363  13.959 -0.4089 -0.1094 -0.3002
 5720W        W20851  18.456  13.169   0.624  0.1701  0.1333 -0.1909
 5721W        W20852   8.140  10.394  14.811 -0.4569  0.2023 -0.5332
 5722W        W20853  13.579  17.126   4.555  0.0424 -0.0344  0.1036
 5723W        W20854   7.219   4.627   5.859  0.0484  0.0324  0.1499
 5724W        W20855   3.044  12.277   1.053  0.0144  0.2742  0.0467
 5725W        W20856  16.287   1.131  11.529 -0.2455  0.3120  0.1788
 5726W        W20857  13.883  14.224   1.978 -0.0996 -0.2876 -0.0697
 5727W        W20858   8.134  11.160   4.601 -0.2945  0.1871 -0.0606
 5728W        W20859   0.221  18.317   3.577  0.1486  0.2890  0.0085
 5729W        W20860  11.573   3.259   1.947 -0.0576  0.1151 -0.2665
 5730W        W20861  12.174  16.934   0.101 -0.0230  0.2200 -0.1309
 5731W        W20862   9.954  12.719  12.781  0.2538  0.0341  0.0886
 5732W        W20863  16.088  13.478   4.176 -0.0815  0.1494 -0.3956
 5733W        W20864  17.875   5.251   2.710 -0.0507  0.2857  0.0688
 5734W        W20865   5.429  12.897  13.443  0.0063 -0.0413  0.1423
 5735W        W20866  10.066  14.703   3.125  0.0754 -0.1321 -0.1960
 5736W        W20867  14.744  12.064   6.122  0.0127  0.0288 -0.0367
 5737W        W20868   3.405   4.800  15.627 -0.1394 -0.2126 -0.0495
 5738W        W20869  11.871   7.032   5.380  0.1604  0.3251 -0.0392
 5739W        W20870  11.376   0.018   0.662  0.2096  0.0810 -0.0126
 5740W        W20871   1.069   2.612  12.662  0.0114 -0.1888  0.0565
 5741W        W20872  13.366   9.757   5.596 -0.0706  0.0632  0.2234
 5742W        W20873  16.107  12.820   1.005 -0.2253 -0.0079  0.2756
 5743W        W20874   9.309   9.464   1.542 -0.0725 -0.3838 -0.1338
 5744W        W20875   5.464  12.327   2.968 -0.1154 -0.1162  0.3935
 5745W        W20876   4.199   6.569   2.226 -0.1479 -0.2588  0.1329
 5746W        W20877  18.240  16.270   2.738  0.1156  0.3285 -0.0709
 5747W        W20878   4.679  16.860  11.805  0.0439  0.4114 -0.0119
 5748W        W20879   4.638   6.747   4.295 -0.2356  0.0010  0.2069
 5749W        W20880   4.507  14.661  11.966  0.1819 -0.1792  0.0190
 5750W        W20881  11.051   7.915   5.936 -0.0689 -0.1229  0.0028
 5751W        W20882   1.219  15.136  11.241  0.2374 -0.1964 -0.3632
 5752W        W20883   4.957   4.406  11.673  0.4853 -0.2279 -0.1963
 5753W        W20884   0.232   9.122  12.235 -0.3618  0.3044 -0.4087
 5754W        W20885   8.836   7.203  15.907 -0.0206  0.0119  0.1629
 5755W        W20886  15.475  14.839  12.725  0.2980 -0.0886  0.2139
 5756W        W20887  12.490   1.208   1.056 -0.0228  0.1989  0.3150
 5757W        W20888   6.550   1.791  12.018  0.0936  0.3126  0.1952
 5758W        W20889  17.491   8.982  14.297 -0.0962  0.1355 -0.0109
 5759W        W20890  13.090  14.300  10.333 -0.0006  0.0833 -0.0460
 5760W        W20891  10.261  12.745  11.130 -0.1377 -0.1210 -0.1562
 5761W        W20892  17.357   8.450   4.748  0.2392 -0.0206 -0.3434
 5762W        W20893   7.159   1.745   1.909  0.1156 -0.1137  0.2590
 5763W        W20894   4.404  10.170   3.914  0.1923 -0.0348 -0.0854
 5764W        W20895   9.350   7.969  14.657  0.0988  0.1924 -0.0109
 5765W        W20896   1.347  14.300  13.755 -0.0806  0.0201  0.2605
 5766W        W20897  10.405   0.422  13.429  0.3262 -0.0330  0.0650
 5767W        W20898  11.631   0.721   1.971 -0.0633 -0.1982  0.5143
 5768W        W20899   8.047   8.000  12.681 -0.0233  0.0684  0.0055
 5769W        W20900  10.180   5.883   3.663  0.2619 -0.1674  0.1388
 5770W        W20901  15.241  12.599   2.242  0.1554 -0.3180 -0.0470
 5771W        W20902  13.153   3.552  14.581  0.0043 -0.4539 -0.0705
 5772W        W20903  13.027   1.468   4.790  0.0126 -0.0877 -0.0617
 5773W        W20904   0.064  18.133  12.901 -0.4073 -0.1425 -0.0125
 5774W        W20905  14.946  16.275  15.253  0.2946 -0.0743 -0.2120
 5775W        W20906  13.301   3.489   4.587  0.3606  0.0184  0.0261
 5776W        W20907   8.855  17.829   0.097  0.0604  0.0253 -0.3525
 5777W        W20908   9.960  13.781  14.688  0.1987  0.1433  0.2922
 5778W        W20909   8.552   1.403  11.071 -0.4190  0.3586 -0.1929
 5779W        W20910   3.294  17.636  13.647 -0.1485 -0.0626  0.3578
 5780W        W20911  17.837  15.796  13.203 -0.3280  0.2906 -0.0863
 5781W        W20912  15.999  16.626  15.067 -0.0976 -0.3673  0.0914
 5782W        W20913  12.092   2.071  15.548 -0.2173  0.0864  0.1268
 5783W        W20914   8.798  18.160   1.980 -0.3680  0.0175  0.1059
 5784W        W20915  13.873  11.355   4.314 -0.0040  0.0237 -0.1547
 5785W        W20916   1.177  16.232  15.787 -0.1075  0.2760 -0.0519
 5786W        W20917   9.201   1.138   3.877  0.1558 -0.2450 -0.3203
 5787W        W20918  16.219   3.807  13.009 -0.1517 -0.1567 -0.0670
 5788W        W20919  14.176   5.650  10.141 -0.0694  0.0439  0.0823
 5789W        W20920   9.429   6.658  10.834  0.0582  0.1294  0.3261
 5790W        W20921   6.529  14.458  12.521 -0.1141  0.2882  0.1981
 5791W        W20922   0.243  15.124   0.057  0.2036  0.0551  0.1427
 5792W        W20923   7.706   5.855  15.094  0.1869  0.2146  0.1462
 5793W        W20924   6.999  11.055   3.587  0.0497 -0.0939  0.2385
 5794W        W20925   9.384  17.593   1.393  0.2640  0.0641 -0.0551
 5795W        W20926   8.135   1.716  10.765 -0.1627  0.1633 -0.1869
 5796W        W20927   7.123  12.298  11.934  0.0581 -0.0090 -0.0062
 5797W        W20928  10.913   0.313   0.824  0.2171  0.0304  0.0018
 5798W        W20929   0.762   9.101   2.779  0.0439 -0.1008 -0.3458
 5799W        W20930   1.824   4.202  15.158  0.0322 -0.0698  0.0207
 5800W        W20931   5.326  15.283  12.432  0.0473 -0.0533  0.0197
 5801W        W20932   2.675   5.977  14.904 -0.3978 -0.1169  0.0339
 5802W        W20933   5.784   5.896   2.485  0.2366  0.1337 -0.2025
 5803W        W20934  15.187   4.994   5.018  0.1353 -0.0922 -0.0570
 5804W        W20935   6.644   3.592   4.344  0.1508 -0.0340 -0.3905
 5805W        W20936   4.255   2.786  14.162  0.0711  0.1984 -0.0554
 5806W        W20937   3.630   6.312  15.687 -0.0473  0.1384  0.3571
 5807W        W20938  16.455   9.733  11.274 -0.3825  0.1382 -0.1028
 5808W        W20939   8.974   7.836   3.370 -0.0115  0.2533  0.2273
 5809W        W20940  11.090  17.236  10.686 -0.0050  0.1437 -0.0453
 5810W        W20941   9.558  10.380   0.814  0.1782 -0.2834  0.2106
 5811W        W20942  10.645  12.848   5.702 -0.3090 -0.1000  0.3111
 5812W        W20943   6.538   6.786  15.380 -0.0162  0.0175  0.4154
 5813W        W20944   5.343   8.942  15.302  0.2866  0.3068 -0.0245
 5814W        W20945   9.118  12.523   1.187  0.1692 -0.1873 -0.5524
 5815W        W20946   0.862   0.660   5.588  0.2145  0.2994 -0.1431
 5816W        W20947  15.012  13.632  14.813 -0.0253 -0.0482  0.0543
 5817W        W20948  17.142   2.384   0.545  0.0842 -0.0376  0.0632
 5818W        W20949  12.171  17.311  14.988  0.4674 -0.0442  0.1057
 5819W        W20950   8.801   4.393  12.805  0.3294  0.0401  0.0318
 5820W        W20951   9.061   1.686  11.382 -0.2907 -0.1253 -0.5002
 5821W        W20952  15.295  14.984   1.982  0.0338  0.0241 -0.2107
 5822W        W20953   0.312   2.070   4.859  0.3145  0.0256 -0.2200
 5823W        W20954  17.722  18.490   4.815  0.0524 -0.2656 -0.0103
 5824W        W20955   7.145  10.765  12.273  0.2188 -0.0693 -0.1400
 5825W        W20956   6.418  17.870  11.092  0.1471  0.0959  0.2849
 5826W        W20957   0.387  10.725  12.638  0.2390  0.0712 -0.2174
 5827W        W20958   4.373   3.714  15.514  0.1713  0.1512  0.0257
 5828W        W20959   6.754   9.108   4.361 -0.1664 -0.3058 -0.1233
 5829W        W20960  14.218  17.988   4.160  0.0247  0.0797 -0.1600
 5830W        W20961  16.790  14.195   1.056 -0.0256 -0.2984  0.0315
 5831W        W20962   2.778   7.705   1.791  0.2557  0.0523 -0.2951
 5832W        W20963  11.563   3.328   0.217 -0.2632  0.1835  0.0753
 5833W        W20964   3.324  15.413  11.554 -0.2022 -0.0021  0.1536
 5834W        W20965   6.584   4.729   0.881  0.4219 -0.1919 -0.1509
 5835W        W20966  10.228  11.181  10.495 -0.2001  0.1573  0.0421
 5836W        W20967  10.057   2.226   1.961 -0.1176 -0.0108 -0.1118
 5837W        W20968  10.719  13.811   4.545 -0.0222 -0.0323 -0.0324
 5838W        W20969   2.462  16.973   4.426  0.2408  0.5134  0.0440
 5839W        W20970  18.367   8.512  11.737  0.1850  0.1386  0.0662
 5840W        W20971  15.735   3.423  12.113 -0.1044  0.0360 -0.1390
 5841W        W20972   0.420   3.204   5.170  0.0406  0.0138 -0.1572
 5842W        W20973  10.780   5.964   0.794  0.2936  0.0271  0.0221
 5843W        W20974  12.093   5.079   3.865 -0.2132 -0.1042 -0.3691
 5844W        W20975  17.303  18.454  14.225  0.3599 -0.1999 -0.0547
 5845W        W20976  18.020   3.912  12.972 -0.1618 -0.1391 -0.2405
 5846W        W20977  15.327  14.123   0.451  0.2517 -0.0094  0.1620
 5847W        W20978   9.105  10.801   0.240  0.4451 -0.0954  0.2028
 5848W        W20979  14.963  11.378  13.358  0.0987  0.1973 -0.0697
 5849W        W20980   2.315  11.924  15.862  0.0505  0.1632 -0.0297
 5850W        W20981   2.511  11.261   9.807 -0.0411  0.2521  0.1497
 5851W        W20982  16.748   9.401  11.146 -0.2497 -0.0319  0.2658
 5852W        W20983   9.477   9.903   2.563  0.2270 -0.0953  0.1237
 5853W        W20984  11.185  17.419  14.221  0.0685  0.2745 -0.2798
 5854W        W20985   1.408  12.437   5.479  0.0121 -0.3614  0.0863
 5855W        W20986  14.092   0.212  14.638  0.0782  0.2744 -0.1767
 5856W        W20987  16.314  10.053   0.548  0.1450 -0.3548  0.0057
 5857W        W20988  11.507   1.867   0.257 -0.0298  0.1232  0.1018
 5858W        W20989  11.631   8.575  14.557  0.0337  0.0133 -0.0360
 5859W        W20990   1.200  18.003  15.677  0.1459 -0.0883  0.1046
 5860W        W20991   6.091   4.847  10.694 -0.1791  0.0170 -0.4147
 5861W        W20992  17.623   2.833   3.997  0.2463 -0.3249 -0.1180
 5862W        W20993   1.444  17.808  13.071  0.3338 -0.1794 -0.1078
 5863W        W20994   3.699   0.327   3.363 -0.2351 -0.3500 -0.1082
 5864W        W20995   9.448  14.383   0.918  0.2873  0.0608  0.0966
 5865W        W20996  13.299  18.028   1.151  0.1425  0.0543 -0.1329
 5866W        W20997   4.761   6.899  14.788  0.0484  0.1618  0.2146
 5867W        W20998   7.963  10.675   2.310  0.1010 -0.1779  0.0355
 5868W        W20999  16.656  15.340  13.321  0.3930 -0.1019  0.1789
 5869W        W21000   8.066   6.104  13.642 -0.0965 -0.1694  0.0880
 5870W        W21001  10.434   5.314  10.244  0.0827 -0.0368 -0.1419
 5871W        W21002   1.733   9.127  15.177  0.0585  0.0990 -0.0655
 5872W        W21003   7.039   7.252  12.170  0.1231 -0.0667  0.2856
 5873W        W21004  10.598  14.549  12.462 -0.2154  0.0162  0.0568
 5874W        W21005   6.031  17.684   1.293 -0.0118  0.1384 -0.1265
 5875W        W21006   5.893  13.441  14.615  0.1087  0.1168  0.0409
 5876W        W21007   3.820   1.584  12.794 -0.2496 -0.3040  0.2532
 5877W        W21008  15.098   0.354   5.162 -0.1303 -0.3948 -0.1258
 5878W        W21009   7.502   9.330  15.441 -0.0497  0.0826 -0.1832
 5879W        W21010  18.085  10.423  10.196  0.1401  0.0242  0.1300
 5880W        W21011   0.554   2.310  14.462  0.3550 -0.0904  0.0686
 5881W        W21012   0.535   2.957   4.357  0.0782  0.0489 -0.0070
 5882W        W21013   2.059   6.473   9.939 -0.1844 -0.0233 -0.1467
 5883W        W21014   9.465  16.506   2.197  0.2341 -0.3051 -0.0553
 5884W        W21015   0.964   1.539  12.166 -0.1184 -0.1811  0.0044
 5885W        W21016   3.456  16.772   4.583 -0.0961  0.0336 -0.0164
 5886W        W21017  16.469  10.395   1.988  0.1237  0.6123  0.5950
 5887W        W21018   5.793   9.232  13.337  0.2266 -0.1010 -0.3364
 5888W        W21019  14.063   8.020  13.352  0.3975 -0.3506 -0.1430
 5889W        W21020  13.153   2.592   0.565 -0.1188 -0.0707  0.2000
 5890W        W21021  18.097   4.042   4.821 -0.0933 -0.2239 -0.1193
 5891W        W21022   6.118  17.900   4.593 -0.3089 -0.4274  0.0322
 5892W        W21023   4.049   5.509  12.609 -0.3580 -0.1011  0.1709
 5893W        W21024   0.185  15.038   3.932  0.0254  0.1136  0.3179
 5894W        W21025   7.216  14.173   1.130  0.0445 -0.1168  0.1308
 5895W        W21026   9.578  10.523  10.826  0.2391  0.2369 -0.0658
 5896W        W21027   5.509   8.331  11.947 -0.1080 -0.1167 -0.1216
 5897W        W21028   0.113  13.331   2.317  0.1619 -0.0568  0.3333
 5898W        W21029  15.275  10.969  13.246  0.1636  0.0461  0.1321
 5899W        W21030  16.166  13.524  13.183  0.2989  0.0045  0.0349
 5900W        W21031   2.983   8.693  14.474  0.1287 -0.0610  0.0207
 5901W        W21032  12.571   3.210   4.103 -0.1957 -0.3684 -0.1621
 5902W        W21033   6.701  15.023   0.269  0.2539  0.0046 -0.1000
 5903W        W21034  10.495   5.584  12.520  0.0134  0.2238 -0.2944
 5904W        W21035  11.252  16.440  12.831  0.1236  0.0321 -0.0247
 5905W        W21036  18.233   0.407  14.083  0.3374  0.0975  0.1434
 5906W        W21037  11.429  13.205  10.694 -0.1952  0.0544  0.3024
 5907W        W21038  11.820  15.430   9.378 -0.0515  0.2895  0.0486
 5908W        W21039  17.656   8.172   2.871  0.0219  0.0292 -0.1959
 5909W        W21040   7.383  12.486  10.945  0.0951  0.1764  0.0725
 5910W        W21041   6.161  17.056  12.412 -0.0595  0.1562  0.0431
 5911W        W21042  18.387  13.345  11.412  0.0132  0.3483 -0.0628
 5912W        W21043   4.539   8.268   0.430 -0.1333  0.3222 -0.1941
 5913W        W21044   5.019   1.557  12.479 -0.0919  0.0927 -0.2485
 5914W        W21045   1.616   5.247  15.163  0.0752  0.2002 -0.1345
 5915W        W21046  10.869  16.671  14.336  0.0218 -0.1165  0.1304
 5916W        W21047  15.183   9.236   4.348  0.4160 -0.1216 -0.0738
 5917W        W21048  13.040   1.783   5.179  0.3163 -0.0453  0.3131
 5918W        W21049  14.590  11.302  15.672 -0.0131 -0.1122  0.1193
 5919W        W21050   0.952  15.701   1.210  0.2477 -0.0088  0.0805
 5920W        W21051   0.058  15.407  10.839  0.1010 -0.0617 -0.0292
 5921W        W21052   0.705  17.095   3.048  0.3569  0.1898 -0.1789
 5922W        W21053   6.140   4.873   0.685 -0.0388 -0.0871 -0.0964
 5923W        W21054  17.004  12.532   2.284  0.0662  0.3584 -0.0170
 5924W        W21055  12.810   0.921   1.396  0.2670  0.0672 -0.4449
 5925W        W21056   0.566  18.078   2.531 -0.2634 -0.0762  0.1889
 5926W        W21057  10.842   1.552  15.125  0.1752 -0.0158  0.2392
 5927W        W21058  15.067  11.056   3.739 -0.0954  0.0147  0.0025
 5928W        W21059  16.878   5.336   1.813  0.3984 -0.1792 -0.0356
 5929W        W21060   8.396   5.417   2.288 -0.0072  0.2466  0.3052
 5930W        W21061   1.992   5.669  12.320 -0.0871  0.1370  0.3106
 5931W        W21062   4.956   0.722   1.759 -0.2254 -0.1641 -0.2106
 5932W        W21063   7.352   6.374   1.430 -0.0385  0.1039 -0.0517
 5933W        W21064   2.515  17.781   1.305  0.0931  0.1325  0.3480
 5934W        W21065   5.632   0.051   1.792  0.0001  0.2665 -0.0676
 5935W        W21066  12.158   5.028   2.407 -0.0191 -0.1750  0.0999
 5936W        W21067   3.020  13.477   0.291  0.1785 -0.0686 -0.2601
 5937W        W21068  12.052   6.301  15.021 -0.1844  0.3185  0.2342
 5938W        W21069   4.285   4.765   4.821 -0.2278  0.2087 -0.1743
 5939W        W21070   4.331  10.326   5.398  0.1084 -0.0729  0.0424
 5940W        W21071  17.220  15.874   2.783  0.0191  0.0116 -0.0562
 5941W        W21072   6.713   5.403   1.368 -0.4686 -0.1020  0.0921
 5942W        W21073   1.879   4.448   5.121 -0.1225 -0.1031 -0.0489
 5943W        W21074  11.797  13.682  11.621  0.1848 -0.2201  0.2545
 5944W        W21075  12.100   0.732   0.567 -0.0359  0.1517  0.1656
 5945W        W21076   9.119   9.238   5.289  0.1368 -0.2927 -0.1645
 5946W        W21077  15.027  17.384   5.408 -0.2454  0.0637  0.1947
 5947W        W21078   3.604   9.905   5.301  0.1481  0.1128 -0.3493
 5948W        W21079   8.021  18.054   1.029  0.1338  0.0896  0.1949
 5949W        W21080   4.069   0.022   3.225 -0.1122 -0.0482 -0.1049
 5950W        W21081   2.235   2.449  11.698  0.0578 -0.1398  0.2283
 5951W        W21082  15.693  17.531  12.338  0.0228 -0.1795 -0.5404
 5952W        W21083  10.818   3.933   2.235 -0.0697  0.0196 -0.2279
 5953W        W21084   6.363  18.368   1.760  0.4566 -0.1099  0.1637
 5954W        W21085   9.914   6.547  13.784 -0.4304  0.0829  0.3082
 5955W        W21086  16.734   6.860   3.930  0.2384 -0.0260 -0.1535
 5956W        W21087   8.876   5.590   0.534  0.0435 -0.1161  0.0716
 5957W        W21088  16.875   3.630   1.069 -0.1519 -0.1115  0.0815
 5958W        W21089   0.402  15.999  10.682 -0.0040  0.0932 -0.0802
 5959W        W21090  11.520   6.584  12.133  0.0207 -0.1585 -0.0364
 5960W        W21091   5.858   1.553   0.687 -0.0061 -0.2592  0.2321
 5961W        W21092   5.339   0.993   0.070  0.2105 -0.1572  0.1971
 5962W        W21093  17.889   1.030  11.380 -0.4521 -0.1563  0.2678
 5963W        W21094  13.557   9.557  11.863  0.1038  0.1878  0.0907
 5964W        W21095  18.020   7.108  12.270  0.1001  0.0571 -0.0881
 5965W        W21096  15.357   9.304   1.683 -0.3467  0.1596  0.1720
 5966W        W21097  14.028  17.677  11.235 -0.0926  0.0574  0.3226
 5967W        W21098   7.914  18.054   1.510 -0.1749 -0.3923 -0.0513
 5968W        W21099  12.313   5.183  14.900 -0.0804 -0.0002  0.2147
 5969W        W21100   0.751   6.734  13.149 -0.1138 -0.0718 -0.5029
 5970W        W21101  12.122   3.341   1.757 -0.0936  0.1486  0.3229
 5971W        W21102   1.698  12.414   5.045 -0.0793 -0.0343  0.2643
 5972W        W21103  16.411  16.582   4.588  0.2381  0.1272 -0.0787
 5973W        W21104   7.411   7.977   4.929 -0.3770 -0.0628 -0.1169
 5974W        W21105   8.877  16.132  15.382 -0.0362 -0.4736 -0.0326
 5975W        W21106  16.781  17.374   1.508  0.0356  0.2218 -0.0300
 5976W        W21107   6.419   9.540  15.001 -0.1885 -0.0833  0.1556
 5977W        W21108   8.743   2.426   3.263  0.1569  0.0465 -0.0734
 5978W        W21109  14.077  11.902   2.165  0.1804 -0.2533  0.2645
 5979W        W21110   1.790  18.168   4.643  0.4486 -0.0129 -0.1954
 5980W        W21111   9.393  10.507  13.390  0.0043  0.1782 -0.2165
 5981W        W21112   3.885  13.832   1.344 -0.1702  0.2077 -0.1927
 5982W        W21113  12.412  16.709  11.853 -0.1089  0.0512 -0.2313
 5983W        W21114  14.689   2.234   4.934  0.1608  0.2312 -0.0932
 5984W        W21115   5.411   6.369   3.765 -0.0043  0.0452  0.3967
 5985W        W21116  18.315   0.766   3.544  0.1120 -0.2544  0.2569
 5986W        W21117   3.162  15.560   3.924  0.4171 -0.2932  0.2699
 5987W        W21118  13.303  16.701  14.104  0.1980  0.0300 -0.1642
 5988W        W21119   8.935  13.079  12.247 -0.2330 -0.1615  0.0359
 5989W        W21120   1.736  17.005   0.054  0.3490  0.0130 -0.0299
 5990W        W21121  13.156  15.552   1.714 -0.0845 -0.1608  0.0019
 5991W        W21122  15.031  11.044  15.433 -0.2066  0.0238  0.0884
 5992W        W21123   5.043   1.560   1.733 -0.2035 -0.1490  0.0082
 5993W        W21124   2.170   4.216  15.547  0.0710 -0.1277 -0.0824
 5994W        W21125   4.432  12.557  14.232 -0.0758  0.0194 -0.1094
 5995W        W21126   6.026   1.959  14.250  0.2887  0.2817  0.4353
 5996W        W21127   2.974   6.704   3.379 -0.1358 -0.2293  0.0723
 5997W        W21128   0.196  17.733  13.198 -0.2882 -0.2277 -0.1598
 5998W        W21129   5.951   6.283  13.498  0.1392 -0.0127 -0.2914
 5999W        W21130   0.349   4.006  13.508 -0.2971  0.3796  0.1020
 6000W        W21131   9.875  13.251  14.926 -0.2543  0.2173  0.2890
 6001W        W21132   9.675   5.256   2.354  0.1437 -0.4749 -0.0021
 6002W        W21133   4.129  12.705   3.820 -0.1154  0.0049  0.1249
 6003W        W21134  16.886   3.551  12.096 -0.0948 -0.1357 -0.0687
 6004W        W21135   4.060   7.350   2.659 -0.0126  0.1577 -0.0694
 6005W        W21136  11.248  12.104  13.859  0.1034  0.0544 -0.1187
 6006W        W21137  17.866   9.862   5.848  0.1127  0.3593  0.2320
 6007W        W21138   9.684   0.584   3.376 -0.1092  0.0656 -0.3233
 6008W        W21139   3.895   8.003  14.040  0.1893  0.1936  0.0254
 6009W        W21140  10.045   6.381   5.350  0.1323 -0.1774 -0.2576
 6010W        W21141  14.162  13.601  12.241  0.0773 -0.3953 -0.0192
 6011W        W21142  12.529   7.561   4.241  0.0840 -0.0681  0.2860
 6012W        W21143   6.858   1.895  12.362  0.1072  0.1329 -0.4126
 6013W        W21144  14.432  13.554   2.567 -0.0783 -0.1145 -0.3713
 6014W        W21145   7.026   6.026  14.295  0.1467 -0.0131  0.0504
 6015W        W21146  13.211   6.457  13.447  0.1134 -0.0878  0.0018
 6016W        W21147   6.836   6.929   3.230 -0.2413 -0.0592 -0.0121
 6017W        W21148   1.926   8.523  14.140 -0.1742 -0.0394 -0.2342
 6018W        W21149  12.327  10.023  10.317 -0.1033  0.2180  0.0464
 6019W        W21150   1.799   3.831  12.896  0.1589  0.0219  0.3335
 6020W        W21151   4.692   8.071  11.863  0.1448 -0.0586  0.0043
 6021W        W21152   4.918  17.884   0.338  0.3877 -0.1213 -0.2825
 6022W        W21153   7.137   5.975   4.150  0.0080 -0.1937 -0.2360
 6023W        W21154  14.867  16.277   4.867  0.0893 -0.3977  0.1428
 6024W        W21155   9.266   3.071  12.688 -0.0563  0.2107  0.1562
 6025W        W21156   8.888  11.029   2.751  0.0013  0.1402 -0.0237
 6026W        W21157   8.447  13.220  15.130 -0.0053 -0.3869 -0.1254
 6027W        W21158   2.844   2.217  14.472 -0.0639  0.1967 -0.0203
 6028W        W21159  16.713  10.389   5.243 -0.3587 -0.1532  0.2571
 6029W        W21160  14.402   5.429  13.659  0.2927 -0.1649  0.3027
 6030W        W21161  16.183  17.632   2.423  0.1062 -0.2597  0.0342
 6031W        W21162  12.312   0.214   2.075  0.1569  0.2058  0.3466
 6032W        W21163  13.840   3.000  14.979  0.2545  0.1056  0.1753
 6033W        W21164  17.625  16.148  11.571 -0.2982  0.1611  0.1307
 6034W        W21165   0.874  12.607  11.576 -0.2295 -0.1252 -0.0498
 6035W        W21166   8.949   8.438   4.588 -0.0632 -0.0980  0.1141
 6036W        W21167   1.542  11.561  14.169  0.4336 -0.4041 -0.0466
 6037W        W21168   2.992   0.751  14.028 -0.1339  0.0263  0.0970
 6038W        W21169  17.092   5.515   0.031  0.0200 -0.1918 -0.2378
 6039W        W21170   0.720   0.087   0.301 -0.3087  0.1958  0.2173
 6040W        W21171   2.706  15.082   3.018 -0.2895  0.1989  0.0208
 6041W        W21172  12.697  14.784  14.162 -0.1186 -0.0521 -0.0623
 6042W        W21173   7.518  17.430  12.174 -0.1362 -0.0704 -0.0217
 6043W        W21174  16.970  14.651   0.807  0.0680 -0.0610  0.1717
 6044W        W21175   1.087  16.567  11.857 -0.1307 -0.3119 -0.1464
 6045W        W21176   1.696  16.508   1.310 -0.3472 -0.0672 -0.2827
 6046W        W21177  12.076  14.687  12.429  0.2631 -0.1593 -0.1264
 6047W        W21178   0.496  16.850  12.683 -0.0423  0.0484 -0.0725
 6048W        W21179   3.949   6.985  12.234 -0.0758  0.0947  0.1233
 6049W        W21180   6.714  10.737  14.617 -0.1111  0.0645 -0.4097
 6050W        W21181   0.834   6.328   5.501  0.0282  0.0241 -0.0245
 6051W        W21182   4.557  11.599  13.846 -0.1331  0.0940 -0.2834
 6052W        W21183   4.549   5.984   2.123 -0.0634 -0.3794  0.2869
 6053W        W21184   9.535  16.686  13.947 -0.1212 -0.1508  0.2090
 6054W        W21185  14.498   3.028  13.570 -0.1160 -0.0448  0.5324
 6055W        W21186   9.508  13.398   3.867  0.1597  0.1982 -0.2618
 6056W        W21187   9.913   3.613  15.435 -0.2840  0.0918 -0.2373
 6057W        W21188   7.947   8.157  14.859  0.2199 -0.4005 -0.1308
 6058W        W21189  16.400  11.913   2.525  0.1035 -0.1164 -0.2103
 6059W        W21190   4.192  14.922  13.867  0.3523  0.0535  0.0710
 6060W        W21191  11.747   9.872   5.053 -0.4503 -0.1238  0.3522
 6061W        W21192   5.387   6.400  12.160  0.0474  0.0721 -0.0520
 6062W        W21193   5.812   1.917  14.913  0.1390  0.2881  0.0657
 6063W        W21194   0.258  16.913  10.584 -0.0320 -0.3346  0.0295
 6064W        W21195   1.720  13.280  15.235  0.0646 -0.1568  0.0972
 6065W        W21196   5.163  17.104  11.532 -0.1408  0.1021  0.0298
 6066W        W21197  12.296  12.917  14.025 -0.0284  0.5617  0.0709
 6067W        W21198   4.239  16.643  11.181 -0.1945  0.2442  0.0417
 6068W        W21199  11.404   6.321  13.058 -0.1584 -0.0695 -0.2321
 6069W        W21200  10.355  17.147  14.519  0.0591 -0.1940 -0.1998
 6070W        W21201  14.851  18.335  13.181 -0.2635 -0.2247  0.1888
 6071W        W21202  11.511   5.118   5.764  0.2530  0.2656  0.0669
 6072W        W21203  13.781  17.126  15.093  0.1375  0.1414 -0.2219
 6073W        W21204   6.582   7.500   1.005  0.2540  0.1739  0.0035
 6074W        W21205   1.876   1.025   2.777 -0.0809  0.1045 -0.2745
 6075W        W21206   0.830   6.890  14.521 -0.2716  0.0913 -0.2018
 6076W        W21207   7.229   2.646   0.124 -0.0705  0.0382 -0.3451
 6077W        W21208   9.554  12.047   2.536  0.2892 -0.0317  0.0452
 6078W        W21209   5.026  18.494   1.116  0.1313  0.1329  0.0906
 6079W        W21210  15.790   8.473  12.471 -0.0701  0.2532 -0.0969
 6080W        W21211  10.797  17.092  14.113  0.3137  0.2048  0.2838
 6081W        W21212   8.016   8.338  15.348  0.1684  0.2870  0.1773
 6082W        W21213   4.771   5.076  14.573 -0.0753 -0.3927  0.0086
 6083W        W21214   1.897   7.535   5.031  0.0341  0.0982 -0.0266
 6084W        W21215   0.614  15.316   0.319  0.1183  0.1436  0.3298
 6085W        W21216   8.882  12.882   3.176  0.0230  0.5045 -0.1075
 6086W        W21217   2.852   5.664   4.657  0.1628 -0.0396  0.0240
 6087W        W21218   2.642  10.878  13.713  0.2259  0.2399 -0.2071
 6088W        W21219   8.299   6.282  14.905 -0.2982  0.3013 -0.2434
 6089W        W21220   5.373   9.237   4.753 -0.2351  0.3823  0.2106
 6090W        W21221  11.083   7.667  14.390 -0.2582 -0.3254  0.0862
 6091W        W21222  17.823  12.510   1.223 -0.0395  0.2390 -0.3979
 6092W        W21223  16.566   0.534   4.074  0.2792  0.5273  0.3608
 6093W        W21224   7.156   2.494  12.815  0.0281  0.2253  0.1010
 6094W        W21225   5.563  13.654   4.339  0.0818 -0.4057  0.1133
 6095W        W21226   1.159   5.556   6.250 -0.1636 -0.0382  0.1284
 6096W        W21227  15.146   0.747  10.545 -0.1111  0.1971  0.0268
 6097W        W21228   8.720   1.146   4.774  0.3581  0.0616 -0.0619
 6098W        W21229   7.385   8.887  13.486  0.1068  0.1769  0.3313
 6099W        W21230   3.435   0.168  11.295 -0.1311  0.0640  0.0775
 6100W        W21231  10.050   9.269  14.861 -0.3154 -0.0076  0.1153
 6101W        W21232  14.805  15.852  12.014  0.0283  0.0173  0.1908
 6102W        W21233  10.211   7.254   2.159 -0.1894 -0.0439  0.3519
 6103W        W21234  13.801  10.966   3.967  0.0956  0.3724 -0.0074
 6104W        W21235  10.056   2.313  11.055 -0.2287 -0.1943  0.1043
 6105W        W21236  16.260  16.099   3.427 -0.1172  0.1403 -0.1641
 6106W        W21237   7.351   6.058   0.210 -0.2628  0.5253 -0.1744
 6107W        W21238   8.655   0.871  13.267 -0.3809  0.1857  0.0223
 6108W        W21239   9.492  16.131  12.698 -0.1386 -0.0843  0.1204
 6109W        W21240   1.059  10.389  14.120  0.1495  0.0647 -0.0770
 6110W        W21241   9.111  10.931  11.164  0.1557  0.0233  0.0926
 6111W        W21242  18.542   7.866  11.370 -0.3377  0.0948 -0.1975
 6112W        W21243   0.902   6.612  14.923  0.2365  0.1904 -0.1093
 6113W        W21244   7.051   7.766  13.546  0.0162  0.0270 -0.2669
 6114W        W21245   0.226  18.226  11.235 -0.2622 -0.3392  0.1394
 6115W        W21246   5.074   3.606  14.176  0.2087 -0.2421  0.1125
 6116W        W21247   9.105   0.939  11.949 -0.3494 -0.6123  0.2808
 6117W        W21248   8.382   0.854  13.743  0.2398 -0.1928 -0.0728
 6118W        W21249  15.423   6.805   6.419 -0.0521 -0.0979 -0.0125
 6119W        W21250   8.326  16.236   9.810  0.1008  0.0018  0.0727
 6120W        W21251   3.991   1.586   3.236  0.2144 -0.2985 -0.0155
 6121W        W21252   0.299  12.016   3.188 -0.1758  0.2097 -0.1086
 6122W        W21253   2.119  16.289   1.622 -0.2237 -0.0543 -0.1840
 6123W        W21254   8.147   3.207  13.121 -0.1088  0.0983 -0.3539
 6124W        W21255   5.383  15.311  14.605  0.4029 -0.0266  0.1227
 6125W        W21256  12.169   1.610   4.826 -0.4812 -0.3884  0.1332
 6126W        W21257   0.869  15.680   2.667 -0.0600  0.1838  0.1212
 6127W        W21258  11.316  18.512   5.618  0.0602  0.2054 -0.1136
 6128W        W21259   1.921   1.727  12.247 -0.0708  0.0023 -0.0897
 6129W        W21260   6.479   4.867  13.865 -0.0756 -0.3725 -0.1740
 6130W        W21261  11.300   0.975  10.995  0.1869  0.1211  0.0826
 6131W        W21262   0.315  15.641   1.076 -0.1621 -0.1528 -0.1027
 6132W        W21263   2.211   3.000   1.455 -0.0421 -0.0325  0.0885
 6133W        W21264   5.175  14.598   2.507 -0.1853 -0.2952  0.0021
 6134W        W21265  13.108   7.722   0.765 -0.1148  0.0297  0.1205
 6135W        W21266  11.327  13.078   9.890 -0.2852  0.1617 -0.2938
 6136W        W21267   5.090   2.386   2.569  0.0246 -0.0529  0.0547
 6137W        W21268   7.563  16.619  10.891  0.0513 -0.0649  0.1473
 6138W        W21269   6.720  12.647  10.471  0.2330  0.1203 -0.1674
 6139W        W21270  14.461   4.858  13.176  0.0407  0.3080 -0.3037
 6140W        W21271   3.279  14.911   1.162 -0.2868 -0.0127  0.0802
 6141W        W21272   3.959  18.358  12.038 -0.3523  0.0218 -0.0569
 6142W        W21273  13.714   0.256   1.574 -0.1517  0.0096 -0.1874
 6143W        W21274   1.490   7.485   0.590  0.1143  0.0884 -0.0784
 6144W        W21275  15.002   5.982  15.694  0.0169 -0.1381  0.1908
 6145W        W21276   0.127  12.095   1.128  0.3089  0.1708 -0.1549
 6146W        W21277  14.241  18.503   1.781  0.5508 -0.1211  0.0048
 6147W        W21278   1.854  15.606   0.700  0.0760  0.0264  0.0208
 6148W        W21279   2.617   5.513   4.176 -0.2164  0.2199 -0.0452
 6149W        W21280   7.226   8.768   9.918 -0.2379 -0.0400  0.0994
 6150W        W21281   0.857  13.573   2.897  0.2629  0.1307  0.1488
 6151W        W21282   8.858   1.774   0.705 -0.0414 -0.1210  0.1388
 6152W        W21283   2.962   9.501   3.579  0.3800 -0.2712  0.0039
 6153W        W21284  10.064  16.418   3.459  0.2153  0.0173 -0.1364
 6154W        W21285   0.933   5.612  11.890 -0.1841  0.0145  0.2458
 6155W        W21286  11.916   2.003   2.935 -0.0075  0.0427  0.1616
 6156W        W21287  17.320  17.005  12.447  0.1300 -0.4648 -0.2432
 6157W        W21288  10.708   7.859   2.725 -0.1157  0.0998 -0.0261
 6158W        W21289   7.264  11.829  12.118 -0.1754  0.0495 -0.2081
 6159W        W21290   9.476   1.733   5.131  0.1910  0.3040 -0.0313
 6160W        W21291   6.482  11.749   4.514  0.0122  0.3529  0.0140
 6161W        W21292   9.932   1.397  14.062 -0.2531  0.1440 -0.4015
 6162W        W21293  10.253   3.870  11.634  0.1197  0.3650  0.3595
 6163W        W21294  17.164   3.127  13.891 -0.1598 -0.3913  0.2159
 6164W        W21295   2.079  14.742  12.654  0.3605 -0.1626 -0.2201
 6165W        W21296  10.095   3.682   0.752  0.1587 -0.0814 -0.1790
 6166W        W21297  18.068   7.233  15.609  0.0560 -0.1352  0.1944
 6167W        W21298   4.532   1.354   3.685 -0.0168 -0.0854 -0.1836
 6168W        W21299  17.551   7.026   0.277  0.0784  0.0919 -0.0010
 6169W        W21300   3.194   3.479   3.190  0.0079 -0.0758 -0.4188
 6170W        W21301   8.709   2.475  15.145 -0.0923 -0.0515 -0.1777
 6171W        W21302  18.565  16.674  15.628 -0.0748  0.0619  0.3301
 6172W        W21303   3.651   7.264  14.959  0.2575  0.1769  0.1361
 6173W        W21304   2.170  17.821   2.785 -0.3733 -0.1278  0.1071
 6174W        W21305   1.056   6.565   1.843  0.0603 -0.0865 -0.0153
 6175W        W21306  15.168   8.027  14.188 -0.1429 -0.3078 -0.0861
 6176W        W21307   2.189  11.049   3.678  0.3137 -0.3694 -0.0332
 6177W        W21308   2.068   7.399  12.385  0.0495  0.1968  0.2944
 6178W        W21309   6.332   4.617   2.325 -0.1531  0.1133 -0.0503
 6179W        W21310   0.579  10.019   0.722 -0.4790 -0.4356 -0.0723
 6180W        W21311  15.045   7.536   4.166 -0.1882 -0.3912  0.1114
 6181W        W21312   3.381   1.474  13.916 -0.0856  0.1204  0.1277
 6182W        W21313   5.017   4.150  15.607 -0.3048 -0.0080  0.1021
 6183W        W21314   0.727   6.920  11.764 -0.0939 -0.0424 -0.0377
 6184W        W21315  13.393   6.139  15.560  0.2903  0.2399  0.0136
 6185W        W21316   5.195   7.435  14.183 -0.1019 -0.1025  0.1666
 6186W        W21317   3.096  16.598   0.856 -0.3820 -0.1186  0.2013
 6187W        W21318   8.609  12.907   0.099 -0.0010  0.2159  0.2105
 6188W        W21319  17.835   3.426  13.096 -0.2213 -0.4830  0.4187
 6189W        W21320  15.985  12.410   5.706 -0.4255  0.2834 -0.0177
 6190W        W21321   5.632   7.408  15.406 -0.1919  0.0600  0.0649
 6191W        W21322   7.768   5.904   1.460 -0.0676  0.1295 -0.0661
 6192W        W21323  10.140   3.507  11.951 -0.1132 -0.2998  0.2415
 6193W        W21324   6.143  15.066  11.905 -0.1326  0.1665  0.0287
 6194W        W21325   3.135   9.005   2.197  0.1279 -0.1051 -0.1533
 6195W        W21326  12.532   9.565   4.749  0.2181  0.1015  0.3343
 6196W        W21327   1.962  15.188   4.147 -0.2283 -0.2012  0.0879
 6197W        W21328   8.452   4.121  10.941  0.3324  0.1823 -0.1123
 6198W        W21329  10.784  14.828   4.740  0.0417  0.1042 -0.2829
 6199W        W21330   0.336  15.957   4.633 -0.0373 -0.1819 -0.0652
 6200W        W21331   5.503  13.109   3.667 -0.2294  0.2192  0.5804
 6201W        W21332  11.724   2.787   1.881  0.1719 -0.2237  0.2453
 6202W        W21333  14.373   5.110  11.907  0.0399 -0.1093 -0.4985
 6203W        W21334   9.952   5.497   3.951 -0.0197 -0.2762  0.2305
 6204W        W21335  16.867   3.400  15.078 -0.1654  0.2023 -0.2634
 6205W        W21336   7.474   0.036   4.566  0.1114  0.1179  0.2475
 6206W        W21337  18.290  11.778   3.101  0.1505 -0.1183 -0.5425
 6207W        W21338   8.163  12.677   0.128 -0.0786 -0.0562  0.2592
 6208W        W21339   8.647   6.463   3.815  0.0335  0.0246 -0.1126
 6209W        W21340   3.004   2.541   3.262  0.0537 -0.2821  0.0503
 6210W        W21341   6.593  13.110   5.343 -0.0110  0.1273 -0.1534
 6211W        W21342  12.555   3.345   3.387  0.3879 -0.0181  0.1867
 6212W        W21343  13.492   2.721  15.301 -0.0074  0.0579  0.0620
 6213W        W21344   6.986  12.290   1.913  0.0144  0.3799 -0.1374
 6214W        W21345   0.599   5.183   5.020 -0.3050 -0.1230  0.2788
 6215W        W21346   8.972   5.914   4.396  0.4537 -0.0533  0.1936
 6216W        W21347  14.603  12.712  11.955  0.0297  0.0058 -0.1466
 6217W        W21348   0.211   2.337   0.734 -0.4838  0.1225  0.0473
 6218W        W21349  12.585   7.783   2.733 -0.0565 -0.1260  0.1372
 6219W        W21350  10.021   8.197   2.172 -0.0783  0.1439 -0.2409
 6220W        W21351   0.735  13.734   4.194  0.0364  0.3737 -0.1530
 6221W        W21352   7.453   6.027  12.684  0.0575 -0.0984 -0.0938
 6222W        W21353   7.895  11.728   3.979  0.1657  0.3832  0.0417
 6223W        W21354   7.747   4.326  11.347  0.1284 -0.0101 -0.2203
 6224W        W21355  15.476   7.580  14.988  0.0510 -0.0295  0.0416
 6225W        W21356   3.221  16.983   3.120 -0.0962  0.1103  0.1599
 6226W        W21357   3.368   1.081  14.203 -0.2676  0.0412  0.1272
 6227W        W21358  15.093   4.692   1.817  0.1936 -0.2608 -0.2316
 6228W        W21359  12.761   8.467   5.507 -0.2827 -0.2950 -0.0986
 6229W        W21360  17.441  11.796   2.702 -0.0387  0.1076 -0.0770
 6230W        W21361   2.692   9.638  14.359 -0.0588 -0.3376  0.5108
 6231W        W21362   8.393   1.289  14.484 -0.2010  0.3390  0.1830
 6232W        W21363   6.840   4.959   1.666 -0.0820  0.2410  0.0550
 6233W        W21364   5.220   6.945  11.890 -0.1390 -0.3327  0.0112
 6234W        W21365   4.388   0.081  11.195  0.1887 -0.1507 -0.3897
 6235W        W21366  12.588   1.211  13.715  0.2091 -0.3647  0.1702
 6236W        W21367   0.114  16.276   4.318 -0.0899 -0.0082  0.2709
 6237W        W21368   9.411   2.156  11.519 -0.2629 -0.0587  0.1852
 6238W        W21369  12.033  11.740   9.808  0.0648 -0.0194 -0.2668
 6239W        W21370   2.449  12.369   0.781  0.0531 -0.1057  0.1399
 6240W        W21371  18.051  11.796   2.577  0.0835 -0.2308 -0.2028
 6241W        W21372  10.326   1.945  15.658 -0.1468 -0.1370  0.1337
 6242W        W21373  16.644  11.324  12.129  0.0230 -0.4540 -0.1010
 6243W        W21374  15.043   4.274  12.051 -0.2467 -0.2507  0.1332
 6244W        W21375  13.340   8.873  15.395  0.2699 -0.0908  0.0663
 6245W        W21376   7.371   9.215   4.908  0.1605 -0.0991  0.3406
 6246W        W21377   7.962   2.851  13.529 -0.0040 -0.0974 -0.0071
 6247W        W21378   8.067  16.334  11.125 -0.1104 -0.2367 -0.0221
 6248W        W21379   7.587   0.243  13.908 -0.4043  0.0785 -0.3727
 6249W        W21380   5.978   0.599  11.266 -0.1379 -0.1273  0.3019
 6250W        W21381   1.227   8.963   4.451  0.2597  0.0832  0.2215
 6251W        W21382  17.622  10.548   1.108  0.0640 -0.1763 -0.1140
 6252W        W21383   7.006  15.021   9.563 -0.1050 -0.0215 -0.0428
 6253W        W21384   0.599   2.872   3.767  0.0420 -0.0115  0.0771
 6254W        W21385   4.620   8.656   3.222  0.1541 -0.0757  0.1269
 6255W        W21386   5.075   6.777   3.816  0.3297  0.1981 -0.0205
 6256W        W21387   8.624  14.816   1.134  0.0729  0.0049  0.1394
 6257W        W21388  12.085  16.349   2.348 -0.1511  0.2611  0.0137
 6258W        W21389   7.985  18.234  11.920  0.0031  0.1228 -0.2334
 6259W        W21390   8.232  16.523   0.364  0.3777  0.4470  0.1051
 6260W        W21391   2.101  13.921  15.016  0.1280 -0.1299  0.0256
 6261W        W21392   8.812  14.571  11.586 -0.2836  0.2054 -0.2687
 6262W        W21393  14.397  17.245   2.346  0.0547  0.1186  0.1211
 6263W        W21394   9.744   0.229  15.123  0.1620  0.0591 -0.2639
 6264W        W21395   0.500  12.537  11.993 -0.0330 -0.1585 -0.2966
 6265W        W21396  12.280   1.408   1.535  0.0727 -0.1334  0.2573
 6266W        W21397   5.829   1.203  11.969  0.1917 -0.1357 -0.3188
 6267W        W21398  18.435   8.456   5.040 -0.5065 -0.1573 -0.2718
 6268W        W21399   5.214   5.619   2.139  0.0033  0.0766 -0.0163
 6269W        W21400   5.996   4.205  15.195  0.0074 -0.1379 -0.1274
 6270W        W21401  14.454   3.659   1.446  0.0435 -0.0302 -0.0980
 6271W        W21402   9.359   7.849   1.641  0.1148 -0.0946  0.2364
 6272W        W21403   6.021   6.786  15.868  0.2058 -0.0061  0.1404
 6273W        W21404   0.409  18.042   3.125  0.0028 -0.1011  0.1417
 6274W        W21405   7.697   9.146   1.122  0.3399  0.0810 -0.2294
 6275W        W21406   6.705   5.908   1.950  0.1120 -0.1584  0.0915
 6276W        W21407  14.519   8.381  15.591  0.0933  0.0036  0.1179
 6277W        W21408   1.929   4.538   3.940 -0.2089  0.1724 -0.2012
 6278W        W21409   2.004   2.102  13.293  0.1557  0.0211 -0.1154
 6279W        W21410   8.833  14.211   3.816 -0.0264  0.1492  0.1455
 6280W        W21411   9.736   9.618  11.125 -0.0547  0.1422 -0.3124
 6281W        W21412   2.236  11.268   6.002 -0.0989 -0.2751  0.1931
 6282W        W21413  14.577   3.496  13.675  0.0504 -0.0240 -0.1212
 6283W        W21414  17.877   1.104   5.668 -0.2834 -0.0327  0.1069
 6284W        W21415   7.954  11.957  14.792 -0.0719 -0.0288  0.0331
 6285W        W21416   9.336   6.074  11.285 -0.1278 -0.0593  0.2533
 6286W        W21417  14.645  13.979   2.384  0.3031  0.0984  0.1904
 6287W        W21418  17.415  15.462   3.010  0.0213 -0.2062  0.0602
 6288W        W21419   2.242  14.322   2.788  0.1538  0.0170 -0.0825
 6289W        W21420   9.891   3.466  13.435  0.1916  0.0270 -0.0980
 6290W        W21421   4.104  14.717  12.259  0.3615  0.1641  0.1966
 6291W        W21422  16.163  13.142   4.541  0.1600  0.1494  0.3685
 6292W        W21423  16.027   4.958   4.445  0.1658 -0.0179 -0.0204
 6293W        W21424  16.032   0.796  14.850  0.0822 -0.1906  0.2601
 6294W        W21425   9.602   2.894   3.227 -0.5526 -0.0240 -0.0008
 6295W        W21426  10.424   0.244   0.813 -0.0085 -0.0989  0.2658
 6296W        W21427  14.015   6.813   5.478  0.0650  0.0515  0.1568
 6297W        W21428  17.037   4.978  12.973 -0.1237 -0.2111 -0.1716
 6298W        W21429  16.276   7.067   4.957  0.3531 -0.2339 -0.1818
 6299W        W21430   2.078   9.354   3.948 -0.1553 -0.1273 -0.2484
 6300W        W21431  11.897  16.586   4.810  0.0687  0.2515  0.3262
 6301W        W21432  17.393  10.765  12.025  0.1121  0.3482  0.0843
 6302W        W21433  12.144   4.557  11.626  0.3168  0.1218 -0.0854
 6303W        W21434   8.037  14.910  11.816  0.1163 -0.2023  0.0365
 6304W        W21435   9.907   8.228   0.439  0.1159  0.1949 -0.1076
 6305W        W21436  17.675   1.955   2.356  0.3036  0.1228  0.0556
 6306W        W21437  12.654   8.684  12.482  0.0368  0.1024 -0.1200
 6307W        W21438   3.779   4.877   0.711  0.1584  0.1872 -0.1544
 6308W        W21439   0.409  14.844   0.416  0.0320 -0.2479  0.0323
 6309W        W21440  18.571   5.455   2.224  0.2160  0.0473 -0.2772
 6310W        W21441  10.547  12.538  10.583 -0.0682 -0.1079 -0.1273
 6311W        W21442   2.161  17.870   3.340  0.0153 -0.2886 -0.0380
 6312W        W21443  16.812  16.524   9.232 -0.0414  0.3435  0.2128
 6313W        W21444  11.938  15.656   2.223 -0.0495 -0.0060  0.3199
 6314W        W21445   0.692   6.981  12.284  0.0791  0.0401  0.2165
 6315W        W21446  15.907   5.094   3.965  0.1022  0.0961 -0.1684
 6316W        W21447  17.100   1.044  14.868 -0.1394  0.0039 -0.2204
 6317W        W21448   3.677   1.702  10.409 -0.0299 -0.0606 -0.0619
 6318W        W21449   0.646   6.822   5.576  0.3041 -0.1997 -0.2539
 6319W        W21450  18.464   7.299   0.111  0.0063 -0.2980 -0.1144
 6320W        W21451   0.449  13.701   3.776 -0.3196  0.0998 -0.3016
 6321W        W21452  17.507   1.339   5.870 -0.1781 -0.2525  0.0266
 6322W        W21453   1.135  14.780  15.818  0.2410 -0.0192  0.1778
 6323W        W21454   2.061  10.403   2.775  0.0418 -0.3279 -0.1953
 6324W        W21455   0.040   2.727   1.125 -0.1129 -0.1201  0.1394
 6325W        W21456  10.996   6.138  13.788 -0.2851  0.1866 -0.0960
 6326W        W21457   2.411  12.704  11.302  0.3191  0.0541 -0.3091
 6327W        W21458  13.863   1.640   2.360 -0.2888 -0.0085  0.1742
 6328W        W21459  11.861   1.585  13.322 -0.0869 -0.1346  0.2212
 6329W        W21460   2.329   7.253  13.993 -0.0031  0.4025  0.0600
 6330W        W21461  12.498  14.797   3.090  0.0873 -0.2175  0.2630
 6331W        W21462  11.003   4.253   0.413  0.2263  0.0026 -0.0769
 6332W        W21463  18.057   1.548  11.053 -0.2305  0.1627  0.1673
 6333W        W21464   2.686   6.922   3.933  0.0825  0.0031 -0.1285
 6334W        W21465  13.622  11.028   2.645  0.0250  0.1729 -0.0497
 6335W        W21466   0.013  11.913  13.149 -0.3205 -0.2343  0.0989
 6336W        W21467  15.074   8.870  10.948 -0.0754 -0.1053 -0.1786
 6337W        W21468   4.162   0.750  13.082 -0.2184  0.3338  0.0699
 6338W        W21469  14.897   5.615   1.241 -0.0583 -0.0848  0.1557
 6339W        W21470  17.741   3.464   0.098 -0.3128  0.1531 -0.4378
 6340W        W21471   3.331  18.075  12.571  0.0540 -0.0018  0.1613
 6341W        W21472  11.183   8.281  13.525 -0.0149  0.0635 -0.1391
 6342W        W21473   0.587  17.501   5.383 -0.0689  0.3443  0.4946
 6343W        W21474   8.511   2.027  13.732  0.0738 -0.0335  0.0713
 6344W        W21475   8.304  17.256   9.621 -0.0704  0.2439  0.3117
 6345W        W21476   1.155   8.632   3.593 -0.0475 -0.0734 -0.0411
 6346W        W21477   9.190  16.551  12.126 -0.0895 -0.0781  0.2772
 6347W        W21478   9.136   2.991   2.620 -0.1079 -0.0401 -0.1351
 6348W        W21479   3.450  17.789   0.910  0.1160  0.1927 -0.0469
 6349W        W21480  16.022  11.504  13.512 -0.1878 -0.0534  0.2556
 6350W        W21481   5.425   6.087  14.448 -0.1407 -0.0319 -0.3295
 6351W        W21482  15.356  13.429  10.921 -0.2497  0.1533 -0.1304
 6352W        W21483   5.687   5.727   3.766 -0.1838  0.2921  0.2084
 6353W        W21484  11.421  17.133  11.670  0.1513  0.2468 -0.2294
 6354W        W21485  15.038  15.093  10.970  0.5507 -0.2968 -0.2271
 6355W        W21486  13.924  16.932   3.047 -0.3113  0.0609  0.0373
 6356W        W21487  10.371   4.308  14.972 -0.4454  0.3359 -0.0368
 6357W        W21488   4.252  11.252  15.668  0.1077  0.0336 -0.0801
 6358W        W21489  17.517   1.754  10.863  0.2274 -0.3063 -0.2990
 6359W        W21490   4.545  14.911   2.100 -0.0018 -0.2192 -0.0099
 6360W        W21491   9.876  10.100  11.799 -0.3783  0.1288  0.2571
 6361W        W21492  16.418   9.929  15.748  0.0554 -0.0358  0.0930
 6362W        W21493  10.058  12.506   3.944 -0.1381 -0.0943  0.0858
 6363W        W21494   3.722   2.788   3.416 -0.0616 -0.2487 -0.2179
 6364W        W21495   5.431  18.087   1.823 -0.1735 -0.3530 -0.3392
 6365W        W21496  15.333   1.150   5.872 -0.0304 -0.0830  0.5748
 6366W        W21497   3.575   5.703  11.193 -0.0667  0.0713  0.0915
 6367W        W21498  10.907  15.927   4.630  0.1503  0.1642 -0.4057
 6368W        W21499  12.789   9.481   2.573  0.0153 -0.0393 -0.0281
 6369W        W21500  14.939   0.953   2.283 -0.4879  0.0660 -0.0322
 6370W        W21501   2.086   2.266   1.233 -0.1645  0.2163  0.1657
 6371W        W21502  11.432   5.152  11.579  0.1106  0.0778  0.0357
 6372W        W21503   0.798  17.497  14.570 -0.0523  0.3322 -0.2762
 6373W        W21504   4.037   1.471  12.313  0.0901  0.2437  0.0245
 6374W        W21505   9.122  17.194  14.652  0.3917  0.2554  0.0725
 6375W        W21506   3.949   7.612  15.650 -0.0658  0.0787 -0.0708
 6376W        W21507  17.051  14.577   1.790 -0.0726  0.0278 -0.0856
 6377W        W21508   7.163   0.620   3.297  0.1007 -0.0463 -0.1283
 6378W        W21509  10.154  16.338   3.963 -0.0809  0.1063  0.1677
 6379W        W21510   9.201   7.454  12.916 -0.1202  0.1683 -0.0649
 6380W        W21511   2.360   9.622   3.541  0.1101 -0.1840  0.2074
 6381W        W21512  15.778  16.311   6.196  0.1974  0.1646  0.1491
 6382W        W21513  10.012  17.914   4.016  0.0042 -0.1580  0.0813
 6383W        W21514  17.285  12.176   1.829  0.2484 -0.3000 -0.1385
 6384W        W21515   3.550   0.936   1.722 -0.1491 -0.0051 -0.0035
 6385W        W21516   4.312  12.857   2.677  0.0144 -0.0170 -0.3028
 6386W        W21517  12.921   6.638  14.123 -0.3824 -0.1294  0.0422
 6387W        W21518  18.559  12.414  11.731 -0.0838 -0.0861 -0.1454
 6388W        W21519   5.315   4.385  12.900  0.0525 -0.0129  0.1273
 6389W        W21520   2.495   0.862   2.464 -0.0289  0.0592 -0.2543
 6390W        W21521  15.878   8.091   1.754 -0.2020  0.1130  0.2700
 6391W        W21522  17.935   2.924  11.358 -0.0688 -0.0855 -0.2932
 6392W        W21523  16.643   2.123  14.556 -0.0818  0.1932 -0.0201
 6393W        W21524   7.172   7.277  13.483  0.3048 -0.0100  0.0440
 6394W        W21525   3.416  11.996   2.956  0.1328  0.0842 -0.0913
 6395W        W21526   0.672   9.532   4.449  0.3071 -0.0422 -0.0379
 6396W        W21527  18.279   3.571   0.110 -0.2071 -0.1870  0.0743
 6397W        W21528  12.607  17.116  11.096 -0.1696 -0.2603 -0.1113
 6398W        W21529   7.539   1.249  15.240 -0.0553  0.0579  0.0301
 6399W        W21530   4.409  15.356  11.546 -0.1919  0.0988 -0.1434
 6400W        W21531   9.986  13.421   2.547  0.1865 -0.2264 -0.0004
 6401W        W21532  14.045   2.852  12.641 -0.0313  0.2704 -0.0307
 6402W        W21533   1.843  17.722  12.776  0.1539 -0.0020  0.3010
 6403W        W21534  16.546   1.618   3.044  0.0490 -0.1522  0.1175
 6404W        W21535  16.031  16.636  12.222  0.0628 -0.1924 -0.0693
 6405W        W21536  10.812   9.842  15.238 -0.2086  0.4289 -0.1192
 6406W        W21537   3.832  18.276  15.306  0.1876  0.0508  0.1581
 6407W        W21538   8.443  13.774  11.685  0.1817 -0.0851  0.1894
 6408W        W21539   2.237   1.087   2.131  0.2906 -0.1197  0.0923
 6409W        W21540   9.415   4.176  11.590  0.4085  0.1749 -0.1538
 6410W        W21541  12.301  16.590   1.095  0.0029  0.0436 -0.1967
 6411W        W21542  17.935  15.067   1.094 -0.0631  0.3291  0.0579
 6412W        W21543   2.806   3.498  14.891 -0.2556  0.1586 -0.0536
 6413W        W21544  12.893   4.035   1.755  0.1493 -0.1494  0.1236
 6414W        W21545   3.636  16.665   2.459  0.1271 -0.0471  0.0303
 6415W        W21546  13.931  14.967  13.993 -0.1207 -0.1523 -0.1486
 6416W        W21547  15.851  13.825  14.600  0.3193  0.0240 -0.2543
 6417W        W21548  16.633  11.220  13.011 -0.1933  0.1710  0.2556
 6418W        W21549   6.258  12.318  13.407 -0.0566 -0.1695  0.0071
 6419W        W21550  16.159   6.156   1.140 -0.2287 -0.1018 -0.1089
 6420W        W21551   1.626  13.853  15.348  0.2120 -0.1677 -0.2474
 6421W        W21552   6.655   1.222  11.599  0.1343 -0.1764 -0.0729
 6422W        W21553   0.091  17.797   2.516 -0.0216  0.0167  0.1680
 6423W        W21554   6.823   8.978   1.504 -0.1529  0.0170 -0.0726
 6424W        W21555   9.512  14.856   0.767  0.2171  0.0328  0.2531
 6425W        W21556  14.821  15.496   3.622 -0.3211  0.0182  0.1407
 6426W        W21557   3.406   3.840  13.945 -0.1679  0.4994 -0.0855
 6427W        W21558   3.393  16.832  11.857 -0.0490 -0.3988 -0.2614
 6428W        W21559   7.882  18.476   4.306  0.0921 -0.2140  0.3106
 6429W        W21560   4.030   7.782   5.236  0.1210  0.0882 -0.0497
 6430W        W21561   6.700  15.146  13.730 -0.1912  0.3235  0.1667
 6431W        W21562  10.255   5.782   0.941  0.2791 -0.0276 -0.0078
 6432W        W21563   8.802   3.057   2.237 -0.4218  0.1704 -0.0160
 6433W        W21564   2.813   3.167   1.165  0.0056 -0.1018  0.4083
 6434W        W21565   1.738  13.127  10.751 -0.1274  0.2580  0.0573
 6435W        W21566   5.024   0.178   3.433  0.0987 -0.0637 -0.0294
 6436W        W21567   1.042  15.441  15.532 -0.1393  0.0114 -0.1880
 6437W        W21568   9.562   2.362  10.936  0.1092 -0.0895  0.4849
 6438W        W21569  12.974  11.769  10.029  0.0118 -0.1741 -0.1949
 6439W        W21570   4.270   1.699   4.662  0.2470  0.4462  0.2359
 6440W        W21571   3.748  18.565   2.665  0.0802  0.0638 -0.0064
 6441W        W21572  11.141   9.981  12.713 -0.0920  0.1368 -0.2312
 6442W        W21573  11.069  10.577   5.242  0.0283  0.1900  0.2117
 6443W        W21574  13.111  18.171  15.835  0.2435 -0.3415 -0.1192
 6444W        W21575   5.742   0.606   4.789  0.1858 -0.0076  0.0457
 6445W        W21576   4.857  12.373   2.629  0.0155  0.0755  0.1841
 6446W        W21577   0.852   6.521  12.525  0.0303  0.0853 -0.0344
 6447W        W21578   3.389  16.586   3.394 -0.0439 -0.1630  0.1490
 6448W        W21579  16.683   2.305   3.039  0.0983  0.1028  0.0219
 6449W        W21580  10.562   9.990   4.153 -0.0410  0.5032  0.1958
 6450W        W21581   5.078   8.261   4.703 -0.0865  0.1776  0.0777
 6451W        W21582   8.994  10.283  11.432  0.1540  0.1042  0.0643
 6452W        W21583   7.968   9.528   1.323 -0.2769 -0.2395  0.1660
 6453W        W21584  11.433  14.607  11.373 -0.0733 -0.3015  0.3054
 6454W        W21585   4.057   2.349   4.569 -0.1237 -0.2359  0.0429
 6455W        W21586   7.935  17.359   3.404  0.0312  0.1166  0.3120
 6456W        W21587  16.432  16.685   2.685 -0.0676  0.1742  0.0749
 6457W        W21588   5.494   2.416  10.786  0.0031  0.2247 -0.1491
 6458W        W21589  18.293  16.526   1.096 -0.1329 -0.0832 -0.0636
 6459W        W21590   9.718   7.666  10.431 -0.1526 -0.0934 -0.0681
 6460W        W21591   7.849  13.605  13.636 -0.1476  0.3096  0.3288
 6461W        W21592  17.426   6.250   3.864  0.1386  0.0965  0.1912
 6462W        W21593   1.337  16.188  12.243  0.0226 -0.4207  0.1471
 6463W        W21594   0.206  15.507   0.480 -0.1662  0.1979 -0.2296
 6464W        W21595   6.149  12.796  14.059 -0.4182  0.0834  0.1640
 6465W        W21596  12.580   0.354   0.536  0.1777 -0.3335 -0.1957
 6466W        W21597   8.887   2.642   0.045  0.0864  0.3861 -0.0797
 6467W        W21598  11.977   3.935  12.695 -0.0405 -0.0789  0.2491
 6468W        W21599   6.228  13.847  12.063  0.0201  0.3121 -0.2140
 6469W        W21600   4.225   1.464  14.549  0.1352 -0.0395 -0.1485
 6470W        W21601  15.965   8.025  13.374 -0.1774 -0.0632 -0.0987
 6471W        W21602  10.031   8.595   3.332 -0.0327  0.0250 -0.2872
 6472W        W21603   0.961  11.248   3.042  0.3526  0.0192 -0.0706
 6473W        W21604  16.613  11.866   5.396  0.1780 -0.0752  0.0548
 6474W        W21605  10.982  10.042   2.529  0.0966  0.2070 -0.0716
 6475W        W21606   3.977   4.046   4.633 -0.0178 -0.3000 -0.1093
 6476W        W21607  13.987  13.232  11.335 -0.2300 -0.3996 -0.0988
 6477W        W21608  11.363   6.337   2.801 -0.0901  0.0947 -0.1662
 6478W        W21609  14.442  10.323  13.598 -0.2570  0.0384 -0.0769
 6479W        W21610   7.574   4.250   3.923  0.1154 -0.1027  0.0746
 6480W        W21611  12.259  14.555  14.271 -0.0346  0.0228 -0.0751
 6481W        W21612   1.962   6.548   0.468 -0.1063 -0.1417  0.1214
 6482W        W21613   8.921  15.022   2.621  0.0370 -0.1863  0.0152
 6483W        W21614  13.008   8.672   5.953 -0.1811 -0.0166  0.1145
 6484W        W21615   1.172   2.332   4.442  0.0200  0.0922  0.1496
 6485W        W21616   5.359  17.704   0.188 -0.1051  0.4806  0.1063
 6486W        W21617  14.981  14.965  11.999  0.1657 -0.2421  0.0702
 6487W        W21618   8.862  11.001   1.208  0.4671  0.2061  0.1262
 6488W        W21619  15.935   7.306  14.898 -0.1733 -0.1769  0.0871
 6489W        W21620  14.771   8.641  15.147  0.2231  0.1603  0.0031
 6490W        W21621   9.260   0.575  12.691 -0.1463 -0.3760 -0.1035
 6491W        W21622   5.184   7.118  12.762  0.1607  0.3246  0.2248
 6492W        W21623  14.415  16.785   3.715  0.1249  0.0878 -0.0165
 6493W        W21624   5.314   3.282   4.997 -0.2284 -0.0918 -0.0209
 6494W        W21625   8.671  17.958   4.601  0.2267  0.2846  0.0808
 6495W        W21626  17.760   4.066   4.015 -0.1800  0.1618  0.2003
 6496W        W21627  18.176  18.304   4.539  0.0886 -0.1540 -0.0389
 6497W        W21628  11.789  13.189   0.743 -0.0599 -0.2110 -0.2100
 6498W        W21629   4.051  14.033  11.850 -0.0654 -0.1137 -0.3007
 6499W        W21630   3.552  13.250  10.685 -0.0294  0.2273  0.0247
 6500W        W21631   0.471   8.339   0.617 -0.2281 -0.1810 -0.2112
 6501W        W21632  13.681  10.573  12.819  0.0081 -0.0673  0.1056
 6502W        W21633   8.006   7.227   2.039  0.2268 -0.0175  0.2605
 6503W        W21634   0.114  17.628   3.275  0.1495 -0.0605  0.1162
 6504W        W21635  10.755   4.268  15.310  0.1540  0.0242 -0.2974
 6505W        W21636  14.634   9.480   2.086  0.2745  0.2467 -0.3574
 6506W        W21637  10.318  11.434  14.801 -0.1515 -0.2000  0.0595
 6507W        W21638  13.930  10.614  15.618  0.0339 -0.1197  0.1111
 6508W        W21639   5.358   9.318  13.087 -0.1149  0.5629 -0.0297
 6509W        W21640   1.139  10.696   5.555  0.0192  0.2886 -0.2939
 6510W        W21641  12.572  11.760   0.533 -0.2445 -0.0720  0.2965
 6511W        W21642   6.844  11.288  14.824 -0.0650 -0.0857  0.0282
 6512W        W21643  12.373  11.235  14.303 -0.4606 -0.4065 -0.3156
 6513W        W21644   9.686   5.543  15.594 -0.0008 -0.1005  0.2093
 6514W        W21645  11.033  17.439   4.309  0.2175  0.1279 -0.1817
 6515W        W21646  16.025  13.982   4.242  0.2954 -0.2590 -0.3193
 6516W        W21647  18.443   5.204  15.219 -0.1755  0.3047 -0.0086
 6517W        W21648   7.746   0.064  12.071 -0.1667 -0.1888  0.2643
 6518W        W21649  14.597   8.961  15.551  0.1092  0.1632 -0.1279
 6519W        W21650   7.357   2.256  14.872  0.0477 -0.1352  0.3211
 6520W        W21651  17.832   4.573   1.520  0.1346 -0.2170 -0.1736
 6521W        W21652  18.085   4.106   0.876 -0.0546  0.2522  0.1233
 6522W        W21653   8.950  10.384  15.864 -0.1220  0.2745  0.0041
 6523W        W21654   9.744  10.850   2.812  0.1195  0.1585 -0.2825
 6524W        W21655   8.087   0.839   4.310  0.2168 -0.0249 -0.3248
 6525W        W21656  14.399  11.695   4.966 -0.1134  0.1061 -0.2291
 6526W        W21657  12.624   7.177  12.474  0.0023 -0.0073  0.2423
 6527W        W21658   5.700  14.540  12.210  0.1236  0.0147 -0.1932
 6528W        W21659  11.855  10.886  11.025  0.1297  0.0763 -0.0953
 6529W        W21660  17.897   2.120   4.896  0.1328 -0.2475  0.1222
 6530W        W21661   8.890  10.911  13.635  0.0545 -0.0843  0.0669
 6531W        W21662  13.212   5.558  14.922  0.1549  0.0236 -0.1472
 6532W        W21663   9.291   3.898  11.105  0.0776 -0.0715 -0.0193
 6533W        W21664  17.901   6.625  11.426  0.1129  0.3474 -0.3607
 6534W        W21665   5.541  11.409   1.078 -0.2383 -0.2568  0.1774
 6535W        W21666  11.536  16.115   3.378 -0.1284  0.0996 -0.1748
 6536W        W21667   4.448  14.596   3.389 -0.2607 -0.3530  0.0173
 6537W        W21668  17.629   8.743   4.345  0.1732 -0.3568 -0.2372
 6538W        W21669   3.089  16.589   2.498 -0.3617  0.1338 -0.2820
 6539W        W21670   5.926  10.679   5.951 -0.2595 -0.1508  0.1895
 6540W        W21671  10.073   5.967  15.643 -0.0613  0.2551  0.0376
 6541W        W21672  16.332  11.341  15.306  0.1641  0.1644 -0.1436
 6542W        W21673   0.230  18.517  14.467  0.1715  0.0869  0.0925
 6543W        W21674  11.268   4.134  14.751 -0.1181  0.0235  0.0406
 6544W        W21675  13.580  15.278  13.590  0.3176 -0.0231  0.0118
 6545W        W21676   3.594  14.879   1.552  0.1133 -0.1173  0.1476
 6546W        W21677  14.640   5.850  13.142  0.2199 -0.0714  0.0871
 6547W        W21678   2.764  12.348  11.298 -0.0362 -0.3329 -0.1105
 6548W        W21679   2.210  14.537   0.483 -0.5339 -0.0903  0.1467
 6549W        W21680   0.359   8.304   2.220 -0.1048 -0.5461 -0.1601
 6550W        W21681  16.860   1.798  15.413  0.2470  0.2157 -0.1017
 6551W        W21682   1.062  13.018  13.925  0.0784 -0.4509  0.2279
 6552W        W21683  12.481  11.306  14.800 -0.0918  0.0354 -0.2957
 6553W        W21684   8.543   2.370   4.767  0.1582  0.1712 -0.1457
 6554W        W21685   1.817  12.574  12.745  0.2645 -0.1235  0.2139
 6555W        W21686   3.503   3.506   0.741 -0.0151  0.0250  0.2065
 6556W        W21687   1.078  17.055   2.354 -0.2658  0.0944  0.3815
 6557W        W21688  12.249   2.157  13.976 -0.1060  0.0114  0.0676
 6558W        W21689  12.550  17.638  11.016 -0.6414  0.3982  0.0353
 6559W        W21690  18.125   4.489   2.821 -0.0258  0.2236  0.0283
 6560W        W21691   5.445   6.610  11.104 -0.1792 -0.0483  0.1155
 6561W        W21692  13.712  15.381   9.872  0.2007  0.2125  0.0020
 6562W        W21693  15.737   4.875  15.712 -0.3722  0.1393  0.1333
 6563W        W21694   2.754   0.581   1.055  0.3386  0.2471  0.3434
 6564W        W21695  13.647  14.833   3.703  0.0333  0.0813  0.1188
 6565W        W21696   7.955   2.114  10.243  0.1651 -0.0005 -0.0437
 6566W        W21697   3.808   7.613   0.792 -0.4516  0.1195  0.0688
 6567W        W21698   8.136  17.701  10.486 -0.2288 -0.1045  0.0903
 6568W        W21699  12.839   9.187  10.711  0.1669 -0.1634 -0.1610
 6569W        W21700  17.650  11.159  11.917  0.2086 -0.2710 -0.0570
 6570W        W21701   4.611   9.068  12.083  0.0337 -0.0619  0.0956
 6571W        W21702   7.539   1.518   2.241  0.0816  0.4680  0.1366
 6572W        W21703   1.907   9.333  13.787 -0.1058 -0.4579 -0.2839
 6573W        W21704   4.603  14.935  12.919  0.3991 -0.1543  0.0071
 6574W        W21705  16.079   2.705   4.812  0.1148 -0.0350  0.1145
 6575W        W21706  16.310  15.667   4.553  0.0770  0.1207  0.2066
 6576W        W21707   6.345   0.522   2.282 -0.0047 -0.2278  0.0841
 6577W        W21708   8.523   6.750   4.328  0.0385  0.0146 -0.1720
 6578W        W21709   0.868   2.317  12.218 -0.2849  0.3141 -0.0077
 6579W        W21710   6.158  10.679   1.068 -0.1532 -0.0683 -0.1397
 6580W        W21711  13.517   4.590   0.527 -0.0429 -0.1327 -0.1031
 6581W        W21712   9.846  16.743   0.352  0.0220  0.2133 -0.0413
 6582W        W21713   7.003  10.041  12.512 -0.0270 -0.0312 -0.4741
 6583W        W21714  12.209   4.626   4.046 -0.3455  0.0731 -0.3532
 6584W        W21715   0.016   6.864   3.603 -0.1060 -0.0287  0.0858
 6585W        W21716  11.260  12.195   2.354 -0.3019 -0.0380 -0.1527
 6586W        W21717   2.639   8.899  12.257 -0.4415 -0.1239  0.2415
 6587W        W21718   3.560   5.466   4.206  0.3124  0.0111 -0.0515
 6588W        W21719  10.517   4.030  11.242  0.0301  0.0683  0.1388
 6589W        W21720  16.289  10.306   1.421  0.1936 -0.2675  0.0533
 6590W        W21721   8.773  10.524   2.030 -0.0676 -0.0585  0.0854
 6591W        W21722  10.850   4.015   3.376 -0.0015  0.2712  0.0483
 6592W        W21723  16.048   1.690  12.596  0.2774  0.1252 -0.1278
 6593W        W21724   2.546  14.282  11.544 -0.2161 -0.0047 -0.0920
 6594W        W21725  15.954   1.301   5.284  0.0141  0.1711  0.0908
 6595W        W21726   0.404  15.244  13.414  0.0946  0.1678  0.1140
 6596W        W21727  14.073   3.909   1.209 -0.3475 -0.0210  0.1115
 6597W        W21728   2.330   1.775  13.063 -0.2347 -0.0874 -0.2155
 6598W        W21729   2.309  10.433  14.031 -0.1485 -0.3719 -0.0925
 6599W        W21730   2.670   5.595  12.896 -0.0907  0.0907  0.1975
 6600W        W21731   0.263   7.984   2.604 -0.0904 -0.0521 -0.1314
 6601W        W21732  10.861   0.445  14.257 -0.1149  0.1637  0.4167
 6602W        W21733   8.293   9.140   1.154 -0.0466 -0.2367 -0.1719
 6603W        W21734  17.045  12.735  13.231 -0.2539  0.3397 -0.0032
 6604W        W21735   1.677  17.761  12.249  0.4908 -0.1227  0.1203
 6605W        W21736   6.553  16.089  14.620  0.0113  0.2125  0.5030
 6606W        W21737   1.530   4.448  11.316 -0.0393  0.0949 -0.1087
 6607W        W21738   3.451   6.452   1.596  0.1338 -0.1873 -0.0999
 6608W        W21739  11.312  12.201   3.245  0.2283  0.1675 -0.1219
 6609W        W21740   6.287   0.812  13.617  0.1839 -0.1986 -0.2068
 6610W        W21741  14.178   0.699   3.502 -0.0643  0.0715 -0.1741
 6611W        W21742  16.421   8.591  15.329  0.1995 -0.2038 -0.0418
 6612W        W21743  11.988   2.090   4.948  0.0478 -0.1888 -0.3379
 6613W        W21744   7.646   1.005   4.819 -0.0360 -0.1872  0.0234
 6614W        W21745  14.928  16.186  11.028  0.1491  0.0464 -0.2817
 6615W        W21746  12.134   7.234  12.766 -0.1480  0.2306  0.1582
 6616W        W21747   4.840   9.552   3.126  0.0249 -0.2416 -0.0189
 6617W        W21748   5.414  11.873  15.237  0.0932  0.2956  0.0335
 6618W        W21749   1.869  10.700  13.880 -0.0746  0.2170 -0.0508
 6619W        W21750  12.691   5.796  15.622  0.0834  0.1022  0.0021
 6620W        W21751  17.247  13.318   0.905 -0.1622  0.1000  0.1042
 6621W        W21752   4.736  16.409  12.629 -0.1276  0.0302  0.1098
 6622W        W21753   0.621  11.282  13.920  0.0608 -0.0426  0.2695
 6623W        W21754   9.596   5.928  11.908 -0.0065  0.1342  0.0768
 6624W        W21755  16.589  10.893   5.082 -0.0562 -0.0968  0.1913
 6625W        W21756   6.535   1.123  11.079  0.0650 -0.4590 -0.0709
 6626W        W21757  14.242  15.596   9.824  0.0428  0.0143 -0.0253
 6627W        W21758   9.499   0.785  11.717 -0.1506 -0.1790 -0.1281
 6628W        W21759  15.763  18.303   1.703 -0.1309 -0.1699 -0.1641
 6629W        W21760   6.469  16.657  14.622 -0.2144 -0.0123  0.2797
 6630W        W21761   8.254   6.842  14.344 -0.0071  0.0112  0.4047
 6631W        W21762   6.825  12.050  15.814  0.3472 -0.0394  0.2734
 6632W        W21763  12.930  11.621   0.104  0.1736  0.0774 -0.1128
 6633W        W21764  15.226   5.584   3.588  0.2450  0.0762  0.0688
 6634W        W21765  18.372   0.009  15.528  0.3490 -0.1086 -0.2382
 6635W        W21766  18.549   2.410  11.688 -0.1504 -0.0116 -0.3120
 6636W        W21767  17.659   8.153  14.731  0.0841  0.1499 -0.2835
 6637W        W21768   0.832  14.192   0.755 -0.1178 -0.1364 -0.3374
 6638W        W21769   1.467   3.943   5.835 -0.3428  0.4603  0.5382
 6639W        W21770  14.672   6.762  14.974 -0.0254 -0.0474  0.3857
 6640W        W21771  10.917   0.604   3.118  0.2883  0.0360 -0.0208
 6641W        W21772  15.791  12.991   5.008  0.0681 -0.1039  0.1535
 6642W        W21773   3.938   9.889   2.978 -0.1836  0.5454 -0.1679
 6643W        W21774   7.506  11.241   0.903  0.0740 -0.2101 -0.2349
 6644W        W21775   0.849  17.539   4.210 -0.2005 -0.2092  0.0820
 6645W        W21776  15.346   9.183  12.497 -0.4945  0.0789 -0.3827
 6646W        W21777   8.091  11.344   3.124  0.1027  0.0475  0.0091
 6647W        W21778  11.676   1.156  10.721  0.0011  0.0075  0.0666
 6648W        W21779  15.107  14.384  12.769 -0.1263 -0.4154  0.0644
 6649W        W21780   0.238  16.125  15.869  0.0643 -0.3074 -0.1780
 6650W        W21781   8.975   4.117   4.298  0.2679  0.0652 -0.1328
 6651W        W21782   1.942   2.158  15.023 -0.0527  0.1185  0.0689
 6652W        W21783  16.169   2.269  13.478 -0.4219 -0.1432 -0.2058
 6653W        W21784   0.010  14.991  12.221 -0.1953 -0.1354 -0.1286
 6654W        W21785   2.820  10.942  15.389  0.1680  0.2517  0.1144
 6655W        W21786  13.289  10.930   0.013  0.0034  0.1348 -0.1277
 6656W        W21787  14.296  17.052  12.643  0.0289 -0.2381 -0.6441
 6657W        W21788  15.650  17.439   5.434  0.0097 -0.0902  0.3837
 6658W        W21789   9.247   5.874   1.174 -0.1767  0.1816  0.1965
 6659W        W21790   9.050  17.530  15.060  0.1740  0.0350  0.3668
 6660W        W21791   8.299   6.098   3.089 -0.3986  0.1569  0.0190
 6661W        W21792   7.395  17.144   4.666  0.0211 -0.0898 -0.2860
 6662W        W21793   4.292   1.554  13.695 -0.1001  0.2822  0.1606
 6663W        W21794   3.914  12.974   4.391  0.0251  0.0586  0.1612
 6664W        W21795  15.652   2.091  15.610 -0.2921  0.0855 -0.2629
 6665W        W21796   9.127   6.715  14.826  0.0165  0.2485 -0.0046
 6666W        W21797   4.039  12.881  13.892 -0.1440 -0.0262  0.2185
 6667W        W21798  14.144  15.461  10.741  0.1018  0.2787 -0.0508
 6668W        W21799   5.719   7.825  13.687  0.3866 -0.0753  0.0891
 6669W        W21800   8.622   4.034  13.160  0.1126  0.2120  0.1338
 6670W        W21801   3.172   6.249  11.991  0.1750  0.0866  0.4183
 6671W        W21802   8.799   1.625  14.882  0.0547  0.0617 -0.3047
 6672W        W21803  14.791  18.233  11.277  0.1723  0.0533  0.1583
 6673W        W21804   5.222   3.684   5.396  0.0388 -0.0829  0.2123
 6674W        W21805  12.594   3.536   0.968 -0.3145  0.2290  0.2548
 6675W        W21806   0.076   3.382  15.221  0.2037 -0.1591  0.1358
 6676W        W21807   9.480  11.698  11.739 -0.2215  0.1066 -0.0277
 6677W        W21808  10.996  14.692   1.086  0.0234  0.1848 -0.2608
 6678W        W21809   2.566  18.336  12.367  0.1276 -0.1058 -0.2136
 6679W        W21810   1.720   2.633   2.757 -0.1584  0.6345  0.2222
 6680W        W21811  18.196   7.134   3.638  0.2779  0.0323 -0.3351
 6681W        W21812  12.132   1.292  14.548  0.3575  0.0650  0.2205
 6682W        W21813   4.260  15.936   0.367  0.1582  0.0716 -0.0027
 6683W        W21814  17.029   8.502   0.140 -0.1416 -0.1237 -0.1387
 6684W        W21815   3.019  13.721  14.495 -0.0059  0.1697  0.0695
 6685W        W21816   0.588  10.085   4.412  0.0112 -0.0967 -0.3300
 6686W        W21817   8.690  18.570  11.414 -0.0513 -0.2783 -0.1160
 6687W        W21818   7.665  14.638  10.605  0.3301 -0.3245  0.1232
 6688W        W21819   7.373  14.444   5.429  0.1681 -0.0978  0.2932
 6689W        W21820  10.833   9.011  14.633 -0.0130  0.1806  0.1730
 6690W        W21821  15.064   7.195  12.971  0.3715 -0.0747 -0.0919
 6691W        W21822   7.644   2.232  13.031 -0.2379  0.0480 -0.2594
 6692W        W21823  15.678   4.356  13.149 -0.2466 -0.1295  0.0625
 6693W        W21824   7.805  12.197   3.407 -0.2205  0.2721  0.0446
 6694W        W21825  17.029   2.919  12.572 -0.1139 -0.0351  0.0649
 6695W        W21826  10.281  12.703   3.429  0.0869 -0.0223  0.1016
 6696W        W21827   7.356  12.461   3.441  0.1891  0.0683  0.1132
 6697W        W21828   0.207   1.267  13.151 -0.0163 -0.1928  0.0271
 6698W        W21829  14.739  15.000  14.063 -0.2650  0.4080 -0.0591
 6699W        W21830   4.714  17.071  14.160 -0.1991  0.0323  0.2457
 6700W        W21831   1.140  12.921   4.048  0.0233  0.0873  0.0407
 6701W        W21832  15.790  11.529   5.278  0.0182 -0.0502  0.1047
 6702W        W21833   6.118   1.481  14.830  0.0769 -0.0792 -0.0145
 6703W        W21834   6.217   8.087  14.917  0.1492 -0.1063  0.2992
 6704W        W21835  17.771   7.683  11.485 -0.2247  0.1040  0.2413
 6705W        W21836   9.608  10.635   3.629 -0.1723 -0.0695 -0.1882
 6706W        W21837   9.627  14.602  11.163 -0.0803 -0.0629 -0.0185
 6707W        W21838   2.558  12.806   3.764 -0.1233  0.2667  0.2464
 6708W        W21839  14.510   2.195   3.266 -0.1312 -0.0963 -0.2773
 6709W        W21840   4.650  14.680  10.658  0.2639 -0.0779 -0.0219
 6710W        W21841   7.402  16.100  15.726 -0.1481 -0.0316 -0.0042
 6711W        W21842   4.551   8.408   2.229 -0.1448 -0.3549  0.1720
 6712W        W21843   2.942  10.664   0.746 -0.1513  0.2615 -0.0571
 6713W        W21844  10.256   6.130  15.077 -0.0168 -0.4269 -0.1168
 6714W        W21845   0.146   7.085  10.854  0.0396  0.1318  0.2344
 6715W        W21846  15.836   2.901   5.262 -0.2123  0.0576 -0.0419
 6716W        W21847  10.008  12.753  11.891 -0.3226  0.4348  0.0149
 6717W        W21848   0.562  13.337   0.826 -0.0327  0.0296  0.1517
 6718W        W21849  10.747  13.213   1.660 -0.0440 -0.0089 -0.2031
 6719W        W21850  18.454   8.907  13.072  0.3493  0.2142 -0.5136
 6720W        W21851  16.467   8.054  12.515  0.2701  0.1510 -0.1178
 6721W        W21852  15.351   5.737   4.313  0.2333 -0.1144  0.0345
 6722W        W21853  10.386   3.468   0.380 -0.2023  0.2283 -0.0064
 6723W        W21854   2.568   1.423  13.559 -0.1548 -0.0271 -0.0448
 6724W        W21855   1.277   6.211   0.174 -0.2481  0.0940 -0.1663
 6725W        W21856   4.163  17.592   3.706 -0.0113  0.0091 -0.2641
 6726W        W21857   2.683   2.794   3.634  0.1612 -0.0339 -0.3675
 6727W        W21858  17.195   1.989   4.569 -0.1618  0.3483  0.1498
 6728W        W21859   1.782   7.427   3.565 -0.1916  0.1287  0.0232
 6729W        W21860   2.950   7.081   4.815  0.0930 -0.0757  0.0549
 6730W        W21861   6.954   3.943  15.416 -0.2042 -0.0311  0.0904
 6731W        W21862   2.304  15.188  12.211  0.3077  0.2417  0.0789
 6732W        W21863  18.361   3.488  13.196  0.1980  0.0985  0.1373
 6733W        W21864   7.406   3.806  15.468  0.1752 -0.0741 -0.1795
 6734W        W21865   1.722  10.503  14.725 -0.0845 -0.1500 -0.0397
 6735W        W21866   8.127  17.483  12.183  0.1565  0.1772  0.0338
 6736W        W21867   7.178  12.775  13.250 -0.3969  0.0269 -0.1228
 6737W        W21868  14.616  11.027  12.520 -0.1596 -0.2205  0.4609
 6738W        W21869  17.792  12.235   3.671  0.0373  0.1642  0.0093
 6739W        W21870  15.578  17.132   2.895  0.1015  0.0037  0.1023
 6740W        W21871   6.516  13.418  10.800  0.0326  0.3720  0.0519
 6741W        W21872   9.767   2.233  13.522  0.0146  0.0291 -0.1238
 6742W        W21873  10.789   4.147  12.609 -0.1976  0.2940 -0.0197
 6743W        W21874  10.671  11.332  11.630 -0.1449 -0.1036 -0.1125
 6744W        W21875  14.801  17.664  12.390  0.1307  0.0734 -0.0076
 6745W        W21876   1.068   3.665   0.107  0.0827 -0.0317 -0.0610
 6746W        W21877  15.669   7.188  11.763 -0.1239  0.2857 -0.4113
 6747W        W21878   1.515   2.657   5.402  0.1521 -0.2730 -0.0173
 6748W        W21879  12.646   3.148   5.663  0.3255 -0.1809 -0.1131
 6749W        W21880  14.745   4.935   4.730 -0.1947 -0.0267  0.0663
 6750W        W21881   8.749   7.485   4.249  0.0103  0.0617  0.2629
 6751W        W21882   7.056   5.800   4.625  0.1990 -0.1007  0.2946
 6752W        W21883   1.789  17.202   4.377  0.2131  0.1182  0.2202
 6753W        W21884   2.481   1.285  12.608  0.1966 -0.1797  0.0638
 6754W        W21885  10.882  17.649  14.775 -0.0440  0.0410  0.0357
 6755W        W21886  10.345  12.005  10.995  0.1815 -0.2726  0.1679
 6756W        W21887  16.376   6.103  15.252 -0.0480 -0.1110  0.0290
 6757W        W21888   0.059  15.469   1.699 -0.3178 -0.2029  0.0170
 6758W        W21889   9.379   8.722  11.433 -0.3261 -0.2458 -0.0054
 6759W        W21890   0.225   6.008  15.152 -0.2392 -0.1996 -0.3370
 6760W        W21891  10.087  10.142  14.447 -0.0746  0.0316 -0.3174
 6761W        W21892   6.887  18.098  10.886 -0.1897 -0.0078 -0.0320
 6762W        W21893   1.180   0.308   0.338 -0.2582 -0.0154  0.0111
 6763W        W21894   7.911  11.142  11.338 -0.1790  0.0164  0.1255
 6764W        W21895  11.285   1.369  15.273  0.0437 -0.1074  0.0054
 6765W        W21896   1.517  14.631   4.975  0.3905 -0.2485  0.2553
 6766W        W21897   2.392   4.882  15.441  0.0004 -0.1556 -0.0454
 6767W        W21898  11.530   2.000   1.486  0.0014 -0.0773  0.0216
 6768W        W21899  13.240  14.669  11.505 -0.1061 -0.0141  0.0108
 6769W        W21900   6.437   9.570   3.406 -0.2656  0.1922  0.3593
 6770W        W21901   3.072  18.371   0.186 -0.0963 -0.1990  0.0784
 6771W        W21902   9.426   7.759  12.358  0.0279 -0.1184 -0.1914
 6772W        W21903  11.204   1.288   3.746 -0.0228  0.0259  0.2351
 6773W        W21904  12.371  11.052   3.958 -0.1269 -0.1327  0.0509
 6774W        W21905  16.908   8.193  15.374 -0.2915 -0.1749  0.1270
 6775W        W21906  16.131  10.931   2.702  0.1822  0.0286  0.2526
 6776W        W21907   8.491   5.819   3.570  0.3384 -0.1901  0.1157
 6777W        W21908  18.260   8.658   5.451 -0.0162  0.3163  0.0758
 6778W        W21909   5.308   3.943  15.145 -0.0032  0.1421 -0.4621
 6779W        W21910   1.634  13.633   4.485 -0.2760  0.3910  0.2115
 6780W        W21911  13.292  12.647  13.724  0.2294 -0.0432  0.1960
 6781W        W21912   7.142   7.741  12.585  0.2122 -0.1168  0.2495
 6782W        W21913  11.914  17.257   0.378  0.0254  0.3747 -0.0350
 6783W        W21914  12.106  13.006   5.294  0.1380  0.1279 -0.2038
 6784W        W21915  13.031   5.046   3.910 -0.0850 -0.2490  0.2081
 6785W        W21916   9.113  18.407   0.558  0.1908  0.2224 -0.1123
 6786W        W21917   5.463   0.611  11.407 -0.0753  0.1833  0.3678
 6787W        W21918  12.027  14.723   3.349  0.0437  0.0535 -0.0760
 6788W        W21919   0.651  17.819   2.126 -0.0044  0.0013 -0.1080
 6789W        W21920  17.151  11.984  15.797  0.0646 -0.2836 -0.3057
 6790W        W21921  18.481  16.795  13.322  0.0727  0.1120  0.1917
 6791W        W21922   3.493  13.121  12.560  0.1189  0.0413 -0.2539
 6792W        W21923  15.201   7.624   5.955  0.0979 -0.1547  0.0621
 6793W        W21924  11.453   5.633  11.820  0.0505  0.1275 -0.0206
 6794W        W21925  13.137  10.905  10.883  0.0295 -0.0296  0.0539
 6795W        W21926  10.475   1.943  14.582 -0.0516 -0.0426  0.0643
 6796W        W21927  13.492   5.142  11.330  0.1719  0.0635  0.0172
 6797W        W21928   4.391   7.099  14.058 -0.0183  0.3219  0.2150
 6798W        W21929   8.672   3.712  14.227  0.1680  0.0550  0.0020
 6799W        W21930   3.246   8.366  11.126  0.0652  0.3041  0.0684
 6800W        W21931   6.171  10.331  10.081  0.3115  0.1759  0.1391
 6801W        W21932   5.839  15.013  14.039 -0.2518 -0.0210 -0.0976
 6802W        W21933  15.932   4.417  11.569 -0.1098  0.0448  0.2928
 6803W        W21934  14.828  15.940   3.894 -0.0482 -0.2224 -0.0703
 6804W        W21935  17.143   8.286   2.062  0.0006 -0.0541 -0.2027
 6805W        W21936   8.679  11.400  12.637  0.0798  0.0391  0.1184
 6806W        W21937   2.473   2.536  13.673 -0.0777 -0.3273  0.6231
 6807W        W21938   7.824   4.676  13.196 -0.1802 -0.0349  0.2651
 6808W        W21939  18.481   9.382  11.984 -0.0603 -0.1355  0.1251
 6809W        W21940  14.607   0.282   2.545 -0.0366 -0.4108  0.0242
 6810W        W21941  13.648   1.544   5.937  0.1881 -0.4187  0.0416
 6811W        W21942  14.822   0.067   4.810 -0.0338  0.1830 -0.0408
 6812W        W21943  13.458   8.303   3.171  0.2584  0.0418 -0.1235
 6813W        W21944  14.729   9.337   6.174  0.2404 -0.0317 -0.0512
 6814W        W21945   2.754   7.654   1.148  0.3859 -0.2601 -0.0937
 6815W        W21946   3.213   1.425   3.161 -0.2493  0.2438 -0.4409
 6816W        W21947   4.691   8.254  14.704  0.1153  0.0021  0.2379
 6817W        W21948   0.403   9.895   3.022 -0.4028 -0.0410  0.2239
 6818W        W21949   3.997   5.757  10.898 -0.0570  0.0077  0.0545
 6819W        W21950  12.798   7.304   0.585 -0.0784  0.1050  0.0126
 6820W        W21951  16.115   9.823   3.966  0.0006 -0.0509  0.1121
 6821W        W21952   7.216  14.350   0.638  0.1291  0.2975  0.0265
 6822W        W21953  11.327   6.596   3.887  0.0463  0.0726  0.2762
 6823W        W21954  13.392  11.461  13.478  0.0840  0.1781 -0.1558
 6824W        W21955   8.351  16.296  13.967  0.0973  0.1014 -0.2188
 6825W        W21956  16.198   3.407  15.149 -0.0424 -0.1072  0.0031
 6826W        W21957   5.254   4.441   4.625 -0.0309  0.0659  0.0976
 6827W        W21958   7.540  17.354   1.300 -0.0171 -0.1215 -0.3070
 6828W        W21959   5.028   5.293   0.022  0.2749 -0.2012  0.0376
 6829W        W21960  10.695  15.635   2.880  0.0004  0.3078  0.1420
 6830W        W21961   9.143   9.643   0.293 -0.0334 -0.1319  0.1782
 6831W        W21962   2.682   4.165  10.894  0.3528 -0.0871 -0.2279
 6832W        W21963   2.764  11.876  15.448 -0.1187 -0.0735  0.3322
 6833W        W21964  13.333   3.068   4.341 -0.1294 -0.2104 -0.2750
 6834W        W21965  15.367   4.192   0.185 -0.1139 -0.1763  0.0798
 6835W        W21966  16.932   1.964   3.411  0.1771 -0.0231  0.2892
 6836W        W21967  15.238  13.661   0.163 -0.1378  0.1081  0.0894
 6837W        W21968   6.613   5.645  13.319 -0.1688 -0.0517  0.2097
 6838W        W21969  12.620   2.286  12.383 -0.0577  0.1662 -0.1879
 6839W        W21970  12.384   0.238  12.915  0.2041 -0.0474 -0.3671
 6840W        W21971   7.533  17.930   1.213  0.2305 -0.2136 -0.1128
 6841W        W21972  10.617   7.039   5.432 -0.1909 -0.0696 -0.2140
 6842W        W21973   5.580   8.004  12.305  0.2556  0.0555 -0.0048
 6843W        W21974  16.812   6.582   1.494 -0.1408  0.0041 -0.1520
 6844W        W21975   4.297   4.468  13.484  0.1214  0.1115  0.2444
 6845W        W21976   5.714  11.373  10.844 -0.0623  0.0610  0.1153
 6846W        W21977   3.803  18.407   0.800  0.2238 -0.0682 -0.0553
 6847W        W21978   6.997   6.481  10.115 -0.1898 -0.0098  0.0946
 6848W        W21979  12.768   5.775   9.855  0.0434 -0.1582 -0.1203
 6849W        W21980  12.877   6.460   0.723 -0.0590 -0.0776 -0.1243
 6850W        W21981   5.877   3.156  10.225  0.2149 -0.3666 -0.1895
 6851W        W21982  15.406  12.683   5.063 -0.2837  0.2009 -0.0645
 6852W        W21983  14.201   2.661   3.007 -0.0409 -0.0034 -0.1813
 6853W        W21984   4.106  14.107   4.592 -0.0104 -0.2665 -0.2252
 6854W        W21985   7.783   4.719   5.009  0.0309  0.2005  0.0585
 6855W        W21986   4.987  11.244  15.391  0.2727  0.2229  0.1728
 6856W        W21987  11.518  11.424   0.014  0.2483  0.2096 -0.2515
 6857W        W21988   3.184   7.198   0.845  0.0878  0.0921 -0.1216
 6858W        W21989   1.743   6.720   1.774 -0.0007 -0.2210 -0.1167
 6859W        W21990   1.147   3.816  14.758 -0.2673 -0.2325 -0.1087
 6860W        W21991  16.899   2.428   5.466  0.0985  0.0580 -0.1005
 6861W        W21992   1.969  14.193   4.255 -0.3364  0.1662 -0.0195
 6862W        W21993  12.766   6.274   0.252  0.0540 -0.2130  0.1828
 6863W        W21994  12.188   5.161   5.290 -0.0709 -0.1534 -0.0982
 6864W        W21995   4.711  18.527  13.391 -0.4788  0.0889  0.0672
 6865W        W21996  14.780   8.075   3.140  0.5826 -0.0612  0.1776
 6866W        W21997  15.902   3.506   0.030 -0.0396 -0.2086 -0.2097
 6867W        W21998  16.738   0.096  12.445 -0.0179  0.1357  0.1667
 6868W        W21999   3.096  11.034  11.220 -0.4178 -0.4039  0.2366
 6869W        W22000   9.508   1.053   3.516 -0.0242 -0.1307 -0.3172
 6870W        W22001   5.177  15.991   1.521  0.1256 -0.3128  0.1879
 6871W        W22002  10.767  12.127   2.600  0.3112  0.1859  0.2287
 6872W        W22003   2.965  18.190  15.162  0.1041  0.2050  0.2338
 6873W        W22004   8.214   6.624   5.505 -0.0465 -0.3965  0.1673
 6874W        W22005   8.498  13.347   0.926 -0.1765 -0.1017  0.1456
 6875W        W22006   3.793  18.351   4.028 -0.1440 -0.1077  0.2446
 6876W        W22007   4.674   5.812   3.815  0.1020 -0.1507  0.2284
 6877W        W22008  17.897  12.925   3.379  0.0354 -0.0589  0.2903
 6878W        W22009   9.903   9.209  14.406  0.0715 -0.0472 -0.2073
 6879W        W22010  15.544   7.189   3.489 -0.0700  0.2598  0.2519
 6880W        W22011  10.615  15.254   0.481 -0.2670 -0.0438 -0.3560
 6881W        W22012  12.904  12.889   5.138 -0.2668  0.0076 -0.2057
 6882W        W22013  15.509   6.104  12.191 -0.2172  0.4846 -0.0152
 6883W        W22014   8.969  13.915   1.418  0.1684 -0.1004  0.2657
 6884W        W22015   3.200   9.207  12.371  0.1909  0.3349 -0.1831
 6885W        W22016   1.270   9.483  15.724 -0.3241  0.1573 -0.1147
 6886W        W22017  16.212  18.456   5.074  0.0338  0.1161  0.1458
 6887W        W22018   1.589   3.228   2.047 -0.0608  0.0773 -0.5802
 6888W        W22019   1.812   5.717   2.352 -0.1129  0.2022 -0.2232
 6889W        W22020  13.141  12.047  12.142  0.1625 -0.2803 -0.3763
 6890W        W22021   1.570  10.964  14.529  0.0177  0.1068 -0.0567
 6891W        W22022  10.534   5.095  14.071  0.4471  0.6426  0.6395
 6892W        W22023   9.864  18.297   4.540 -0.0839  0.0864 -0.1200
 6893W        W22024  11.097   0.029   5.148  0.0846 -0.0922  0.1356
 6894W        W22025   0.031   3.468  12.452  0.3090 -0.0013 -0.1878
 6895W        W22026  13.228  12.113  13.492  0.0004  0.1884  0.1447
 6896W        W22027   8.992  18.102  13.490 -0.1826 -0.0816 -0.0079
 6897W        W22028  17.505   3.280   2.683 -0.0689 -0.0525 -0.1197
 6898W        W22029  17.069   8.666  15.253 -0.0495 -0.0882 -0.0682
 6899W        W22030  15.260  15.465   5.739  0.1031  0.1121  0.0399
 6900W        W22031  11.183   8.640   0.188  0.2484 -0.0226 -0.0494
 6901W        W22032   7.009  12.114   3.844  0.0250 -0.0448  0.1058
 6902W        W22033   3.865  18.310   5.026 -0.2242 -0.3135  0.1088
 6903W        W22034   4.525   2.621   5.242  0.0602 -0.0859 -0.3698
 6904W        W22035   0.971  12.379   2.107  0.5774  0.0405  0.0524
 6905W        W22036  14.084  15.681  14.713 -0.0140  0.0207 -0.1105
 6906W        W22037  12.791   1.890   2.845 -0.1257  0.2029 -0.1532
 6907W        W22038  14.751   8.487  11.618  0.0997  0.0002  0.1564
 6908W        W22039   0.361   1.021   5.514  0.0007 -0.0071  0.2992
 6909W        W22040  15.883   8.055   3.006 -0.4377 -0.2120 -0.1188
 6910W        W22041   8.028  15.536  13.774  0.2236  0.2420  0.3322
 6911W        W22042   1.300   3.562  13.760 -0.1632 -0.0027 -0.1353
 6912W        W22043   7.765  13.757  14.246 -0.0695  0.1008  0.0802
 6913W        W22044  12.130  16.248   1.810  0.0848  0.2932 -0.1646
 6914W        W22045   6.679  13.858   2.435  0.1580  0.0358 -0.0988
 6915W        W22046   9.829   0.741   0.159 -0.1178 -0.2671  0.1360
 6916W        W22047  10.434   7.285   4.158 -0.4214 -0.0273  0.3231
 6917W        W22048   9.380  14.490   0.338  0.1465  0.1966  0.1140
 6918W        W22049  10.819  12.908   4.966  0.4435 -0.0107  0.4402
 6919W        W22050   4.904  17.554  14.314  0.0294 -0.1303  0.1592
 6920W        W22051   0.744   3.342   3.550 -0.0197  0.1991  0.1254
 6921W        W22052   9.631   8.344  11.637 -0.0427 -0.2314 -0.1032
 6922W        W22053   9.648  13.236  12.968  0.0390  0.0587 -0.0415
 6923W        W22054   3.006   1.449  14.261  0.0386  0.0389  0.0249
 6924W        W22055  15.044   3.779  11.861 -0.2673  0.1009 -0.3085
 6925W        W22056   9.242  11.496  13.375  0.1586  0.1556  0.3950
 6926W        W22057   6.158   2.067  12.904 -0.4349 -0.2384 -0.0740
 6927W        W22058  12.148  11.332  12.885  0.0812  0.1020  0.2014
 6928W        W22059   3.420  15.355   1.604  0.0490  0.1520  0.2941
 6929W        W22060  10.362   9.356  11.610  0.0059  0.1965  0.1856
 6930W        W22061   7.150  14.266   9.742  0.0158  0.2857 -0.1555
 6931W        W22062  12.958   3.609   4.173  0.3219  0.1874 -0.0968
 6932W        W22063  16.319   4.711   4.835  0.1738 -0.0426 -0.1677
 6933W        W22064   6.607  10.801  12.922  0.0129 -0.0259 -0.3240
 6934W        W22065  16.439   9.136   0.854  0.0232 -0.0578  0.0269
 6935W        W22066   8.207  13.670   2.030 -0.0900 -0.0401 -0.0562
 6936W        W22067   2.044   7.833   3.806  0.1391  0.2767  0.1206
 6937W        W22068   0.387  10.956  11.021  0.1443 -0.2129  0.1935
 6938W        W22069   1.369   1.792   4.510  0.0777 -0.1000  0.1362
 6939W        W22070  16.241   0.121   4.032 -0.0961  0.0917  0.1694
 6940W        W22071  15.067   4.162   3.549 -0.1605  0.2347  0.0550
 6941W        W22072   9.529  15.653  11.181 -0.1762 -0.2978  0.1643
 6942W        W22073  13.963   4.971   0.125 -0.2262  0.3054 -0.0106
 6943W        W22074  10.893   6.852  11.033  0.0784 -0.2243  0.1926
 6944W        W22075   7.926  16.936  15.568 -0.0884 -0.3421 -0.1513
 6945W        W22076  12.992  14.972  15.859  0.0320 -0.3930 -0.1414
 6946W        W22077  18.157  10.345  12.719  0.0320 -0.0284 -0.0541
 6947W        W22078   7.565   5.645   1.095  0.2130 -0.0239 -0.1317
 6948W        W22079   5.226   2.830   1.233  0.4430 -0.3266  0.0167
 6949W        W22080   7.606   6.338  13.736  0.2054  0.2078 -0.3992
 6950W        W22081  15.285  18.288   2.503 -0.1630 -0.2127  0.2197
 6951W        W22082  16.997   7.038  11.530 -0.0794 -0.0120  0.0717
 6952W        W22083   5.425   6.105   2.874  0.1460  0.1599 -0.1239
 6953W        W22084   3.670  11.389   0.400 -0.0648  0.1994  0.1333
 6954W        W22085  12.419   3.299   2.579 -0.2873 -0.2030 -0.1574
 6955W        W22086   2.056  15.453  13.355 -0.1187  0.1690 -0.1712
 6956W        W22087   1.734  11.132  14.086  0.1364 -0.1722 -0.0037
 6957W        W22088   3.707   9.102  14.025 -0.0167  0.0048 -0.2858
 6958W        W22089  14.550  16.771   5.542 -0.0282 -0.2262 -0.0283
 6959W        W22090  14.894  15.862   2.536 -0.2548  0.0702  0.0291
 6960W        W22091   4.685  11.205   0.697  0.0255 -0.1198 -0.2348
 6961W        W22092   9.230  17.811   2.808 -0.1249  0.2856  0.1654
 6962W        W22093  18.151  15.310  14.943 -0.0747  0.2944 -0.2821
 6963W        W22094   8.971  13.840   9.423  0.0345  0.2289 -0.1006
 6964W        W22095  15.102   8.387   1.744  0.0166  0.1437 -0.2474
 6965W        W22096  16.497   6.720  11.914  0.1505  0.0743  0.0668
 6966W        W22097   0.459  14.195   1.149  0.2466 -0.0505  0.0861
 6967W        W22098  12.870  12.228   1.947  0.1122  0.4214 -0.2567
 6968W        W22099   1.242   7.550  13.572  0.0456  0.0118 -0.1296
 6969W        W22100  11.915  10.403   5.675 -0.0438  0.1676 -0.0327
 6970W        W22101  13.656  16.978   1.734 -0.0009  0.0521 -0.0728
 6971W        W22102   8.444  12.926  12.123 -0.0238  0.1259 -0.1830
 6972W        W22103  11.013   4.878  15.346 -0.2664  0.0493  0.0644
 6973W        W22104   6.764  17.757   3.492  0.2154  0.2279 -0.1499
 6974W        W22105  16.110   3.397  13.986 -0.2988 -0.0256 -0.1153
 6975W        W22106   7.688   9.898  12.465 -0.1353  0.0944  0.0997
 6976W        W22107   4.495   5.296   1.054  0.2596  0.0465  0.1748
 6977W        W22108   6.721  13.351   2.521 -0.2642  0.1381  0.1200
 6978W        W22109  13.009   5.859   0.621 -0.1126 -0.0905  0.1171
 6979W        W22110  11.855   7.617   5.358  0.1050  0.1151  0.0104
 6980W        W22111  12.892   3.018   0.985 -0.1231  0.0014  0.1793
 6981W        W22112   4.229  18.437  13.113  0.3029 -0.0129 -0.0241
 6982W        W22113   5.194  16.519   0.341 -0.1796 -0.0277  0.2267
 6983W        W22114  13.686   3.779  11.593  0.0477  0.1388  0.1925
 6984W        W22115   9.511   1.764   1.121  0.1944 -0.1151 -0.1442
 6985W        W22116   0.187   2.739  14.679 -0.0575 -0.0861  0.0869
 6986W        W22117  12.293   9.806   5.180  0.2161  0.0271 -0.2037
 6987W        W22118  16.567   2.660   4.231  0.1844  0.0046 -0.1493
 6988W        W22119   5.162   4.769   0.775 -0.2026 -0.1831  0.3021
 6989W        W22120   6.518   1.454   1.151  0.2940  0.1287 -0.1147
 6990W        W22121  17.117   3.468  12.566  0.0987 -0.1816 -0.0839
 6991W        W22122   1.148  10.776   4.089 -0.1440  0.2611  0.1342
 6992W        W22123  16.553   9.406  12.689  0.1295  0.4182 -0.0959
 6993W        W22124   1.722   2.649  15.288 -0.1952 -0.2090 -0.0373
 6994W        W22125  11.816   8.692  13.226 -0.1770 -0.0280  0.1409
 6995W        W22126   9.988   1.493  12.240  0.2883 -0.3016  0.2063
 6996W        W22127   9.786  15.413  11.646 -0.2290  0.2801 -0.0383
 6997W        W22128   2.845   7.923   4.279  0.0813 -0.0654 -0.1507
 6998W        W22129   6.248   5.983  12.445 -0.0837 -0.0971  0.2390
 6999W        W22130   0.941  17.179  15.399 -0.2622  0.0163  0.1503
 7000W        W22131   5.733   7.079  14.953 -0.3458  0.0004  0.1310
 7001W        W22132   6.615   3.565   4.957 -0.0160 -0.0949  0.2400
 7002W        W22133   5.597  17.317   4.272  0.0615 -0.1524 -0.2810
 7003W        W22134  11.991  18.280  11.404  0.2349  0.1236  0.2586
 7004W        W22135   3.579   6.599  14.413 -0.2474  0.1348 -0.0429
 7005W        W22136   7.118  14.216  15.814 -0.0217 -0.2009 -0.2050
 7006W        W22137   4.734   7.048  12.015  0.0620  0.0494 -0.0138
 7007W        W22138  11.357   2.970  15.339 -0.1427 -0.2490 -0.2833
 7008W        W22139  14.495   0.417   0.868  0.0719  0.1318 -0.2373
 7009W        W22140   0.545   4.438  13.769  0.1146  0.2058 -0.1689
 7010W        W22141  11.349  18.008   4.473  0.2766  0.2242 -0.1152
 7011W        W22142  12.384   8.504   1.840  0.0135 -0.1027  0.2765
 7012W        W22143  12.491  12.179   3.256 -0.1239 -0.0338  0.2086
 7013W        W22144   4.305  16.511   3.546  0.1697 -0.4298 -0.0985
 7014W        W22145  16.429  13.216  12.124 -0.5079  0.1249 -0.2079
 7015W        W22146   7.548   9.936  13.440 -0.0206  0.0454  0.1163
 7016W        W22147  15.250  15.131   0.057  0.1131 -0.1593 -0.0260
 7017W        W22148   1.366  12.292   2.394 -0.0516 -0.1485  0.2412
 7018W        W22149   7.839   2.215   4.246  0.1863 -0.0356 -0.3028
 7019W        W22150   0.111  18.000   5.284 -0.2032  0.0044  0.1361
 7020W        W22151  16.957  17.083  15.095  0.0926 -0.0290  0.3517
 7021W        W22152   8.761  11.726  13.856  0.1511 -0.1981  0.0222
 7022W        W22153   4.423   9.580   0.703 -0.2050  0.4600  0.0928
 7023W        W22154  10.182  14.597   3.603  0.2456  0.1082 -0.0265
 7024W        W22155  11.529  10.709   0.515  0.1143 -0.0469 -0.5775
 7025W        W22156  17.366   7.829  13.249  0.4193  0.1006  0.0481
 7026W        W22157  16.846  11.649   4.023  0.2297 -0.1283  0.4540
 7027W        W22158   2.521  15.275  13.145 -0.0150  0.2053  0.0560
 7028W        W22159  17.263   6.179   4.392  0.0094  0.1003 -0.1785
 7029W        W22160  15.733   9.344   0.082 -0.2252  0.0888  0.1930
 7030W        W22161   1.467  15.618   2.289 -0.4107 -0.0544  0.2025
 7031W        W22162   1.444   2.162   2.488  0.4200 -0.3869 -0.1233
 7032W        W22163  18.198  18.542   1.033 -0.1996 -0.2145 -0.0099
 7033W        W22164  10.011  13.413   0.844  0.2460 -0.0210  0.0632
 7034W        W22165   8.929   2.113  12.777 -0.2337  0.0165 -0.1009
 7035W        W22166   5.851  10.872   0.746  0.2326  0.1646 -0.0715
 7036W        W22167   1.976   0.065  11.384 -0.1742 -0.0582 -0.0739
 7037W        W22168   6.270   8.024   0.583  0.1539  0.1382 -0.0489
 7038W        W22169  13.355   4.116   0.768 -0.3248 -0.1106 -0.0025
 7039W        W22170  14.697  15.062  14.577 -0.1426 -0.0619 -0.0584
 7040W        W22171   6.627   7.285  15.506  0.0166  0.5077 -0.0411
 7041W        W22172  10.159  14.534   4.217 -0.2134 -0.0331 -0.6212
 7042W        W22173  13.214  10.462   3.855 -0.0897  0.3393 -0.2971
 7043W        W22174   0.738  13.337  15.725 -0.2049  0.0862  0.1156
 7044W        W22175   4.923  12.018   1.245 -0.0351  0.1187  0.3303
 7045W        W22176  15.765   6.091  15.123 -0.1776  0.0327 -0.0502
 7046W        W22177  15.808  10.217   1.403  0.1513  0.2848 -0.0118
 7047W        W22178   5.192  13.018   2.456  0.0001  0.2250 -0.0973
 7048W        W22179   6.701   3.256   3.304 -0.0224 -0.0951  0.3604
 7049W        W22180  13.106  12.479   4.021 -0.0359 -0.0119 -0.2374
 7050W        W22181   9.159   9.277   2.006 -0.1335  0.3239 -0.0285
 7051W        W22182  18.558   7.709  15.126  0.0333 -0.0674  0.1080
 7052W        W22183  18.022  16.678   0.369 -0.0596 -0.0865 -0.1162
 7053W        W22184   0.235   4.803   1.630  0.1229 -0.0954  0.2146
 7054W        W22185  14.383   6.189  11.026 -0.0889 -0.0335 -0.0696
 7055W        W22186   3.437   8.659   3.824  0.0044  0.1472 -0.1928
 7056W        W22187  10.206  15.917  15.831 -0.2981 -0.1838  0.1943
 7057W        W22188   3.990   8.926  10.582 -0.5403 -0.0650 -0.0448
 7058W        W22189   6.889  16.500  15.518 -0.1544 -0.0647 -0.2712
 7059W        W22190   1.637   0.532   4.869  0.1919  0.0274 -0.1562
 7060W        W22191  11.758   7.643   0.823 -0.1661  0.1315  0.0443
 7061W        W22192  12.896  11.124   5.016  0.2146 -0.0831 -0.0746
 7062W        W22193   6.530  10.892   3.473  0.3722  0.0342 -0.0799
 7063W        W22194  18.528  14.416   0.348  0.1068 -0.0530 -0.2257
 7064W        W22195  11.527  12.407  14.145 -0.1873  0.2696  0.2743
 7065W        W22196  17.018   9.920   4.495 -0.0872 -0.1392  0.2243
 7066W        W22197  17.750   3.187  14.817  0.0102 -0.1907 -0.1269
 7067W        W22198  12.030  11.496  15.065 -0.3225  0.0068  0.0720
 7068W        W22199   6.739   8.314   2.619 -0.1810  0.1753  0.3346
 7069W        W22200  11.603  16.742   3.932 -0.0590 -0.1741  0.1478
 7070W        W22201   8.591  14.339   0.657  0.2745 -0.4704 -0.1140
 7071W        W22202  11.719  11.822  15.344  0.1456 -0.1726  0.0922
 7072W        W22203  13.642   6.616  15.940  0.1672  0.1924 -0.0509
 7073W        W22204  17.770   6.897   3.921  0.0020 -0.2370  0.0755
 7074W        W22205   6.123   7.891   3.644 -0.2263 -0.1271 -0.0857
 7075W        W22206   6.262   2.231   3.093  0.2944 -0.3855 -0.0458
 7076W        W22207   9.691  18.017   2.174  0.3599 -0.1022 -0.0455
 7077W        W22208  14.055   6.743  14.185  0.1959 -0.1589  0.0588
 7078W        W22209   2.383  11.356   0.172 -0.0345 -0.1538  0.1189
 7079W        W22210   0.164  18.086  14.171 -0.1516  0.3810 -0.2164
 7080W        W22211  15.254   8.572   5.208  0.1373  0.0094  0.3259
 7081W        W22212   3.625   5.504  15.942 -0.0742  0.0360 -0.3495
 7082W        W22213  16.509   8.649   3.352 -0.2731 -0.0449 -0.2264
 7083W        W22214  13.101   8.454  12.358 -0.1614  0.0659  0.0870
 7084W        W22215   4.407   3.107  14.742  0.0734  0.0553  0.0881
 7085W        W22216  10.819  18.319  12.191 -0.1874 -0.2277 -0.1988
 7086W        W22217   7.371   7.532   3.577  0.1487 -0.3253 -0.3023
 7087W        W22218  14.634   7.296  14.671 -0.0908  0.1735 -0.1456
 7088W        W22219   8.834  10.865  12.723 -0.2501 -0.2315 -0.3004
 7089W        W22220   8.948   7.285  14.261 -0.5188 -0.0229  0.0702
 7090W        W22221   4.972   8.175   5.262  0.3526  0.1474  0.1186
 7091W        W22222  12.967  18.401   1.290 -0.2961  0.1992  0.1505
 7092W        W22223  16.654   4.240  11.744 -0.3557 -0.1617 -0.0417
 7093W        W22224  11.388  11.733   2.099 -0.1703  0.1472  0.0468
 7094W        W22225  13.036   4.691  11.352  0.0477  0.0221  0.1379
 7095W        W22226   9.687   3.314  14.531 -0.1487 -0.4660 -0.2420
 7096W        W22227  11.865  10.488  14.096  0.3333 -0.0701  0.0861
 7097W        W22228  15.767  13.991  15.611 -0.0184 -0.1269  0.1604
 7098W        W22229  11.426  16.213   1.233 -0.2718 -0.0728  0.2762
 7099W        W22230   5.120  12.420   3.545 -0.1936  0.0913  0.3062
 7100W        W22231  18.160   8.079   0.760  0.1852 -0.1901 -0.1662
 7101W        W22232   6.554  17.160   2.271 -0.5497  0.0912 -0.3210
 7102W        W22233   8.637  10.147   3.829 -0.1164  0.0347 -0.0274
 7103W        W22234  16.751   7.609  14.600 -0.2973  0.1390  0.1655
 7104W        W22235   8.924  17.454   2.419  0.0583  0.1100  0.1665
 7105W        W22236   3.886   4.011   0.857  0.1277  0.2145  0.0197
 7106W        W22237  15.134   1.824   4.985  0.2558  0.2718  0.0273
 7107W        W22238  11.033  10.886   2.329  0.0557 -0.1188 -0.1091
 7108W        W22239   3.676   0.861  15.069  0.0551  0.1088 -0.0171
 7109W        W22240   5.185  10.703   1.978 -0.0425  0.1295  0.2813
 7110W        W22241   4.457  14.957   0.022 -0.0374 -0.0260  0.0789
 7111W        W22242   9.832  15.919   3.919  0.0677 -0.0163  0.1790
 7112W        W22243   0.739   2.763   5.992 -0.0644  0.0344  0.2535
 7113W        W22244   8.589   7.915  12.202  0.0237  0.1451 -0.0512
 7114W        W22245   3.512  12.937  11.659 -0.0440 -0.1255 -0.2472
 7115W        W22246   6.764  11.461   0.744 -0.1148  0.0555 -0.5895
 7116W        W22247   8.000   6.067  12.653  0.1675 -0.1216  0.1303
 7117W        W22248   2.424  12.651  13.791  0.2398  0.5155  0.1476
 7118W        W22249  13.174   7.801   5.270 -0.3916 -0.2338 -0.1435
 7119W        W22250   5.373   7.864   5.049 -0.3125  0.1294  0.2460
 7120W        W22251   6.921  13.712  11.048 -0.2064  0.1455 -0.0731
 7121W        W22252  13.177  14.286   4.268 -0.2748 -0.1060  0.1043
 7122W        W22253   0.857   1.716  14.371  0.1533  0.0499 -0.0469
 7123W        W22254  15.001  18.546   4.331 -0.1669 -0.1182 -0.4535
 7124W        W22255  12.810   3.796  13.235 -0.1796  0.1480  0.4744
 7125W        W22256  17.492   7.277   4.179 -0.0369 -0.0755 -0.3365
 7126W        W22257  14.339  16.148   2.078 -0.2246  0.2867  0.0385
 7127W        W22258   8.174  12.223   3.699 -0.0734 -0.0469  0.3722
 7128W        W22259   6.464  16.324   2.689 -0.1364  0.2511  0.2654
 7129W        W22260  16.627   2.973  15.172  0.0379 -0.1525 -0.1861
 7130W        W22261  14.438   4.912   0.150  0.0392 -0.1779  0.0454
 7131W        W22262   7.743  16.067   3.236 -0.0389  0.0281 -0.3344
 7132W        W22263  18.557  15.123  12.707  0.1522  0.1144 -0.1494
 7133W        W22264  11.591  10.946   3.249 -0.5480 -0.0210  0.0789
 7134W        W22265  13.178  17.085  13.582 -0.0903  0.0969 -0.0924
 7135W        W22266  16.603   0.338   3.606 -0.2400  0.1930 -0.1109
 7136W        W22267   7.904  18.054   9.356 -0.0401 -0.0283 -0.5102
 7137W        W22268  13.432   0.018  14.984  0.1212 -0.0695  0.0340
 7138W        W22269   8.182   2.355  14.544  0.3848 -0.2635 -0.0576
 7139W        W22270   6.237  16.399   2.200  0.2039  0.3351 -0.5483
 7140W        W22271  10.200  13.546  12.538 -0.2209  0.1819  0.4787
 7141W        W22272  16.159   3.026   2.097 -0.1169 -0.1168  0.2154
 7142W        W22273   7.578  12.623  11.680 -0.2574  0.4018 -0.1104
 7143W        W22274   0.337   5.842   2.277 -0.0892  0.0588 -0.0050
 7144W        W22275   0.972   4.355   2.521  0.0691  0.2630  0.2255
 7145W        W22276   7.242   7.056   5.895 -0.2894 -0.0554 -0.0000
 7146W        W22277   0.288   4.098  14.415 -0.1222  0.1592 -0.1654
 7147W        W22278   4.282  10.189   3.440 -0.5523 -0.0397 -0.0742
 7148W        W22279  16.018   6.260   1.610 -0.0644 -0.0135 -0.3053
 7149W        W22280  12.614   8.671   3.221  0.2013  0.0212 -0.1256
 7150W        W22281   9.008   5.907  11.801 -0.1552 -0.3379 -0.1712
 7151W        W22282   2.279  12.647  14.489 -0.2292  0.0789  0.1035
 7152W        W22283   1.641   1.591   2.260  0.3308  0.2552 -0.2071
 7153W        W22284   5.460   6.580   3.209 -0.1809  0.1927  0.0614
 7154W        W22285  15.009  11.043  13.748  0.0786  0.1629  0.0364
 7155W        W22286   8.936   9.280  13.506 -0.0147 -0.0095 -0.0408
 7156W        W22287  14.618   4.603  11.957  0.1236  0.1926 -0.0012
 7157W        W22288  11.533   0.885  15.034  0.0015  0.0101 -0.4253
 7158W        W22289   5.986  14.416   4.553  0.0325 -0.0640  0.0994
 7159W        W22290   3.443   8.242   3.498 -0.2033  0.0414  0.1373
 7160W        W22291   7.904  12.106  10.882  0.0313 -0.0412 -0.0130
 7161W        W22292  13.968   1.934  11.534  0.2419 -0.0180  0.3024
 7162W        W22293  12.796   1.671   5.594 -0.1564 -0.0022  0.0388
 7163W        W22294   9.273   7.522  15.668 -0.1181  0.0704  0.1043
 7164W        W22295   7.001   2.447  15.471 -0.4547 -0.2522 -0.1578
 7165W        W22296  18.039  11.313  13.258  0.3273  0.1176 -0.1700
 7166W        W22297  15.090   9.612  12.215 -0.1420 -0.0136 -0.0231
 7167W        W22298  11.083  17.005  13.682 -0.1928 -0.2400  0.1370
 7168W        W22299   9.363  17.959  14.258  0.0764 -0.1864 -0.0918
 7169W        W22300   0.120  16.170  13.575 -0.1162  0.0412  0.0456
 7170W        W22301  17.412  14.855  13.109  0.1293  0.2229 -0.0693
 7171W        W22302   6.101   5.861   4.822  0.0312 -0.2501  0.0949
 7172W        W22303  12.744  10.280   1.793  0.1613 -0.0162 -0.1620
 7173W        W22304   3.016   3.897  13.654  0.1193 -0.0232  0.1441
 7174W        W22305  12.674  10.577  10.762 -0.0637 -0.1208  0.1048
 7175W        W22306   5.538  12.938   2.829 -0.1325  0.1441 -0.0816
 7176W        W22307  11.592   4.559  10.940  0.0489  0.1466 -0.1638
 7177W        W22308   0.441   9.970  14.392 -0.1376  0.1583  0.1593
 7178W        W22309   4.006   1.967  12.417 -0.0163  0.0763  0.1615
 7179W        W22310   4.327  10.296   2.284 -0.0681  0.2664  0.0599
 7180W        W22311  15.552  17.555   3.930 -0.1225 -0.1257 -0.2256
 7181W        W22312   9.672   4.431   2.734  0.1119 -0.0450 -0.0032
 7182W        W22313   7.956  16.920  10.920  0.2492  0.3655 -0.1268
 7183W        W22314   9.324  15.219  10.335  0.1553 -0.0217  0.2680
 7184W        W22315  12.442  11.056   2.555  0.1719 -0.1891  0.4259
 7185W        W22316   9.952  15.315  15.843  0.2238  0.1034  0.1757
 7186W        W22317  13.557   5.704   1.691  0.0748 -0.0680 -0.2446
 7187W        W22318  10.128  10.294   4.081 -0.1573 -0.1195  0.0374
 7188W        W22319   7.847   2.565   5.554  0.0683 -0.3419 -0.0182
 7189W        W22320  12.291   5.471   2.612  0.1389  0.1239 -0.0671
 7190W        W22321   9.374  14.161   4.649 -0.1798  0.5124 -0.0634
 7191W        W22322  11.642  14.956  11.066  0.2913  0.3154  0.1231
 7192W        W22323   7.101   0.594  12.375  0.1409  0.0676  0.0142
 7193W        W22324   6.996   2.832   3.755 -0.0616 -0.0673  0.0932
 7194W        W22325  15.327  11.421   2.908  0.4161 -0.1057 -0.0117
 7195W        W22326   4.539  18.501   0.463  0.0459  0.2026 -0.2598
 7196W        W22327   9.040   9.393  10.653  0.1558 -0.0380  0.0335
 7197W        W22328  16.601   3.959  13.695  0.2448  0.0980  0.1998
 7198W        W22329   8.254  14.501   4.535 -0.2147 -0.1081 -0.0168
 7199W        W22330   2.236   4.934   0.976 -0.0060  0.1293  0.1613
 7200W        W22331  12.464  18.089  14.240  0.3901  0.1317  0.0791
 7201W        W22332   9.191   1.056  12.433 -0.0357 -0.3441 -0.0889
 7202W        W22333  17.816  11.535  14.826 -0.1025  0.1115  0.0823
 7203W        W22334  10.748   9.031  14.075 -0.2871 -0.0642 -0.0524
 7204W        W22335   0.912  16.523  13.057 -0.2150 -0.0053  0.2121
 7205W        W22336  11.959  11.018   3.618  0.0137  0.1467  0.0090
 7206W        W22337   6.852  10.155   1.219 -0.1382  0.0430  0.1889
 7207W        W22338   2.687  15.516   5.232 -0.1553  0.1682 -0.3265
 7208W        W22339  18.373   2.472   4.152 -0.0732  0.2653 -0.1373
 7209W        W22340  17.680   7.673   3.208  0.1860 -0.2070 -0.0088
 7210W        W22341  15.339   6.356  15.853  0.1039  0.2617  0.6822
 7211W        W22342  17.854  17.806   3.045 -0.0059 -0.1066 -0.0196
 7212W        W22343  15.794  10.529  15.250  0.1192  0.0969  0.0832
 7213W        W22344   6.233   9.457  13.242 -0.3898 -0.3239  0.0679
 7214W        W22345   3.968   4.888   2.655  0.2859  0.1286  0.0978
 7215W        W22346  12.394   6.295   3.630  0.0218 -0.3730  0.0086
 7216W        W22347  11.673  14.137   2.328 -0.0479  0.0612  0.0155
 7217W        W22348   6.844   9.624   1.990  0.0053 -0.0238 -0.2029
 7218W        W22349   2.656   7.597  13.927 -0.0644  0.0145  0.1736
 7219W        W22350   3.239   5.192   1.594  0.2519  0.0157  0.1518
 7220W        W22351   0.714  10.159   1.206  0.0721  0.0764  0.1802
 7221W        W22352  12.035   8.348  11.359  0.3270 -0.1505 -0.5648
 7222W        W22353  16.089   2.697   4.128  0.2211  0.2201  0.0004
 7223W        W22354   8.075  14.185  14.414  0.0327 -0.2237 -0.0562
 7224W        W22355   6.597  18.103  15.002  0.0528 -0.1561  0.1760
 7225W        W22356   4.273  10.633  15.681 -0.0216  0.0082 -0.0359
 7226W        W22357   9.509   1.093  15.020 -0.1698  0.1928 -0.2423
 7227W        W22358   3.707  16.148   3.984  0.2447  0.0594  0.0029
 7228W        W22359   2.810   1.399   4.058 -0.1563  0.0442  0.2774
 7229W        W22360  15.894  13.350  14.902 -0.1227 -0.0450 -0.0398
 7230W        W22361   4.584  14.061   2.085  0.1544 -0.2330 -0.1667
 7231W        W22362  10.793   1.576   1.967 -0.0599 -0.2320  0.0987
 7232W        W22363   1.872  11.716  13.690 -0.1463  0.0652 -0.3149
 7233W        W22364   9.676  14.208   1.941  0.0926 -0.1291  0.0594
 7234W        W22365  12.314   7.001  11.745 -0.1282  0.1312 -0.0062
 7235W        W22366   6.186   0.374   4.730  0.1164 -0.2438  0.1603
 7236W        W22367  16.112   8.325   2.153 -0.1003 -0.2030 -0.0072
 7237W        W22368   4.083  13.114  11.066  0.1498  0.0368  0.0955
 7238W        W22369   8.848   7.167  13.172 -0.1968 -0.1942 -0.3493
 7239W        W22370   2.411   2.927   4.998 -0.3386  0.1017  0.2678
 7240W        W22371  13.591  17.407   0.428 -0.2118  0.1772  0.0914
 7241W        W22372   1.514  13.745  12.464 -0.2761 -0.2517  0.2323
 7242W        W22373  17.352  13.552   4.699  0.0977 -0.2335 -0.1540
 7243W        W22374   7.936   6.796   0.209  0.0686 -0.1101 -0.0343
 7244W        W22375  18.451  10.569   2.794  0.0588  0.2612  0.0216
 7245W        W22376   4.269   7.706   4.299 -0.0168 -0.1272 -0.0205
 7246W        W22377  18.358   4.771  14.771 -0.5216  0.0269 -0.1048
 7247W        W22378  18.556   9.415  13.270  0.1196  0.2111  0.0969
 7248W        W22379  16.550  11.871  15.074 -0.0465  0.1534 -0.1883
 7249W        W22380   7.853  17.290   3.857  0.2605  0.2621  0.2117
 7250W        W22381   1.506   6.912   6.155 -0.2107  0.1118  0.1204
 7251W        W22382   0.634   2.326   3.730 -0.1210  0.0210 -0.1265
 7252W        W22383   3.570   5.717  14.731 -0.0079  0.0411 -0.0532
 7253W        W22384  15.865  12.253   3.062 -0.1528  0.0517  0.0378
 7254W        W22385   1.008   0.844   2.803  0.1454 -0.3739  0.3499
 7255W        W22386  12.007   1.119   1.040 -0.3747 -0.1303  0.2553
 7256W        W22387  11.050  16.718  13.218  0.2380  0.2458  0.1315
 7257W        W22388  11.520  10.046   2.401 -0.3318 -0.1143  0.0297
 7258W        W22389   8.450  12.982   4.154  0.1030 -0.2197  0.0393
 7259W        W22390  15.848  15.366   5.445 -0.2445  0.0993 -0.0816
 7260W        W22391   5.056   6.076   0.949  0.3716 -0.2253 -0.0235
 7261W        W22392  17.069   9.141   6.653  0.0433 -0.0564 -0.2451
 7262W        W22393  12.226  14.921  11.627  0.0146  0.0948 -0.0759
 7263W        W22394   8.495   2.955  15.171 -0.0905  0.5410 -0.7041
 7264W        W22395   4.329  10.974  15.077  0.0682  0.1084  0.0310
 7265W        W22396   0.637  15.230   3.040  0.1306 -0.0475  0.1824
 7266W        W22397  11.084   4.428  15.711  0.2418  0.0833 -0.0475
 7267W        W22398  18.187  14.434   0.805 -0.0101 -0.0626  0.1699
 7268W        W22399   6.901   6.481  14.551 -0.1091  0.0977  0.1161
 7269W        W22400   0.675  15.236  15.187 -0.1752 -0.0891  0.1199
 7270W        W22401   0.712   0.919   3.312 -0.2711 -0.1609  0.0990
 7271W        W22402   3.543   1.877   3.277  0.0454 -0.2032 -0.1396
 7272W        W22403   8.597  13.321   0.395  0.1349 -0.0805  0.0560
 7273W        W22404   7.212   9.933   5.468  0.0967  0.1089 -0.1134
 7274W        W22405   3.663  14.239   3.443 -0.1140  0.2242 -0.2473
 7275W        W22406   5.970  10.444  11.046  0.1649 -0.0758  0.0308
 7276W        W22407  15.338   5.158  13.544 -0.2512 -0.1890  0.0364
 7277W        W22408   5.684  11.335   0.551 -0.0462 -0.1287  0.1575
 7278W        W22409  16.774  13.508  12.714 -0.1083 -0.0247 -0.3317
 7279W        W22410   4.724  17.257   9.686 -0.1861 -0.0320 -0.1036
 7280W        W22411  14.660   9.741   5.828  0.0354  0.1130 -0.0405
 7281W        W22412   8.128   5.647  11.830  0.0960 -0.1171  0.3027
 7282W        W22413  15.943  17.546   0.713  0.2451  0.4052  0.0171
 7283W        W22414   2.684  18.536  11.885  0.1179 -0.0374  0.3688
 7284W        W22415   8.974   8.229   1.873  0.0739 -0.2491  0.0567
 7285W        W22416   6.655   2.585  15.017  0.0176  0.2096  0.2282
 7286W        W22417  14.544  18.161   5.129 -0.2872 -0.1154  0.0589
 7287W        W22418  14.539   6.737  14.284 -0.0459  0.0746 -0.2329
 7288W        W22419   8.588  14.436   4.168  0.0216 -0.1800 -0.1172
 7289W        W22420   2.168   2.275  12.867 -0.0402  0.2665  0.0040
 7290W        W22421  16.132   6.862  14.851  0.0556 -0.0776 -0.0699
 7291W        W22422   6.942  17.560  14.008  0.1423 -0.4074  0.1500
 7292W        W22423   3.312  13.313   3.825  0.0950 -0.1567 -0.0700
 7293W        W22424  18.195  12.722   3.025 -0.0480 -0.2592  0.1181
 7294W        W22425   4.610   1.152  10.351  0.1711  0.0339 -0.3484
 7295W        W22426   3.873   1.397  14.219 -0.0788  0.1988  0.3817
 7296W        W22427   6.339  10.663  13.699  0.1189 -0.3143 -0.3127
 7297W        W22428   8.249   0.836   5.342 -0.2104  0.0303 -0.0265
 7298W        W22429   2.534   1.070  14.945  0.1231  0.0891 -0.1149
 7299W        W22430   8.958   0.474  13.423 -0.6394  0.4982 -0.0233
 7300W        W22431  11.107  10.879  11.350 -0.1966  0.0081  0.1481
 7301W        W22432  16.880  11.669  14.696 -0.0760 -0.0821  0.1195
 7302W        W22433  15.967  13.388   2.372  0.0350  0.1137 -0.4428
 7303W        W22434   9.126  10.376  12.944 -0.1182  0.1200 -0.1220
 7304W        W22435   1.394   6.535  12.345 -0.2847 -0.1263 -0.0512
 7305W        W22436  11.202  14.278  11.987  0.1934 -0.1488  0.1993
 7306W        W22437  11.178   5.277  12.673 -0.2848  0.0545 -0.0834
 7307W        W22438   8.503   7.818   0.504 -0.1205 -0.0477 -0.1432
 7308W        W22439   4.108   6.625  14.162  0.1161 -0.1106  0.0700
 7309W        W22440   0.451  18.183   0.279 -0.2940 -0.1603  0.1347
 7310W        W22441   0.147  11.067   2.223  0.2452  0.1076  0.1514
 7311W        W22442   6.640   1.284   2.617  0.2976  0.1564 -0.4303
 7312W        W22443  13.663  13.708  11.028 -0.2488  0.0280 -0.0779
 7313W        W22444   1.400  10.512  15.092  0.1158 -0.1272  0.3136
 7314W        W22445   6.314  14.446   3.581  0.1076  0.0142  0.2889
 7315W        W22446   5.028   2.183   4.119  0.2031  0.0253 -0.1987
 7316W        W22447   7.790  10.990  12.644  0.0427 -0.2883 -0.0673
 7317W        W22448   0.099   3.655  14.278  0.0018  0.0283 -0.2739
 7318W        W22449  14.861  12.460  15.535 -0.1924  0.1955 -0.3078
 7319W        W22450   8.239  11.362  15.835  0.4072  0.1083  0.0667
 7320W        W22451  18.387  18.036  12.297  0.0481 -0.0424 -0.1548
 7321W        W22452   5.986   8.016  11.055 -0.0714  0.1015  0.1353
 7322W        W22453   3.952   5.086  13.814 -0.2017 -0.2532  0.1346
 7323W        W22454  14.239  11.833  15.700 -0.1435 -0.0034  0.0025
 7324W        W22455   4.497   8.737  10.735 -0.2006 -0.2445 -0.2269
 7325W        W22456   1.724   9.506  12.766  0.0739 -0.3564  0.2327
 7326W        W22457   2.558   6.250  11.247  0.1317 -0.1227  0.2506
 7327W        W22458   7.881   9.193  11.928  0.1029  0.0276  0.2031
 7328W        W22459   3.900   8.916   4.506  0.5049 -0.0802 -0.3653
 7329W        W22460   9.833  12.601   9.948  0.1152 -0.1991  0.3371
 7330W        W22461   7.603   3.185   1.944 -0.3016  0.0764 -0.2133
 7331W        W22462   6.928   1.594   2.885 -0.1852 -0.0248 -0.0123
 7332W        W22463   6.900   8.086  12.850  0.0625 -0.2713 -0.0074
 7333W        W22464   8.333   6.416  12.849 -0.2678 -0.0687  0.1922
 7334W        W22465   0.785   7.882  14.876  0.2744 -0.2219  0.1402
 7335W        W22466  16.115   3.397  14.650  0.3110 -0.2339 -0.0167
 7336W        W22467   7.881  17.383   4.821  0.1508 -0.1579  0.2111
 7337W        W22468  16.419   4.552   0.193  0.0191  0.1844  0.0123
 7338W        W22469   6.479  17.616  13.830 -0.0392 -0.1147 -0.2148
 7339W        W22470  17.776  16.463   5.427  0.0607 -0.0188 -0.0911
 7340W        W22471   6.633  12.904  10.861 -0.0819 -0.1847  0.0484
 7341W        W22472   1.522  12.922  13.979  0.0412  0.1612  0.3511
 7342W        W22473   3.884   4.989   5.856 -0.1361  0.0645  0.1065
 7343W        W22474  15.201   2.454   4.605  0.2859  0.2262  0.2604
 7344W        W22475   7.090   4.509  12.150  0.0709 -0.1065 -0.0956
 7345W        W22476   7.451  10.787   1.673  0.1094  0.4328  0.3918
 7346W        W22477   9.037   9.999   3.450  0.4358  0.2199 -0.1765
 7347W        W22478   4.165   9.960  14.971  0.1567 -0.2127  0.1402
 7348W        W22479   9.143  15.666   4.348 -0.2303  0.0843 -0.1205
 7349W        W22480   8.495   4.706   5.229  0.0567  0.0540 -0.1998
 7350W        W22481   9.057   7.879  14.323 -0.0081 -0.1868  0.2255
 7351W        W22482   9.783   8.251  15.896  0.4459 -0.4367 -0.0104
 7352W        W22483  17.557  14.910   4.575  0.3169 -0.0270 -0.1127
 7353W        W22484  15.780   1.726  15.261  0.0754 -0.2293  0.1945
 7354W        W22485  10.501   5.906   4.152 -0.1088  0.0758  0.3914
 7355W        W22486   8.102  14.287  13.081  0.1102 -0.1019  0.0811
 7356W        W22487   4.441  16.718   9.899  0.2474  0.2742 -0.1859
 7357W        W22488   7.866   1.561  11.641  0.0104  0.1322  0.2850
 7358W        W22489  14.477  11.115  13.027  0.0811  0.1071  0.0390
 7359W        W22490  16.153   6.120   4.599 -0.0442  0.2558 -0.0486
 7360W        W22491   2.079  14.962   1.893 -0.0818  0.0366  0.0714
 7361W        W22492   3.572  10.868   1.842  0.3292  0.0651  0.3148
 7362W        W22493   0.732   4.797   1.625 -0.1901 -0.4040 -0.1672
 7363W        W22494  17.084  14.151   0.622 -0.1984 -0.2681 -0.0620
 7364W        W22495  14.726   1.462  10.393  0.1960 -0.1458  0.2345
 7365W        W22496  13.443   9.461   1.124 -0.0245  0.0317 -0.1577
 7366W        W22497  16.918  13.763   4.569 -0.0604  0.0521  0.1367
 7367W        W22498  10.860   8.136  11.481 -0.3057  0.0535 -0.1399
 7368W        W22499   8.672  12.263   1.311  0.0532 -0.1524 -0.0730
 7369W        W22500   3.531  10.420   1.574  0.0646  0.4664 -0.1179
 7370W        W22501   5.026  14.071   2.427 -0.1180 -0.1102 -0.0716
 7371W        W22502   4.116   5.162  14.296 -0.0728  0.0250  0.3575
 7372W        W22503   5.825   9.866   5.048 -0.0693  0.1342  0.3050
 7373W        W22504  15.724  15.898   0.635 -0.0008 -0.1083 -0.0349
 7374W        W22505   9.470  10.422  11.317  0.2068 -0.2577  0.0643
 7375W        W22506  18.116   7.431  13.539  0.0444  0.0219 -0.0227
 7376W        W22507   6.626  12.628   5.645  0.0398 -0.1004  0.1877
 7377W        W22508   5.401   9.131   2.121 -0.2466 -0.1019 -0.2326
 7378W        W22509  18.041   3.709   3.897 -0.0294  0.0445 -0.1747
 7379W        W22510   6.299  13.301   9.912  0.0774 -0.1098 -0.0801
 7380W        W22511  11.078   0.517   5.027 -0.1922  0.2261 -0.1669
 7381W        W22512   4.545  16.307  15.776  0.2035 -0.2482 -0.2213
 7382W        W22513   1.260   3.696   3.276 -0.3185 -0.0833  0.1761
 7383W        W22514   9.823  12.503   1.581 -0.0758 -0.1637 -0.1984
 7384W        W22515  17.920  18.492  14.704  0.0655  0.2019 -0.0333
 7385W        W22516   5.802   2.297   9.408  0.1330 -0.1979 -0.1538
 7386W        W22517   1.056   8.183  13.939 -0.4223  0.0220 -0.1277
 7387W        W22518  12.789   1.460  11.275  0.0924 -0.3038  0.0595
 7388W        W22519   2.448  18.542   4.066 -0.1071 -0.2179  0.2863
 7389W        W22520   0.702  13.523   4.815  0.0333  0.1857  0.2308
 7390W        W22521   3.064   0.765  15.918 -0.0588  0.0485  0.1793
 7391W        W22522  11.670   7.165   2.117  0.4140  0.0486 -0.0588
 7392W        W22523   6.363  16.734  14.073  0.0321 -0.1132 -0.4413
 7393W        W22524   7.204  17.661  10.875 -0.1152  0.1874 -0.0763
 7394W        W22525  13.904   2.139  10.499 -0.0112  0.2773  0.0910
 7395W        W22526   5.428   5.895  12.097  0.1263  0.0062  0.0860
 7396W        W22527  17.667  15.389  10.865 -0.0540  0.2472  0.0358
 7397W        W22528  10.434   7.524   0.269  0.1431  0.0069 -0.1639
 7398W        W22529  10.879   8.375   1.709  0.1606  0.0067  0.0178
 7399W        W22530   8.578   6.388  11.014 -0.0132 -0.1739  0.2814
 7400W        W22531  12.122   2.546   0.924 -0.5151 -0.1553  0.0712
 7401W        W22532  10.414  13.789  15.922  0.1875  0.3009  0.1525
 7402W        W22533  13.172   8.547  12.839 -0.0039 -0.0707 -0.0722
 7403W        W22534  11.050  12.311  15.258  0.1026 -0.3053 -0.2737
 7404W        W22535   8.866   4.492   4.848  0.1558  0.0826  0.2272
 7405W        W22536   2.270   8.766   2.522  0.3341 -0.2424 -0.0010
 7406W        W22537  13.020   0.494   2.457 -0.0829  0.2290 -0.2270
 7407W        W22538   3.685   2.304   2.338  0.1409 -0.4448  0.0246
 7408W        W22539  17.875  17.185   3.466  0.3895 -0.1853 -0.2294
 7409W        W22540   2.544   8.151  11.344 -0.0024 -0.1684 -0.0106
 7410W        W22541   4.303  15.794   2.240  0.2698  0.0127 -0.0109
 7411W        W22542  15.931   5.490  10.103  0.4254  0.1790  0.0357
 7412W        W22543  16.632  12.904  14.686 -0.2561  0.2078 -0.1010
 7413W        W22544  18.044   3.379   0.556 -0.3156 -0.1215 -0.0140
 7414W        W22545   6.414   7.137   4.648  0.4997 -0.2056  0.6427
 7415W        W22546   1.566   5.482   5.001  0.3748 -0.1572 -0.1955
 7416W        W22547   5.244   2.247   3.638 -0.3848 -0.2377 -0.0065
 7417W        W22548   2.466   4.174   1.395 -0.2328 -0.1357 -0.1699
 7418W        W22549  17.161   3.193   1.128  0.1124  0.2476  0.2434
 7419W        W22550  11.332   8.232   2.893  0.0875  0.0604 -0.2898
 7420W        W22551   2.361  15.844   1.536 -0.0898 -0.1886 -0.1626
 7421W        W22552   3.786  17.052   1.316 -0.0594 -0.1968  0.1583
 7422W        W22553   9.993  14.070  15.250 -0.4463 -0.2711 -0.0946
 7423W        W22554   8.681   1.386  15.805 -0.3449  0.0057  0.2097
 7424W        W22555  14.368   8.649  12.683  0.1449 -0.3424  0.0846
 7425W        W22556   7.196  10.057   2.007 -0.0065 -0.0275  0.0427
 7426W        W22557  11.505   9.817   3.978 -0.0230  0.1121  0.1196
 7427W        W22558  16.409   0.158  14.349 -0.1779 -0.1296 -0.1019
 7428W        W22559  14.750   8.027   4.354  0.0872  0.4034  0.0664
 7429W        W22560   2.789  13.676   5.498 -0.3338  0.1010 -0.0743
 7430W        W22561  10.303   8.635  15.447  0.2056 -0.5238 -0.2381
 7431W        W22562   8.961   9.154   3.965 -0.2283 -0.1598 -0.0595
 7432W        W22563   3.210  14.946   1.859  0.0952  0.1297  0.1997
 7433W        W22564  16.156  15.800   3.053 -0.1010  0.0240  0.2110
 7434W        W22565  18.102   2.503   1.134 -0.2503 -0.0950 -0.2781
 7435W        W22566   3.341   4.624   0.544 -0.0281  0.1074 -0.1152
 7436W        W22567  15.877   0.294  11.132  0.0209 -0.1227  0.0375
 7437W        W22568  12.752  18.237   6.509 -0.2064 -0.4900  0.0517
 7438W        W22569  10.496  16.747  14.018  0.1751  0.3441  0.0813
 7439W        W22570   6.119  14.711  13.153  0.3017 -0.0453  0.0165
 7440W        W22571  13.043   3.335  15.662 -0.2799 -0.0419 -0.1471
 7441W        W22572   2.632  12.837   0.994 -0.1749  0.0539  0.1774
 7442W        W22573   1.263  10.706   2.265  0.0413 -0.2200  0.0121
 7443W        W22574  14.688   1.908   0.005 -0.1045 -0.3382  0.2293
 7444W        W22575   1.366  10.845   1.587 -0.0487  0.0069  0.1916
 7445W        W22576  13.019  14.795   4.585  0.4270 -0.1055  0.2857
 7446W        W22577  17.839   9.100   5.539  0.0686 -0.2281  0.0479
 7447W        W22578   6.558  13.057  14.543  0.1080  0.2647 -0.1550
 7448W        W22579   8.519   8.365   4.876  0.0323 -0.3024 -0.1374
 7449W        W22580  11.586  17.848  10.064 -0.0872  0.1716  0.0864
 7450W        W22581  16.949   4.678   4.658  0.0964  0.1812  0.0464
 7451W        W22582   8.012  18.479  10.499 -0.0286 -0.1676 -0.0644
 7452W        W22583  17.643   8.072   5.083  0.0441 -0.2972 -0.0743
 7453W        W22584  14.764  13.579  11.637 -0.0544 -0.1973  0.1043
 7454W        W22585  16.169   2.802  13.354 -0.2053  0.3993  0.2396
 7455W        W22586   5.112  15.596  13.076 -0.1015  0.0021 -0.3554
 7456W        W22587  12.584  13.112   1.220  0.2495  0.0575  0.2828
 7457W        W22588  10.644  10.324   4.918 -0.0748 -0.0611  0.2769
 7458W        W22589   5.264  17.692  13.626 -0.0165  0.1209 -0.0098
 7459W        W22590  18.429   3.122  12.859 -0.0798 -0.0945  0.0973
 7460W        W22591  11.701   0.000   4.012  0.4995 -0.0876 -0.1848
 7461W        W22592   2.505  18.528  12.860 -0.1260 -0.4508 -0.1587
 7462W        W22593   4.144  17.263  14.049 -0.1133  0.0612 -0.0553
 7463W        W22594  16.041   4.750  14.060 -0.3058  0.0776 -0.2050
 7464W        W22595  12.721   6.320   4.147  0.0081 -0.0771 -0.1098
 7465W        W22596  14.259   9.348  15.554  0.1220 -0.1909 -0.2517
 7466W        W22597  16.100  18.080   2.068  0.0034 -0.1063  0.0458
 7467W        W22598  12.844  13.323   4.806 -0.0972  0.1570 -0.1851
 7468W        W22599  12.399   4.880   1.851 -0.1796 -0.2746 -0.1213
 7469W        W22600  15.186  13.684  14.292  0.6953  0.1775 -0.1155
 7470W        W22601   2.639   6.434   1.912  0.3136  0.3060 -0.0980
 7471W        W22602   3.769  16.961  13.166 -0.0428  0.3044  0.2961
 7472W        W22603   6.593   7.905  15.672  0.0471 -0.4731  0.1082
 7473W        W22604   4.678   6.672  12.941  0.0397 -0.0187  0.0383
 7474W        W22605  16.203  14.100   1.826  0.1309 -0.2552 -0.3740
 7475W        W22606   9.822  18.016   0.798 -0.4145  0.0327  0.2439
 7476W        W22607   5.362   4.820   3.134  0.0783  0.0705 -0.0622
 7477W        W22608  12.558   6.596   3.219 -0.0922  0.1794  0.1223
 7478W        W22609   9.519   8.982   2.275 -0.1088 -0.1079 -0.1124
 7479W        W22610   4.785  16.868  11.292  0.3697 -0.0996 -0.0023
 7480W        W22611  15.223  14.617  12.272  0.3105 -0.0221 -0.2452
 7481W        W22612   5.049   7.641   2.744  0.1233 -0.0696 -0.0651
 7482W        W22613  16.950  13.943   0.158 -0.3722  0.0513  0.0986
 7483W        W22614  16.356   6.603   1.316  0.0357  0.1799 -0.1598
 7484W        W22615  16.231  18.210  10.913 -0.1296  0.2090  0.0699
 7485W        W22616   1.217  14.393   0.131  0.1506  0.0433 -0.1151
 7486W        W22617  15.678   1.544   5.723 -0.0181  0.1161 -0.0242
 7487W        W22618   7.982  13.407   2.415 -0.0194  0.4108  0.1371
 7488W        W22619   5.963   1.261   4.319 -0.3507 -0.0335 -0.1316
 7489W        W22620   9.947   6.133   2.200 -0.0285  0.1287 -0.0115
 7490W        W22621   3.716  13.479  15.496  0.0508 -0.0819 -0.0298
 7491W        W22622   9.243  14.363  10.070 -0.1991  0.1638  0.1788
 7492W        W22623  16.801   0.795   1.234  0.1818 -0.1909  0.2089
 7493W        W22624   8.863  11.865   4.257 -0.1103 -0.0080 -0.0417
 7494W        W22625  16.486   2.023  15.717  0.0712 -0.0592  0.1602
 7495W        W22626  14.059   4.291  12.383 -0.2171  0.2276  0.2441
 7496W        W22627   1.064   6.104  12.221 -0.2455 -0.1329 -0.4079
 7497W        W22628  11.189  14.717   2.288  0.1485  0.3076  0.0124
 7498W        W22629  12.815   7.796   3.855  0.4518  0.1029  0.0807
 7499W        W22630   4.094   2.921  15.107 -0.4137 -0.3313 -0.0438
 7500W        W22631   8.425   5.757  12.691  0.2298  0.0831  0.1814
 7501W        W22632  10.785  15.536  13.654 -0.3042  0.2608  0.2213
 7502W        W22633   8.064  17.378   2.439  0.1795 -0.0543  0.0578
 7503W        W22634  16.586  14.983   5.251  0.1927 -0.0733 -0.0626
 7504W        W22635   1.866  17.335   9.918  0.2484 -0.1902 -0.0350
 7505W        W22636   1.534  12.120  15.835  0.0959 -0.1906  0.0840
 7506W        W22637   7.868  13.756  12.311  0.0285 -0.0359 -0.1762
 7507W        W22638  10.412   7.298  14.236 -0.1489 -0.2648 -0.1648
 7508W        W22639  17.000   5.262  13.980 -0.1263 -0.3418  0.1076
 7509W        W22640   8.026  12.002   2.743 -0.3182 -0.2822 -0.3133
 7510W        W22641   2.140  12.380  14.079 -0.1908 -0.0127 -0.0023
 7511W        W22642  16.734   3.899   4.907 -0.1691 -0.0976  0.0160
 7512W        W22643   5.616  18.338  13.220 -0.0830  0.3169  0.1129
 7513W        W22644   3.406  11.348  14.869 -0.0298 -0.0566  0.6598
 7514W        W22645   6.514   3.179  10.495  0.0393  0.1743  0.0786
 7515W        W22646  18.020  16.758  14.849  0.0896 -0.1326 -0.4453
 7516W        W22647   9.174  16.272   1.101  0.0376 -0.3493  0.1940
 7517W        W22648  17.824   6.979   4.517  0.0716  0.0083  0.0781
 7518W        W22649   8.104   1.824   0.851 -0.0098 -0.1028  0.3129
 7519W        W22650   0.557  17.494  11.964  0.1523 -0.2347 -0.1923
 7520W        W22651   8.807  15.993   3.275 -0.1870 -0.1576  0.0077
 7521W        W22652   7.848   0.590   5.287 -0.3733 -0.1337  0.3009
 7522W        W22653  16.902  12.626  15.674  0.0124 -0.1298  0.0204
 7523W        W22654  15.163   1.031   0.367 -0.2574 -0.3895 -0.2102
 7524W        W22655   7.172  11.093   4.675 -0.3885  0.0398 -0.2824
 7525W        W22656  11.464   3.944  13.720  0.3081 -0.1483 -0.2316
 7526W        W22657   4.349  11.907   2.025 -0.0189  0.0785  0.1231
 7527W        W22658  10.099   8.355   2.868 -0.0220  0.0054  0.0783
 7528W        W22659   6.014  17.037  11.404  0.2733  0.1259  0.1614
 7529W        W22660  17.481   2.739  14.580 -0.1205  0.2781 -0.4427
 7530W        W22661  11.759  16.618   1.969 -0.0203 -0.0038  0.0774
 7531W        W22662   7.742  13.216   0.732 -0.3232 -0.0797 -0.4034
 7532W        W22663   2.255  15.929   2.031  0.0004  0.2084  0.1329
 7533W        W22664  17.906   2.635   1.564  0.1407  0.2311 -0.1117
 7534W        W22665  11.807  12.250   0.992  0.0688  0.1085 -0.3331
 7535W        W22666  16.986  13.471   3.752  0.2368 -0.0019 -0.1015
 7536W        W22667   9.025  16.361   2.554  0.1997  0.4397  0.0383
 7537W        W22668   7.347   4.408   1.844 -0.1557 -0.0099  0.1121
 7538W        W22669   9.374  15.176  12.956  0.1483 -0.1182  0.2320
 7539W        W22670   6.375   6.084  13.032 -0.2748 -0.2360 -0.0316
 7540W        W22671  15.203   7.500   3.146  0.0751  0.1007  0.2941
 7541W        W22672  15.625  10.595  11.713  0.2263 -0.0858  0.0273
 7542W        W22673  14.373   5.394  15.901 -0.0881 -0.3599 -0.2675
 7543W        W22674  10.286   4.653   5.411  0.3033 -0.2965 -0.1016
 7544W        W22675  17.011   8.065   5.751 -0.2835 -0.0029  0.2330
 7545W        W22676   3.205   4.739   1.385 -0.2752 -0.0610 -0.0240
 7546W        W22677   0.206   5.103  12.647 -0.0179 -0.0694  0.0929
 7547W        W22678   4.904  15.383   2.852 -0.1884 -0.0487  0.3687
 7548W        W22679  13.922   9.177   4.123 -0.1627  0.0709 -0.1631
 7549W        W22680  13.428  14.604   3.318  0.1883  0.1102 -0.2402
 7550W        W22681   8.265   7.184   4.244  0.0235  0.0618  0.2836
 7551W        W22682  10.633  12.492   0.136  0.2441 -0.0494 -0.0168
 7552W        W22683   6.662  13.086   4.367 -0.0560 -0.0533 -0.1575
 7553W        W22684   7.319   8.824   0.832 -0.2047  0.0547 -0.1418
 7554W        W22685   7.392  10.082   1.245  0.1563 -0.0205  0.0769
 7555W        W22686   7.379  18.475  14.159  0.0557 -0.0244  0.0532
 7556W        W22687  17.446   2.383   4.161  0.2272  0.1422 -0.1809
 7557W        W22688  15.498   4.977  14.409  0.1133 -0.4830  0.0857
 7558W        W22689   9.752   4.547  11.882 -0.1999  0.1272  0.2160
 7559W        W22690  15.906  15.366   0.014 -0.0487  0.2249  0.1375
 7560W        W22691   0.175   3.518   6.014  0.3750  0.1908 -0.0764
 7561W        W22692  15.379  14.580   4.378 -0.2245  0.0962 -0.0858
 7562W        W22693  17.896   0.473  11.250 -0.0824  0.0889 -0.0465
 7563W        W22694   0.986  17.040  12.920  0.1365 -0.0104  0.0938
 7564W        W22695   2.981  15.466  15.750  0.0291  0.3012 -0.1056
 7565W        W22696  15.938   2.414   2.765 -0.2258 -0.2711  0.3783
 7566W        W22697  17.886   0.148   1.356  0.0522  0.5870  0.1119
 7567W        W22698   3.113  17.048   2.635 -0.1505 -0.0307 -0.0878
 7568W        W22699  15.895   9.754  15.711 -0.1854 -0.2753 -0.1861
 7569W        W22700   9.418   7.307   0.105 -0.0836 -0.0220 -0.0444
 7570W        W22701   3.422  16.515   2.874  0.1238  0.2600 -0.0706
 7571W        W22702   9.953   8.961  13.840 -0.1041 -0.1060 -0.0768
 7572W        W22703   6.576   2.106  11.058 -0.2761  0.1940 -0.0029
 7573W        W22704  17.473  18.262   2.216  0.0777  0.2276 -0.2380
 7574W        W22705  11.578  15.760  11.662  0.1604 -0.1347  0.0699
 7575W        W22706   9.493   0.432  13.645  0.5016  0.0668  0.2331
 7576W        W22707  10.050   2.720  15.726  0.2621 -0.1611 -0.3425
 7577W        W22708   8.536   4.040   0.319 -0.3146  0.0200 -0.0705
 7578W        W22709  17.567   9.976   4.241 -0.2382  0.0113 -0.2827
 7579W        W22710  16.992  17.508  12.638 -0.3280 -0.0600  0.3298
 7580W        W22711  12.957  17.165   2.203  0.0130 -0.0325 -0.2704
 7581W        W22712   3.003  18.355   5.638 -0.1595 -0.1379  0.3533
 7582W        W22713   3.470  13.041   5.215 -0.0638 -0.1032  0.2826
 7583W        W22714   0.671   1.733  13.420  0.0537 -0.0650  0.1651
 7584W        W22715   6.220   2.673   2.123 -0.0828 -0.1274 -0.0036
 7585W        W22716  15.503   9.841  15.948 -0.2458 -0.1494 -0.0405
 7586W        W22717  10.885  16.112  11.108  0.0486  0.3809 -0.1098
 7587W        W22718  10.141  14.404   2.063  0.0573 -0.0482  0.1841
 7588W        W22719  16.075   1.131  12.609  0.1403  0.0637  0.0258
 7589W        W22720   5.798   5.145   0.474  0.0628  0.1086 -0.1796
 7590W        W22721  11.654   8.547  12.193 -0.2057  0.0874  0.0788
 7591W        W22722  10.280  12.380   1.196 -0.0135 -0.0059  0.2465
 7592W        W22723   6.643   0.007   1.324  0.1201  0.3477  0.1160
 7593W        W22724  13.643   8.892   4.523 -0.0353 -0.0415  0.2013
 7594W        W22725   6.395   8.238  11.516 -0.3139 -0.1205 -0.1235
 7595W        W22726   1.145  13.894   4.963  0.2874 -0.2495  0.0002
 7596W        W22727   5.338   7.116   1.933 -0.0092 -0.1020  0.2038
 7597W        W22728  16.029  15.329  11.469 -0.2155 -0.0134  0.0207
 7598W        W22729   2.179  10.524  12.057  0.0347 -0.2190  0.0131
 7599W        W22730  13.568  13.242  14.288 -0.0301 -0.2640 -0.0622
 7600W        W22731   6.233   5.255  11.831  0.0526  0.2381 -0.1629
 7601W        W22732  14.802   2.189   1.071 -0.1499 -0.2488 -0.2463
 7602W        W22733   2.942   4.711   0.848 -0.0737 -0.0059 -0.1071
 7603W        W22734  11.824   8.042  10.980  0.0441  0.1511  0.3716
 7604W        W22735   9.518   0.555  15.555  0.0362 -0.1451  0.0531
 7605W        W22736  15.827   2.457   1.201 -0.1271  0.0575  0.2225
 7606W        W22737  13.710  15.282  14.905 -0.0528  0.0060 -0.0982
 7607W        W22738  11.038   2.616   2.851  0.4465 -0.1194  0.1000
 7608W        W22739  11.842  17.859   0.584  0.0287  0.1275  0.1091
 7609W        W22740  17.002  17.922  11.321 -0.1169 -0.0341  0.1224
 7610W        W22741  17.742   0.232   6.062  0.1743  0.0163  0.0837
 7611W        W22742  16.054   4.017   2.111 -0.0064 -0.0495  0.1603
 7612W        W22743   8.822  17.638   1.892  0.0757 -0.0008  0.0702
 7613W        W22744  12.650   2.764  12.070  0.1049 -0.2790  0.0898
 7614W        W22745  18.021  11.835   4.978 -0.0567  0.4885  0.0780
 7615W        W22746   6.641   0.635   4.587  0.0844 -0.2912  0.0142
 7616W        W22747  16.450   7.386   4.644  0.1117  0.2476 -0.0694
 7617W        W22748   8.346  10.303   2.156  0.1849 -0.0821  0.0314
 7618W        W22749   9.637   7.181  12.553  0.2591 -0.2162 -0.2266
 7619W        W22750  16.941  18.162   3.790  0.4233 -0.1076  0.3175
 7620W        W22751  18.373  10.642   4.353  0.0470 -0.5763  0.1056
 7621W        W22752  14.686   8.046  11.318 -0.0410 -0.1598 -0.5989
 7622W        W22753   3.953  10.008   4.088 -0.0123  0.4667 -0.2267
 7623W        W22754   8.227   6.922  13.708  0.0617 -0.0413  0.0087
 7624W        W22755   3.352   7.646  10.619 -0.0233 -0.2623  0.0996
 7625W        W22756  14.429   4.591   6.510  0.0193 -0.2319  0.2593
 7626W        W22757   0.163   7.002   2.702 -0.0320 -0.1371 -0.0148
 7627W        W22758   9.244   5.954  12.718 -0.2684  0.1029 -0.1391
 7628W        W22759  16.446   3.148   0.374 -0.0983 -0.3840  0.0370
 7629W        W22760  11.539  15.785   4.051 -0.1946 -0.0472 -0.0509
 7630W        W22761   8.462  17.714   2.225  0.0277  0.0729  0.0833
 7631W        W22762   3.044   2.878   5.531  0.1737 -0.0477 -0.1673
 7632W        W22763   1.144  13.878   3.214  0.0963 -0.1356 -0.4382
 7633W        W22764   1.004   3.090  11.543  0.3644  0.0186 -0.0338
 7634W        W22765  13.849   6.988   1.763 -0.2545 -0.2620 -0.0858
 7635W        W22766   8.229   3.187  12.190 -0.3888  0.1893  0.2229
 7636W        W22767  14.946  13.296   4.652  0.0474 -0.0008  0.3599
 7637W        W22768  13.505  13.228  11.441 -0.0353 -0.0120 -0.4442
 7638W        W22769   8.898   7.940  15.727 -0.2066  0.1741  0.1460
 7639W        W22770   3.440   2.917  13.745 -0.1479  0.1785 -0.2200
 7640W        W22771   6.809  16.804   4.110 -0.1647  0.1313 -0.0848
 7641W        W22772   4.231  13.679   0.290  0.5464  0.1301  0.2057
 7642W        W22773   1.404  18.408   1.834  0.0550 -0.1239 -0.0235
 7643W        W22774  17.983   0.224   4.366  0.0904 -0.0452 -0.3118
 7644W        W22775   5.771   4.608   2.739 -0.2059 -0.2079 -0.1038
 7645W        W22776  10.004   0.691  12.487 -0.0539 -0.2483 -0.2336
 7646W        W22777   9.825   4.075   1.737 -0.0348  0.1534 -0.1828
 7647W        W22778  15.875   2.918  11.273 -0.1920 -0.0189 -0.3275
 7648W        W22779  16.818  17.716   4.479  0.3819 -0.3548 -0.0072
 7649W        W22780  14.316  14.909  14.263  0.0895 -0.1837 -0.0454
 7650W        W22781   2.206  16.392  11.135 -0.3267 -0.0199 -0.1021
 7651W        W22782  13.715   6.055   2.452  0.1974 -0.3543 -0.0641
 7652W        W22783   1.288   1.374  13.979 -0.0228 -0.0533  0.2570
 7653W        W22784  10.441  11.861  14.018  0.1598 -0.3441 -0.1028
 7654W        W22785   1.289  17.603   3.569 -0.2090 -0.0971  0.2871
 7655W        W22786  13.463   3.992   1.948  0.0019 -0.2397  0.0240
 7656W        W22787   5.236   2.071  12.357  0.0136 -0.0448  0.2096
 7657W        W22788  17.763  11.149   0.394  0.1409 -0.1265  0.1064
 7658W        W22789  12.468  10.547   4.055  0.1188  0.1679  0.0055
 7659W        W22790   6.476   7.738  11.816 -0.3408  0.0542  0.2950
 7660W        W22791  14.171  17.170  14.140  0.0076  0.0559  0.1452
 7661W        W22792   3.884   7.552  12.269 -0.2397  0.0051  0.1327
 7662W        W22793   5.550   3.795   1.342  0.0354 -0.0891  0.0582
 7663W        W22794  10.345  13.357  14.043 -0.0104  0.3801  0.0033
 7664W        W22795  12.753  13.605   9.417  0.1228 -0.1533  0.0255
 7665W        W22796   1.185  13.874   4.391  0.0747  0.1044 -0.0359
 7666W        W22797  15.262  17.816   2.428 -0.0284 -0.1899 -0.0205
 7667W        W22798   2.365   4.619  15.898  0.1176  0.0257  0.2198
 7668W        W22799   0.375   3.969   0.811  0.0058 -0.0587  0.2351
 7669W        W22800  11.581   2.911  12.740 -0.2161 -0.2014  0.2141
 7670W        W22801   5.857   0.958  14.049  0.0058  0.1173  0.4641
 7671W        W22802  12.662   3.240  11.829  0.1218 -0.0315  0.1213
 7672W        W22803   6.329   3.829  12.301  0.0510 -0.1202  0.0340
 7673W        W22804  16.625   8.703  14.139 -0.1335  0.2276 -0.0982
 7674W        W22805   3.159  10.331   0.314  0.3588 -0.1431 -0.0752
 7675W        W22806   6.337  16.904   9.761 -0.0926  0.3086 -0.0550
 7676W        W22807  17.440   5.948  12.725 -0.1350  0.0440 -0.0294
 7677W        W22808  13.768   8.354  13.099  0.0094 -0.0853  0.3975
 7678W        W22809   0.637  16.199   1.183 -0.0058 -0.2031  0.1111
 7679W        W22810  10.977  13.708   2.198 -0.1717 -0.2967  0.0054
 7680W        W22811   9.548  11.923  13.163 -0.2908  0.1445 -0.3754
 7681W        W22812  14.845   6.988  15.381 -0.3508  0.1290 -0.2856
 7682W        W22813  17.388  17.283  14.926  0.1851  0.1097  0.2213
 7683W        W22814   8.266   6.754   3.860  0.1660 -0.0389  0.2608
 7684W        W22815   5.995   1.761  11.975 -0.0940  0.1734  0.3014
 7685W        W22816   0.391   4.366  13.179  0.2411  0.0452  0.2090
 7686W        W22817  13.595  14.213  12.319  0.2343 -0.1246 -0.1235
 7687W        W22818  13.759  14.516  12.718  0.0180  0.1494  0.2536
 7688W        W22819  14.386  15.249  13.045  0.0276  0.0924  0.0941
 7689W        W22820   9.989   4.133  14.547 -0.0260  0.0585  0.1681
 7690W        W22821   8.151  13.957  15.287  0.0326  0.1364  0.1730
 7691W        W22822   4.642   6.535  11.041 -0.3316 -0.0966 -0.0694
 7692W        W22823   9.261   5.944   4.945 -0.0045  0.1387 -0.0703
 7693W        W22824   2.072   7.896  12.128 -0.1657 -0.0258  0.0974
 7694W        W22825   4.999   9.936   4.534 -0.1408  0.0822 -0.3120
 7695W        W22826  16.667   5.834   1.991 -0.4906  0.2015  0.0638
 7696W        W22827   8.076   4.912  15.592 -0.1007  0.0032 -0.0285
 7697W        W22828  12.472  14.035  15.675 -0.0170 -0.1340 -0.2340
 7698W        W22829   1.084  10.125  13.712  0.0609 -0.0465 -0.1396
 7699W        W22830  11.120   3.969  13.348  0.0391 -0.0334 -0.2123
 7700W        W22831  13.049  16.474   0.236  0.1040 -0.1441  0.0495
 7701W        W22832  14.034  13.382  14.479 -0.1072 -0.0693  0.0122
 7702W        W22833   9.606   1.407   5.459  0.0740 -0.1257 -0.1031
 7703W        W22834   0.024  17.277  14.476 -0.0211  0.0867  0.1562
 7704W        W22835   7.846   0.752  15.060  0.1267 -0.1045 -0.0131
 7705W        W22836   2.600   4.580   2.116  0.0910 -0.1408 -0.0207
 7706W        W22837   6.823   8.525   5.232  0.0101 -0.1749 -0.1134
 7707W        W22838   8.425   9.452  13.630  0.0380 -0.0250 -0.1598
 7708W        W22839  14.457   6.516   4.307  0.0119  0.2222  0.0581
 7709W        W22840  11.114  14.458   3.396  0.3279  0.0795  0.0627
 7710W        W22841   4.414   7.862   0.023 -0.3027  0.1454  0.2594
 7711W        W22842  17.159  14.780  14.424 -0.3525  0.1618 -0.2568
 7712W        W22843  10.750  17.793  11.256 -0.2757  0.2886 -0.4742
 7713W        W22844  12.209   5.382   1.643 -0.1808 -0.2704 -0.0400
 7714W        W22845   8.799   6.871  11.694  0.4400  0.0009 -0.0447
 7715W        W22846   0.856   6.578  11.095  0.0908  0.2063  0.1026
 7716W        W22847   9.449   6.010  15.622  0.0095 -0.3852  0.3131
 7717W        W22848   1.534   4.886  12.364 -0.1365 -0.1718  0.3000
 7718W        W22849  12.661  16.909   2.975 -0.3526 -0.1567 -0.2570
 7719W        W22850  10.302  16.799   3.734  0.0176 -0.0709  0.1549
 7720W        W22851   0.062   8.209   1.268 -0.1543 -0.0710  0.4420
 7721W        W22852   2.047   5.123  14.923 -0.1066  0.2949  0.3641
 7722W        W22853   4.000   7.294  12.657 -0.0048 -0.1842 -0.0670
 7723W        W22854   3.254  10.950  10.745 -0.0900  0.0796  0.0741
 7724W        W22855   0.694  15.899   3.694 -0.3073  0.4905 -0.0113
 7725W        W22856  10.977   2.158   5.620 -0.3809  0.2766  0.1032
 7726W        W22857   8.454   8.798  15.205  0.0004  0.0675  0.1398
 7727W        W22858  13.059   8.273  15.937 -0.1722  0.3005  0.0965
 7728W        W22859   2.328   5.320   5.567 -0.2173  0.1339 -0.2563
 7729W        W22860   8.252  16.587  15.759  0.1202  0.1952 -0.0152
 7730W        W22861   7.148   8.945  11.612  0.0821 -0.1715  0.1597
 7731W        W22862  17.606  17.994   9.952 -0.0784  0.1483  0.1707
 7732W        W22863  15.959   6.283  11.801  0.0528  0.2963 -0.0258
 7733W        W22864  14.974  16.969  10.908  0.1462  0.0579  0.2433
 7734W        W22865   8.060  12.536   0.688  0.0294  0.0380 -0.2298
 7735W        W22866   8.154  12.971  15.612  0.0958 -0.1626  0.3179
 7736W        W22867   9.459  17.938   4.584  0.0629  0.1499  0.1072
 7737W        W22868  10.711   9.511   1.104  0.0947 -0.0732  0.0214
 7738W        W22869  14.113   5.030  10.129  0.0902 -0.1883 -0.0612
 7739W        W22870  16.823   4.346  14.041 -0.0213  0.1311  0.0433
 7740W        W22871   4.797  10.494   3.474 -0.2513 -0.1039  0.3169
 7741W        W22872  10.123  11.838  12.404 -0.2990 -0.1113 -0.0349
 7742W        W22873   1.697  14.510   3.839 -0.1961 -0.0768 -0.1275
 7743W        W22874  17.430  18.224  11.922  0.0218 -0.0755 -0.3847
 7744W        W22875   9.135   3.153   1.761 -0.2253  0.1939  0.1608
 7745W        W22876  16.417  11.929   4.924  0.0934  0.2181  0.1618
 7746W        W22877   1.550   2.039   3.218 -0.1941 -0.1004  0.2635
 7747W        W22878  10.227  12.214   5.465  0.1621 -0.1555 -0.2650
 7748W        W22879  16.617   7.648   3.579 -0.1130 -0.0831  0.0087
 7749W        W22880  11.101  18.155  11.084 -0.0122  0.3221  0.2285
 7750W        W22881   3.929   5.325   0.839 -0.0991  0.1338  0.0608
 7751W        W22882   5.845  14.530  15.061  0.2921 -0.0442 -0.1597
 7752W        W22883   2.877  16.804  15.719  0.0316  0.2150 -0.1097
 7753W        W22884   6.364   9.986  12.442 -0.0625 -0.1639 -0.0952
 7754W        W22885   0.854  18.176   3.037 -0.2624  0.2517  0.0471
 7755W        W22886   0.343  15.324   2.122  0.2045  0.0955 -0.1256
 7756W        W22887   7.486   3.088   0.623  0.1103  0.1076 -0.1217
 7757W        W22888  15.056  11.644   6.204 -0.1954 -0.2366  0.0220
 7758W        W22889  13.067   3.264  10.501 -0.0918  0.0236 -0.1825
 7759W        W22890   2.666  10.089  13.815  0.0235  0.2162 -0.3455
 7760W        W22891  16.616  14.090  15.605 -0.0902  0.0603  0.1970
 7761W        W22892  17.429   4.590   4.648  0.1238 -0.1163 -0.1263
 7762W        W22893  13.036  10.411   6.248  0.3354  0.1338  0.2610
 7763W        W22894   8.377   7.164   2.451 -0.2960  0.3874  0.0791
 7764W        W22895   0.744   7.461   4.462  0.0909  0.2618 -0.0958
 7765W        W22896   0.400  17.516   1.170 -0.2047 -0.0736  0.1472
 7766W        W22897   8.972  15.663  13.827  0.0864  0.0478 -0.0274
 7767W        W22898   2.502  17.239  13.292  0.1843 -0.1935  0.1371
 7768W        W22899  11.875   1.570   3.738 -0.0316  0.0704 -0.2739
 7769W        W22900  10.696   6.359   4.311 -0.1118 -0.2375  0.2906
 7770W        W22901   4.283   9.131  10.132 -0.0692  0.0343  0.1546
 7771W        W22902   0.349  18.372   6.232 -0.4453  0.0681 -0.1506
 7772W        W22903   9.935   7.822  11.594 -0.3258 -0.2963  0.0561
 7773W        W22904  10.510   7.714  11.608  0.3549 -0.0358  0.3309
 7774W        W22905  11.859   8.963  11.776  0.0622 -0.1403 -0.0986
 7775W        W22906   1.649   6.635   4.686 -0.1528  0.4989 -0.1115
 7776W        W22907  15.337  10.166   5.390 -0.1195 -0.2066 -0.4348
 7777W        W22908   8.499   7.723   3.750  0.0458  0.1835  0.0960
 7778W        W22909   9.528   4.536  11.251 -0.0053 -0.0618 -0.0676
 7779W        W22910   5.258  12.490  11.389  0.2365 -0.0502 -0.1247
 7780W        W22911   4.939   9.004  11.686  0.0246 -0.0040  0.2554
 7781W        W22912   4.175   5.577   0.123  0.0647 -0.0772 -0.2092
 7782W        W22913  18.233   4.027  13.497  0.2186 -0.0628  0.1803
 7783W        W22914  17.556   8.580  12.128 -0.0370  0.2395 -0.4993
 7784W        W22915  16.289   9.481   1.189 -0.1965  0.0793  0.0683
 7785W        W22916   8.410   0.279   1.058 -0.4565 -0.1337  0.0386
 7786W        W22917   2.581  18.035   4.995  0.0018  0.0122 -0.1568
 7787W        W22918   4.274   4.551  14.923 -0.2138  0.0166  0.3446
 7788W        W22919   5.860   8.399   3.584  0.1519 -0.1679 -0.3237
 7789W        W22920   0.496  15.423   1.482  0.0204  0.3026  0.2128
 7790W        W22921  11.551   2.438  10.390  0.1535  0.0142 -0.1043
 7791W        W22922  18.130  12.403  15.619 -0.2813  0.2900  0.0320
 7792W        W22923  15.410  11.450  14.786  0.2336 -0.0576 -0.0634
 7793W        W22924   4.981  11.465   3.385 -0.0781 -0.2753 -0.0745
 7794W        W22925   5.734   1.851  12.631 -0.3567  0.0799  0.2485
 7795W        W22926   8.636   3.082   0.870 -0.1792  0.0238  0.0232
 7796W        W22927   6.785  16.307   1.208 -0.0736 -0.1500  0.0767
 7797W        W22928   4.224  13.698  14.255  0.2295  0.2868  0.1280
 7798W        W22929   8.781   0.992   1.121  0.0578 -0.0516  0.0612
 7799W        W22930  15.530  14.499   2.878  0.0286  0.2093  0.2283
 7800W        W22931   2.940  16.226   3.938  0.1737  0.1787  0.0306
 7801W        W22932  11.920   4.419   3.670 -0.2021 -0.2484  0.0918
 7802W        W22933  15.806  10.955  13.437  0.2315 -0.1432 -0.1545
 7803W        W22934  11.745   7.526  11.044  0.0864 -0.3375 -0.1977
 7804W        W22935  10.456  15.449   3.727  0.2179  0.1712 -0.2986
 7805W        W22936  13.210   1.835  13.921 -0.0923 -0.1852 -0.1773
 7806W        W22937  15.891   8.582  15.189 -0.1951 -0.0149 -0.0303
 7807W        W22938  11.393  18.302  14.335  0.0096 -0.1030 -0.1995
 7808W        W22939  11.313  16.391   0.590 -0.1590 -0.1731  0.0637
 7809W        W22940   5.598   0.682  14.758  0.0572 -0.1281 -0.2368
 7810W        W22941   6.183   8.546   1.018 -0.2662  0.1786 -0.1915
 7811W        W22942   8.337  15.049  15.465  0.2143  0.0782  0.0562
 7812W        W22943  17.220   2.664  13.530  0.2356 -0.0397  0.0415
 7813W        W22944  16.080  16.721   5.129 -0.0257 -0.0044 -0.1042
 7814W        W22945   4.625   3.391   5.946 -0.1583 -0.1699  0.2063
 7815W        W22946  17.005   1.076   3.074 -0.1655 -0.1654  0.0386
 7816W        W22947   7.436   9.447  12.301 -0.0019  0.5677  0.0549
 7817W        W22948   9.346  11.746  14.780 -0.3991 -0.0260 -0.0888
 7818W        W22949   5.382  11.183   1.583 -0.1262  0.0964 -0.2848
 7819W        W22950  11.055   2.286  10.336 -0.2437 -0.1536 -0.0543
 7820W        W22951   8.868   3.252  11.334 -0.1118  0.1702 -0.1121
 7821W        W22952   5.740   1.619  13.088  0.3564 -0.1499 -0.6953
 7822W        W22953   7.321   9.847   0.804 -0.0026  0.0351 -0.2732
 7823W        W22954  13.101   5.902   0.013  0.0538 -0.1480  0.0897
 7824W        W22955  12.451   0.300  15.876 -0.1972  0.0872  0.2884
 7825W        W22956   2.612   4.574  12.021  0.0323 -0.1995  0.1440
 7826W        W22957  10.903  17.713   2.110  0.3089  0.0522 -0.0552
 7827W        W22958   7.555   0.275  15.489  0.1739 -0.2236  0.0494
 7828W        W22959   9.990  12.525   5.026  0.1683  0.0594 -0.0288
 7829W        W22960   0.948  13.644   9.718 -0.1939  0.0128 -0.1310
 7830W        W22961   0.892  14.674   3.781 -0.3235  0.0918  0.2881
 7831W        W22962   5.098  13.234  11.073 -0.0420  0.1443  0.4310
 7832W        W22963   0.784  11.039  11.942  0.1441  0.0756  0.4044
 7833W        W22964  17.926   7.078   5.904  0.1036 -0.1176  0.2510
 7834W        W22965   4.887  11.009   2.273  0.0084  0.1790  0.0079
 7835W        W22966   6.750   3.740  13.310 -0.0722  0.0250  0.2294
 7836W        W22967  17.707   0.858   6.112 -0.1144  0.2316  0.0872
 7837W        W22968   7.523   3.268  15.528 -0.0001  0.1581 -0.1347
 7838W        W22969   1.976   0.375   2.848  0.1862  0.1865  0.0188
 7839W        W22970   2.360   2.054   5.520 -0.0571  0.2267  0.1212
 7840W        W22971  12.815   6.033   3.669  0.1674 -0.1712 -0.1708
 7841W        W22972   7.959   9.640  13.079 -0.0062 -0.1253  0.0029
 7842W        W22973   9.242   5.143   4.294  0.2756 -0.0367 -0.1486
 7843W        W22974  11.146   2.108  11.240 -0.2229 -0.0268  0.2807
 7844W        W22975  13.487  12.684   0.029  0.1076  0.0917 -0.0194
 7845W        W22976   1.762   4.878   4.291 -0.3667 -0.0781  0.0220
 7846W        W22977   2.282   9.954  15.375 -0.0369  0.2226 -0.1146
 7847W        W22978  16.063  18.125  11.399  0.1454  0.0699 -0.0112
 7848W        W22979  11.507  10.271   3.319  0.3832 -0.1712  0.4381
 7849W        W22980   2.367   5.602   2.423 -0.1727  0.0969  0.0916
 7850W        W22981  13.023   3.008  15.228  0.1922  0.1740  0.3224
 7851W        W22982  18.285   6.266  13.975  0.0850 -0.0817 -0.1249
 7852W        W22983  15.301  11.524   4.906  0.0167 -0.3284  0.1279
 7853W        W22984  10.636  10.967   3.132 -0.1020 -0.1327  0.4794
 7854W        W22985  14.550   6.590   0.884  0.5531  0.1496  0.0639
 7855W        W22986  12.039  11.215  11.433 -0.0485 -0.1158 -0.0104
 7856W        W22987  13.342   5.586   2.209  0.0731 -0.0450  0.0331
 7857W        W22988  16.673   2.369   3.589  0.0123 -0.2919  0.1244
 7858W        W22989   7.559   4.856  15.611 -0.0491 -0.1535  0.0441
 7859W        W22990   7.795   3.322   4.721  0.1867  0.1459 -0.1187
 7860W        W22991   5.531   4.851  13.680  0.0763 -0.2614 -0.2053
 7861W        W22992  17.605  16.786  11.256 -0.1611  0.2795  0.0683
 7862W        W22993   1.686  17.927   3.835 -0.5966  0.1314 -0.2962
 7863W        W22994  14.871  12.879  13.906 -0.1368  0.2760 -0.0650
 7864W        W22995   3.943   2.460   9.845 -0.0167  0.0060 -0.1776
 7865W        W22996  12.012   2.986   1.078  0.2282  0.1267 -0.1937
 7866W        W22997   4.345  15.278   4.310  0.0367  0.1950  0.1955
 7867W        W22998  15.728   8.055  15.226 -0.0946  0.0532  0.3359
 7868W        W22999  14.872   6.491  15.699  0.1348  0.1741 -0.2323
 7869W        W23000   8.970   5.707   5.340 -0.3293 -0.1092 -0.0566
 7870W        W23001  17.930  18.375   3.348 -0.1527 -0.1502  0.0145
 7871W        W23002  16.624  12.846  10.302 -0.2544  0.0676 -0.0750
 7872W        W23003  15.146   1.141   1.718  0.4061  0.0321 -0.0104
 7873W        W23004   1.736  16.952  11.247  0.2520  0.2228  0.0883
 7874W        W23005  17.841   8.302   3.364  0.0153 -0.0541 -0.2394
 7875W        W23006  10.792  11.298  12.104  0.2363 -0.2922 -0.2031
 7876W        W23007   0.880   1.005   1.820 -0.1384 -0.1951  0.1016
 7877W        W23008   9.744  14.988   4.616  0.0309  0.1804  0.1958
 7878W        W23009  13.509   3.356  10.770 -0.0636  0.1648 -0.0390
 7879W        W23010   7.700   8.750   5.225 -0.1162  0.1697  0.4555
 7880W        W23011  12.073   3.651   3.194  0.1985  0.0410  0.0677
 7881W        W23012   0.839  14.723   2.465 -0.3828  0.1605  0.2615
 7882W        W23013   3.182  17.795   2.568 -0.2684 -0.0884 -0.0025
 7883W        W23014  11.679   5.869   3.940  0.2308 -0.2614  0.2358
 7884W        W23015   1.007   5.654   0.746  0.1492  0.2658  0.2328
 7885W        W23016  17.459  17.310  11.008 -0.1742 -0.0425 -0.0804
 7886W        W23017   4.338   3.912  13.402  0.0815 -0.1462 -0.1942
 7887W        W23018  14.690  13.052  11.540  0.1260 -0.0433 -0.0934
 7888W        W23019  15.740  10.855   1.629  0.1258  0.2296  0.1453
 7889W        W23020   8.907   2.782  15.454 -0.0694  0.1515 -0.3128
 7890W        W23021   2.390   8.702   9.821 -0.3659 -0.0035 -0.0552
 7891W        W23022  17.973   2.217  13.483 -0.2282  0.3843  0.2904
 7892W        W23023   5.978   8.367  14.603 -0.0309  0.2466  0.0430
 7893W        W23024   7.205   2.873  13.183  0.3971  0.0823  0.2454
 7894W        W23025  10.163   5.118   3.173  0.0158  0.3284 -0.2832
 7895W        W23026   6.800  18.063   2.544  0.1337  0.2882 -0.1740
 7896W        W23027   7.453   8.800   2.883  0.1357 -0.0774 -0.0542
 7897W        W23028  10.072  12.174   3.529  0.0468  0.0152 -0.3040
 7898W        W23029   6.487   2.265  13.297 -0.1559  0.2691 -0.0095
 7899W        W23030   0.324   2.514   4.133  0.0952 -0.0341 -0.2529
 7900W        W23031   3.920  17.117   1.814  0.1896  0.3229  0.5023
 7901W        W23032  16.451   8.333   1.411  0.2018 -0.0700  0.0812
 7902W        W23033   3.653  12.830  13.384  0.0543  0.1406 -0.1825
 7903W        W23034  14.837   9.252  12.466 -0.0891  0.0118  0.0312
 7904W        W23035   4.098  14.847   1.207 -0.0583 -0.3724 -0.0355
 7905W        W23036  17.443   5.260   2.497  0.0822 -0.0150 -0.1609
 7906W        W23037  10.912   8.800   4.559  0.0531  0.2426 -0.0080
 7907W        W23038  15.150   9.356  13.177  0.2995  0.0305 -0.2815
 7908W        W23039  17.627  14.775  12.615  0.1566  0.2770 -0.1084
 7909W        W23040   7.066   8.686  11.154 -0.3697 -0.1451  0.1034
 7910W        W23041   7.388   8.971   3.436  0.0151  0.1961 -0.1031
 7911W        W23042   3.221  10.187   3.423 -0.1658  0.1634 -0.3271
 7912W        W23043   3.398  14.326  15.637 -0.3067 -0.0725 -0.2848
 7913W        W23044  15.184  15.365   2.372 -0.0084  0.1309  0.0395
 7914W        W23045  14.240   6.774   4.698  0.0558  0.2137  0.0230
 7915W        W23046  14.611   5.231   6.070  0.4146  0.1405 -0.2587
 7916W        W23047   7.329  10.966   3.076 -0.1508 -0.1200  0.0880
 7917W        W23048   9.135  16.244  13.123  0.2471 -0.1262 -0.0613
 7918W        W23049  12.928  12.154  12.583 -0.2219  0.0131 -0.0389
 7919W        W23050   1.866   5.796   3.411  0.1249 -0.0627  0.2324
 7920W        W23051  15.041  13.014   3.622  0.2535  0.0389  0.2999
 7921W        W23052  12.273  17.156   2.684 -0.1782  0.2790 -0.2091
 7922W        W23053   5.521  18.114  11.169 -0.0219 -0.2853  0.0998
 7923W        W23054   5.142   0.303  12.191  0.2128  0.3785 -0.0675
 7924W        W23055   2.070   1.611  11.478  0.2006 -0.1654  0.2477
 7925W        W23056  16.034   9.180   0.441 -0.3106  0.0955  0.2172
 7926W        W23057  15.859  10.714  13.008  0.0045 -0.0265 -0.0939
 7927W        W23058  15.195   9.037  14.785  0.0531  0.4372  0.1531
 7928W        W23059   2.504  12.877  14.897 -0.2467  0.3523 -0.2301
 7929W        W23060  11.671  15.462   1.635 -0.2440  0.2107 -0.3399
 7930W        W23061   0.276  10.811   3.084  0.0875 -0.1655 -0.1996
 7931W        W23062  11.034   9.365  15.488  0.4102 -0.2942  0.3597
 7932W        W23063   6.590   3.383  13.779 -0.1774  0.0814 -0.1344
 7933W        W23064  16.697   0.384  13.391  0.2198 -0.1761 -0.1796
 7934W        W23065  15.266  11.609  11.524 -0.4137 -0.1583 -0.1656
 7935W        W23066   1.260  13.231  14.343  0.0333  0.0013  0.2228
 7936W        W23067   6.410   2.299   0.787 -0.0439  0.1932  0.2736
 7937W        W23068  10.481   5.857  14.649 -0.1895  0.3745 -0.5500
 7938W        W23069   1.979  17.950  15.930 -0.0703  0.0703 -0.1862
 7939W        W23070   9.447  17.461  14.292 -0.0292  0.1273  0.1158
 7940W        W23071  10.301   0.665   1.936 -0.1569  0.0135 -0.3715
 7941W        W23072   3.281   0.305  14.032  0.1899  0.1096  0.0498
 7942W        W23073  14.774   5.391  13.116 -0.1069 -0.1787  0.1372
 7943W        W23074   0.478  15.808   0.179  0.0405  0.0420  0.0535
 7944W        W23075  11.934   7.322  11.530  0.3531  0.0872  0.0127
 7945W        W23076  11.048  16.591   3.928 -0.1730 -0.0157 -0.1788
 7946W        W23077   5.355   5.453   4.625  0.4072 -0.0744  0.0641
 7947W        W23078   1.498   6.049   3.899 -0.6286  0.0371  0.0938
 7948W        W23079  17.357  12.486  11.282 -0.1865  0.0486 -0.0410
 7949W        W23080  11.984  16.095  11.603 -0.1870  0.2303 -0.2340
 7950W        W23081  15.198   5.181   4.511 -0.3063 -0.1653  0.4107
 7951W        W23082   7.215   1.087  13.565 -0.0233  0.1465  0.0788
 7952W        W23083   6.409  18.253   2.922 -0.2663  0.1419 -0.2829
 7953W        W23084   5.930  14.530  10.279  0.2160  0.2576 -0.0187
 7954W        W23085  13.929  11.343   0.945 -0.0917  0.1027 -0.0704
 7955W        W23086  17.391  14.367   0.990  0.0242  0.4646 -0.0364
 7956W        W23087  11.793  11.573   0.438  0.1581  0.3683  0.0280
 7957W        W23088  16.629  15.455  10.625  0.1599  0.2312  0.2243
 7958W        W23089  14.393   0.436  13.119 -0.1429  0.0533 -0.1003
 7959W        W23090   5.773   3.165  12.120  0.3744  0.2248  0.2557
 7960W        W23091   4.829  14.011  13.142 -0.0831  0.1420 -0.3252
 7961W        W23092  11.492   5.741  12.895  0.1071  0.0961 -0.1109
 7962W        W23093  11.709   6.954  12.995  0.1097  0.3069 -0.1667
 7963W        W23094   0.800  11.108   5.390  0.1169 -0.3298  0.1089
 7964W        W23095   3.815   9.169   5.559 -0.3753  0.3553 -0.3517
 7965W        W23096   2.394  18.309  11.501 -0.1110 -0.0416 -0.0418
 7966W        W23097   7.494  18.170  11.686 -0.0290 -0.3673  0.1515
 7967W        W23098  15.990   3.836   1.379  0.0136 -0.0139 -0.1400
 7968W        W23099  16.092  12.216   4.713  0.3087 -0.0690  0.1646
 7969W        W23100  13.118   1.059  11.294  0.0392  0.1304  0.1175
 7970W        W23101   9.574  13.562  13.798  0.0461  0.0796 -0.0204
 7971W        W23102  16.247   7.691   3.194  0.0797 -0.1794 -0.1635
 7972W        W23103   5.408  16.815   9.905 -0.1689  0.2169 -0.5714
 7973W        W23104   7.132  15.517  11.195 -0.2355  0.0374 -0.0541
 7974W        W23105  18.519  14.964   2.263 -0.0210 -0.1344 -0.0896
 7975W        W23106   0.878   3.020   0.967  0.2685 -0.1299 -0.0056
 7976W        W23107   8.548  17.721  10.870  0.3134  0.3159 -0.2566
 7977W        W23108   1.743   2.174  12.374  0.3184  0.0656 -0.3306
 7978W        W23109   2.750   1.194   2.022 -0.1481  0.0558 -0.0157
 7979W        W23110  13.423  17.425   1.240  0.1006  0.1565  0.3741
 7980W        W23111  11.895  15.379   0.261 -0.1124 -0.1672  0.1314
 7981W        W23112  16.667   6.826   6.138  0.0414  0.1758 -0.1510
 7982W        W23113   6.995  17.280  12.199 -0.0607 -0.0048  0.0576
 7983W        W23114  10.162   1.168   4.770  0.2752  0.1493 -0.1736
 7984W        W23115   6.919  10.065   4.177  0.2016  0.0300  0.2559
 7985W        W23116   5.869  10.759  10.177  0.1015 -0.1901 -0.1682
 7986W        W23117   4.786  12.651   1.195 -0.0672  0.3372  0.0559
 7987W        W23118   4.599   1.096  11.602 -0.0034 -0.1942  0.0326
 7988W        W23119  15.714  17.771   2.062  0.1789  0.1756  0.1096
 7989W        W23120  15.205  10.948   3.205  0.0155 -0.1346 -0.1678
 7990W        W23121  12.650  10.878   4.448 -0.0334  0.1134 -0.0687
 7991W        W23122  12.831   0.438   5.161 -0.1270 -0.0170 -0.4223
 7992W        W23123  10.499   8.757   2.690  0.0626  0.0982 -0.0531
 7993W        W23124   3.107   7.886  13.965  0.1509  0.2110  0.2587
 7994W        W23125  13.574  11.985  14.928  0.0321 -0.0950  0.0188
 7995W        W23126  10.246  16.114  10.824  0.0281  0.0365 -0.1738
 7996W        W23127  14.825  13.778   2.840 -0.0929 -0.0208 -0.0395
 7997W        W23128  18.138  17.581  13.598 -0.0063 -0.1142 -0.1050
 7998W        W23129   2.244   4.395  13.357 -0.1925 -0.2856 -0.2439
 7999W        W23130  16.512  18.002   3.119 -0.1691 -0.0665  0.1578
 8000W        W23131  10.641   7.058   2.952 -0.1525  0.0435 -0.0537
 8001W        W23132   0.787   5.373   1.813 -0.0882 -0.1835  0.1043
 8002W        W23133   9.910   1.039  11.465  0.1887 -0.3899  0.1292
 8003W        W23134  17.956   5.344   4.157 -0.2490 -0.1106 -0.1935
 8004W        W23135   6.674   2.713   1.833  0.0974 -0.2347 -0.2307
 8005W        W23136   6.576  12.451  12.617  0.0281 -0.1661  0.0664
 8006W        W23137   5.825  15.014  10.543  0.2040  0.3997 -0.2822
 8007W        W23138  15.580   7.659  12.065  0.0061  0.2509 -0.1221
 8008W        W23139  12.777  13.226   3.392  0.1473 -0.0292  0.1292
 8009W        W23140   5.045   8.746  12.242 -0.0400  0.0734 -0.0511
 8010W        W23141  10.019   8.531   4.639  0.5471  0.0280 -0.2674
 8011W        W23142  16.149   1.577   1.556 -0.0321 -0.5763 -0.0300
 8012W        W23143   5.589   9.778  12.085  0.3398  0.0367 -0.0925
 8013W        W23144  17.616   9.907   6.789 -0.1105 -0.0759 -0.2183
 8014W        W23145  14.334  10.547   1.255  0.2394  0.2172  0.2250
 8015W        W23146  16.502  15.609  10.111  0.1286  0.1855 -0.1801
 8016W        W23147  11.622  14.531   3.667  0.2284  0.1618 -0.0257
 8017W        W23148  17.005   6.876  13.818 -0.0322  0.2396  0.1099
 8018W        W23149   9.492  10.791  12.106 -0.2666  0.1564 -0.1343
 8019W        W23150  14.923  10.250   3.139 -0.1110  0.4102  0.0441
 8020W        W23151  16.623  17.434   0.196  0.0756  0.2584  0.1264
 8021W        W23152  15.781  17.978   0.749  0.0206 -0.0527  0.2263
 8022W        W23153  13.140   6.758   5.502  0.1243 -0.1161 -0.0171
 8023W        W23154  12.183   7.227  12.225  0.3854 -0.0839 -0.2096
 8024W        W23155   7.318  14.779   3.555 -0.2531  0.3889  0.0663
 8025W        W23156  10.092  12.221  11.895  0.2110 -0.2101  0.1317
 8026W        W23157   2.277   7.849  15.014  0.0340  0.1238 -0.0545
 8027W        W23158  17.654   4.473   1.964  0.0104 -0.1127  0.0033
 8028W        W23159  16.764  16.619   3.163  0.0443 -0.1513 -0.0803
 8029W        W23160  12.820   6.270  15.569 -0.0865  0.1182  0.3769
 8030W        W23161  12.895   8.614  15.502 -0.1012 -0.1027 -0.2923
 8031W        W23162  12.412   7.959  15.941 -0.0536  0.3553 -0.2205
 8032W        W23163  13.917  17.595   3.070 -0.1023 -0.3046 -0.1835
 8033W        W23164   2.870  14.822  12.339 -0.3368  0.3050 -0.0455
 8034W        W23165  10.572   4.344   2.161 -0.1997 -0.3206 -0.0356
 8035W        W23166  18.504  17.503   0.246 -0.3398 -0.0859 -0.1555
 8036W        W23167  13.232  16.964  11.374  0.0763  0.2053 -0.1345
 8037W        W23168   6.013   8.839  10.713 -0.0485  0.2320  0.1397
 8038W        W23169  13.509   8.435   4.153 -0.0545  0.1188 -0.3390
 8039W        W23170  14.111  10.352   4.482  0.2024 -0.3744 -0.2903
 8040W        W23171  17.662   7.211   2.756  0.2025  0.0181  0.2532
 8041W        W23172  11.546  15.272  12.096  0.0712  0.3476  0.2971
 8042W        W23173   5.737  10.122   5.455  0.0005  0.0130 -0.0344
 8043W        W23174   6.004   6.219  15.129  0.1589 -0.1527 -0.0976
 8044W        W23175  10.727  17.260   1.487  0.2386  0.0218 -0.4178
 8045W        W23176  18.324  13.021  12.829  0.0398 -0.4904  0.0283
 8046W        W23177  15.449   2.299   0.502  0.1787  0.0859 -0.2023
 8047W        W23178   6.561  14.664  15.076  0.3471  0.0419 -0.0136
 8048W        W23179   2.707   3.033  13.605  0.0941  0.3153 -0.1001
 8049W        W23180  15.815   0.202   4.391  0.3025 -0.0450 -0.0052
 8050W        W23181  18.375   7.143   4.512  0.1153 -0.2682 -0.2789
 8051W        W23182  15.339   5.542   1.497 -0.1185 -0.2440  0.1767
 8052W        W23183   7.886   8.173  13.163  0.1395  0.2008  0.4598
 8053W        W23184  13.636  13.341  12.805  0.1113  0.0179 -0.3006
 8054W        W23185  12.691  16.844   5.126 -0.1574 -0.0966 -0.1179
 8055W        W23186  13.817  10.547   2.427  0.0977  0.1728 -0.3805
 8056W        W23187   9.962  16.926   3.464 -0.1306  0.0051 -0.0389
 8057W        W23188   5.000   9.429  12.744  0.0666  0.0650  0.0615
 8058W        W23189  12.255   5.265  13.679  0.1392  0.0323 -0.0231
 8059W        W23190   8.905   6.229  14.845 -0.0484 -0.1768 -0.0341
 8060W        W23191   4.205   6.069  14.036 -0.3274  0.1672 -0.4135
 8061W        W23192   2.485   1.979  13.524 -0.0838  0.1181  0.0317
 8062W        W23193   5.360  18.272   0.126  0.2639  0.0763  0.0479
 8063W        W23194  16.188   1.283  13.681 -0.0147 -0.2815  0.0534
 8064W        W23195  13.730  12.119   0.043  0.2787 -0.0085 -0.0590
 8065W        W23196  14.905  16.115  13.510  0.2470  0.1106  0.1746
 8066W        W23197   2.682  11.931   3.767 -0.2923  0.0415  0.0774
 8067W        W23198  17.988   1.085  15.908 -0.0925  0.2979 -0.2521
 8068W        W23199  18.153  12.268   2.816  0.2258  0.2450  0.1695
 8069W        W23200  12.250  17.822   4.264 -0.0407 -0.1900 -0.2543
 8070W        W23201  15.970   2.913  14.121  0.2962 -0.3229  0.0405
 8071W        W23202   7.971   9.305   9.921  0.1839  0.2218 -0.1544
 8072W        W23203   6.833   4.556   1.362 -0.2367  0.1163 -0.1174
 8073W        W23204   3.145  10.584   5.062 -0.0390  0.0148 -0.0587
 8074W        W23205  17.217   3.999  13.962 -0.2391 -0.2710 -0.1225
 8075W        W23206   3.835   3.867   3.323 -0.0119 -0.0669  0.0273
 8076W        W23207  10.636   5.090   3.337  0.0358 -0.3268 -0.3019
 8077W        W23208  14.409   4.763  14.749  0.2945 -0.0091 -0.1119
 8078W        W23209   2.977  10.218   0.904 -0.1139 -0.0370  0.3037
 8079W        W23210  18.304   4.857   2.514 -0.0945  0.2757 -0.0551
 8080W        W23211  13.713   5.744  13.079  0.1672  0.2792  0.2440
 8081W        W23212   5.593  15.636   0.708 -0.1439  0.0871  0.1347
 8082W        W23213   1.397  12.671  15.559 -0.2410  0.1687  0.3977
 8083W        W23214   1.211   2.489  13.794  0.1115 -0.1032 -0.0577
 8084W        W23215   3.365  18.038  15.529  0.0082  0.0002 -0.1331
 8085W        W23216  14.368   2.244   6.228 -0.2004  0.0935 -0.1358
 8086W        W23217  15.145   5.269  14.043  0.1732  0.0414  0.1210
 8087W        W23218  12.653   3.269  12.460  0.5015  0.0002 -0.0825
 8088W        W23219  16.985   0.615   3.284 -0.0389 -0.1397  0.0708
 8089W        W23220  11.878  18.229  12.090  0.1379  0.0438  0.0006
 8090W        W23221  16.582   4.966  14.566  0.0312  0.0406  0.0453
 8091W        W23222   2.847  10.453  14.679  0.3136 -0.1614  0.1002
 8092W        W23223   9.638   4.211   3.207  0.0455 -0.1844 -0.2663
 8093W        W23224   7.432  11.189   3.785  0.1726  0.1358  0.4723
 8094W        W23225  14.632   8.159  15.070 -0.2106 -0.1482 -0.0532
 8095W        W23226   9.678  11.295  14.172 -0.5089  0.0641 -0.0690
 8096W        W23227   2.057  12.824   2.365 -0.0842 -0.2280 -0.2099
 8097W        W23228  16.884   5.315   5.066 -0.6872 -0.0183  0.2602
 8098W        W23229   4.043   3.290  14.289  0.0362  0.3878 -0.1601
 8099W        W23230  17.034   1.428  14.570 -0.1256 -0.0094  0.2732
 8100W        W23231   6.912   3.932   4.736 -0.0717 -0.0334 -0.0602
 8101W        W23232   5.725   3.615   4.914  0.3261  0.0473  0.1803
 8102W        W23233  15.992  14.025  11.215  0.1125  0.1107 -0.1918
 8103W        W23234   2.324   7.390   3.566  0.1671 -0.0480 -0.1183
 8104W        W23235   2.948   5.116  11.267  0.0262  0.1467 -0.1497
 8105W        W23236   4.114   0.905  10.673  0.2012  0.1195  0.3426
 8106W        W23237   5.957  11.230  13.585  0.5438 -0.1927  0.3229
 8107W        W23238   9.281   5.257  14.680 -0.1460 -0.0123  0.1636
 8108W        W23239   7.246  16.263   3.447  0.3837  0.1310  0.0715
 8109W        W23240   9.539   6.545  13.433  0.4391 -0.2014  0.2344
 8110W        W23241  13.912   3.097  10.690 -0.0015 -0.1343 -0.2160
 8111W        W23242   9.237  12.007  15.519  0.0290  0.0044 -0.1370
 8112W        W23243  17.175   4.778   5.187 -0.0201  0.3261 -0.3104
 8113W        W23244   6.589   9.766  12.949 -0.1659  0.0245  0.0381
 8114W        W23245   1.742   5.964   0.073  0.2425 -0.1620 -0.0380
 8115W        W23246   1.250   4.438   4.049 -0.1602 -0.1543 -0.1096
 8116W        W23247   0.128  13.175   0.079  0.1833 -0.0619 -0.2882
 8117W        W23248  12.788   7.953  11.556  0.3746 -0.1729  0.0273
 8118W        W23249  12.900  17.183   1.317  0.2170 -0.0868  0.3687
 8119W        W23250  13.087   3.027  12.658 -0.1753  0.1665 -0.0103
 8120W        W23251   7.399  16.167   4.575  0.0086  0.1925 -0.1328
 8121W        W23252   1.710   1.769  11.811 -0.0958 -0.1975  0.2695
 8122W        W23253  11.767   4.248  11.335 -0.1281  0.1740  0.1158
 8123W        W23254  15.432  10.457   4.411 -0.2663  0.1180  0.2942
 8124W        W23255   7.381  13.445  14.473 -0.0008 -0.0224 -0.3426
 8125W        W23256  12.598  12.720   3.111  0.0715 -0.0564 -0.1534
 8126W        W23257   5.691   0.244   2.377  0.1933 -0.0842 -0.3481
 8127W        W23258  16.089  15.188  14.565 -0.2726  0.1259  0.1238
 8128W        W23259  15.423  12.583   5.659 -0.0494 -0.0227 -0.2129
 8129W        W23260  13.894  15.240   4.683 -0.0418 -0.1382  0.0869
 8130W        W23261   4.993  17.930   9.996 -0.0337 -0.0198  0.0980
 8131W        W23262   8.931   8.423   4.062 -0.2109  0.0210  0.1863
 8132W        W23263   8.430  10.179   0.619  0.3682  0.0635 -0.1978
 8133W        W23264  14.089   6.862   6.139  0.0939  0.1503  0.0038
 8134W        W23265   8.978  15.832   1.332 -0.1844 -0.1341 -0.0762
 8135W        W23266  15.687   6.074  14.616 -0.3024  0.0595 -0.1261
 8136W        W23267   7.169  10.608  14.597  0.3550  0.2330  0.1360
 8137W        W23268  13.557   2.193  15.240 -0.1472  0.0172  0.0329
 8138W        W23269   6.390  10.180   3.032 -0.0394  0.1321 -0.0353
 8139W        W23270   0.061   5.847  11.951 -0.0754  0.1009 -0.0422
 8140W        W23271   1.083   9.145  14.654 -0.2315  0.0869  0.0282
 8141W        W23272  13.638   7.908   3.975  0.0915  0.0214 -0.0728
 8142W        W23273  17.913  12.579   0.547 -0.0977 -0.2837 -0.1201
 8143W        W23274  13.906  17.732   2.269 -0.1260  0.0685 -0.2226
 8144W        W23275  15.090  13.679   3.330  0.1491 -0.2770  0.0060
 8145W        W23276   0.615   8.737   0.165 -0.0809 -0.1011 -0.2421
 8146W        W23277   6.391  15.119   4.064 -0.0099  0.0722 -0.0166
 8147W        W23278   8.144   1.501   3.086 -0.4116  0.0633 -0.0139
 8148W        W23279   8.165  17.347  14.589  0.1567 -0.1117  0.0300
 8149W        W23280  13.208   8.615   1.914  0.2253  0.0620 -0.0690
 8150W        W23281   3.687   5.220   1.895  0.0183 -0.1879  0.1527
 8151W        W23282  16.695  11.464   4.941  0.0484  0.0538 -0.1713
 8152W        W23283   9.703  11.158   4.354  0.1972  0.3978  0.0398
 8153W        W23284  13.600  11.364  12.474 -0.0328  0.3658 -0.2139
 8154W        W23285   0.543  17.311   1.984  0.1076 -0.1774  0.1466
 8155W        W23286   1.526  16.811   4.228 -0.1504 -0.2587  0.1727
 8156W        W23287  16.671   7.677  12.127 -0.4910  0.3916 -0.1195
 8157W        W23288   7.090   9.016   0.450 -0.1092 -0.1287 -0.1928
 8158W        W23289  14.281  13.080   4.200 -0.1392 -0.3980 -0.3173
 8159W        W23290  18.425  17.277   3.725  0.1811 -0.0948 -0.1316
 8160W        W23291  16.621   2.298   1.298 -0.1462  0.0083 -0.2094
 8161W        W23292  10.593  14.178  12.029 -0.0057  0.2534  0.0987
 8162W        W23293  16.785  12.610  10.764 -0.3539 -0.2353  0.4602
 8163W        W23294  17.996   5.738   2.870 -0.0412  0.4032  0.2415
 8164W        W23295  13.786   1.974   1.523  0.1954 -0.4767  0.1462
 8165W        W23296  14.245  18.516   4.867 -0.1228  0.0674 -0.0937
 8166W        W23297   1.595   0.077  14.943  0.0465 -0.1441  0.2888
 8167W        W23298  15.608   8.490   2.769  0.1262 -0.1559  0.2751
 8168W        W23299  10.543   6.728   4.046  0.0771 -0.0154 -0.0884
 8169W        W23300   9.734  18.096  10.943  0.1763  0.1888 -0.1771
 8170W        W23301  11.708  10.145  15.156 -0.0279  0.0096 -0.1357
 8171W        W23302  16.569  13.655  15.848 -0.0014 -0.0901 -0.1024
 8172W        W23303   3.829   4.774   3.407 -0.2882  0.0796 -0.2865
 8173W        W23304  12.219   3.031  13.466 -0.0801  0.1811  0.3360
 8174W        W23305  15.843   0.334   4.894  0.0785 -0.0058  0.0034
 8175W        W23306  11.404  17.115  14.881 -0.2677  0.1432  0.1534
 8176W        W23307  12.927  10.477   4.265  0.1863 -0.2996 -0.0187
 8177W        W23308   8.459  16.316   1.861  0.3724  0.0894 -0.0973
 8178W        W23309  16.533   4.791  11.340  0.1933  0.0444  0.2929
 8179W        W23310   7.213  18.245   0.551 -0.1374  0.0683  0.3249
 8180W        W23311  13.991   0.060  14.164 -0.3367 -0.0355 -0.0458
 8181W        W23312   8.485  11.083  10.510 -0.1662  0.1577  0.1176
 8182W        W23313   4.378   4.265   0.927 -0.4625  0.1106 -0.0449
 8183W        W23314  11.876   0.858  13.169 -0.3230 -0.0682  0.0610
 8184W        W23315  11.431  18.100  13.007  0.4338 -0.1353  0.0148
 8185W        W23316  15.570   6.582  12.594  0.2233  0.1756 -0.4917
 8186W        W23317  17.428   0.563   2.302 -0.0049  0.1450  0.1218
 8187W        W23318   2.023  13.970  10.769  0.3679  0.0537 -0.4061
 8188W        W23319  15.203   6.851   2.610 -0.1359 -0.0518  0.2065
 8189W        W23320  16.216   1.613   5.607 -0.3956  0.3557 -0.2145
 8190W        W23321  10.109   0.125  13.055  0.0384 -0.2855  0.4220
 8191W        W23322   4.913  18.008  10.919  0.1722 -0.2483 -0.3899
 8192W        W23323   0.640  14.289  12.570 -0.0957 -0.2499  0.2667
 8193W        W23324   5.997  17.082   0.148 -0.4124  0.0285 -0.0767
 8194W        W23325   1.107  10.725  12.206  0.0608 -0.3262 -0.0972
 8195W        W23326   6.847   4.682  13.200 -0.0535 -0.2204 -0.5207
 8196W        W23327   7.939  16.037  11.584 -0.1001 -0.1397  0.1832
 8197W        W23328  10.371   4.193   2.576 -0.1091 -0.0512 -0.0779
 8198W        W23329   9.652  11.811   2.091 -0.3741 -0.2980 -0.0440
 8199W        W23330   9.273   0.822   1.026  0.4656 -0.0940  0.0848
 8200W        W23331  16.063  13.355   5.415  0.2306 -0.0882 -0.1225
 8201W        W23332  10.146  14.939  10.760 -0.0618 -0.1373  0.0066
 8202W        W23333  10.963  11.875  13.174 -0.1973  0.1157  0.3371
 8203W        W23334  13.579   7.641  11.800  0.0397  0.0068  0.0792
 8204W        W23335  10.702   8.067  14.570 -0.1233 -0.2388 -0.1400
 8205W        W23336  13.069   8.621   1.439 -0.1830  0.2204 -0.1313
 8206W        W23337   6.776  13.730   2.891  0.0550  0.2862  0.0085
 8207W        W23338  13.094   3.540  11.698 -0.2345  0.1133 -0.0198
 8208W        W23339  14.525   4.600   4.116 -0.0560 -0.0006  0.0337
 8209W        W23340  13.545  14.496   4.537  0.1246 -0.3055  0.0355
 8210W        W23341   1.833  10.061  15.531  0.0498 -0.0679 -0.1277
 8211W        W23342  11.133   4.785  11.006  0.1564 -0.1005  0.0272
 8212W        W23343  17.591  15.126  15.726 -0.0268  0.1739 -0.2635
 8213W        W23344  10.545   5.333  14.498 -0.0318 -0.3584 -0.0399
 8214W        W23345  17.657  11.218  15.784 -0.1020  0.0079 -0.0141
 8215W        W23346  17.054   5.011  15.443  0.1950  0.1333  0.2737
 8216W        W23347  10.723   9.887  13.812 -0.1379 -0.1557  0.2434
 8217W        W23348  12.259   3.543  11.893 -0.0112  0.0648  0.1661
 8218W        W23349   1.940   3.284  14.529  0.2399 -0.3144  0.4482
 8219W        W23350  16.364   0.691   6.599 -0.0770 -0.0258 -0.0545
 8220W        W23351  14.128  15.524   4.363 -0.0577 -0.0741  0.1647
 8221W        W23352  13.468  17.457  14.853 -0.0479  0.0181 -0.1645
 8222W        W23353   7.918   4.667   3.730 -0.0814  0.1875  0.2283
 8223W        W23354   9.240  17.726  13.807  0.0266  0.3731  0.0103
 8224W        W23355  13.317  10.229  11.605 -0.1558 -0.0683 -0.0416
 8225W        W23356   8.725   4.989   4.735 -0.0836 -0.2757 -0.1041
 8226W        W23357   2.463   4.144   0.399 -0.0329 -0.0550  0.0531
 8227W        W23358   0.513   4.653   5.070  0.1694  0.1561  0.0239
 8228W        W23359  13.662   3.018   2.020 -0.0084 -0.1895 -0.0391
 8229W        W23360   2.758   6.436  14.058  0.2141 -0.0392 -0.1577
 8230W        W23361   3.973   2.463   3.097  0.3008 -0.6623  0.0450
 8231W        W23362  17.113  14.253  15.102  0.3535 -0.2507 -0.1567
 8232W        W23363   8.594   5.687  12.154  0.1010  0.1147 -0.1719
 8233W        W23364  15.948   6.848   3.399 -0.6686 -0.1524  0.1487
 8234W        W23365  16.173   8.985  13.200  0.1201 -0.2291  0.1490
 8235W        W23366   9.343  14.291  15.029  0.1526 -0.0050 -0.0837
 8236W        W23367  15.733  16.719   3.999 -0.1669 -0.2151  0.2024
 8237W        W23368  16.456  12.254   3.457 -0.2078 -0.2394 -0.2785
 8238W        W23369  12.595  17.602   0.850 -0.1019 -0.0866  0.4734
 8239W        W23370  14.587  17.327  14.541  0.1670 -0.0069 -0.0787
 8240W        W23371  12.530  13.211  11.926  0.0821 -0.1935 -0.0016
 8241W        W23372   8.322   9.635   4.916 -0.1218  0.1390 -0.2096
 8242W        W23373  16.396   2.507   0.172  0.4678  0.1082 -0.1129
 8243W        W23374  17.668   3.764   5.441  0.2449  0.0318 -0.2954
 8244W        W23375   7.230   3.649   1.772  0.0786 -0.0562  0.0565
 8245W        W23376   2.131   0.356   0.115  0.1188 -0.3056 -0.1999
 8246W        W23377   2.195   9.182   0.573 -0.0416 -0.0601 -0.0910
 8247W        W23378  16.452  12.684   1.368 -0.0594 -0.0613 -0.0216
 8248W        W23379   2.629   6.432  15.624 -0.1459  0.1066 -0.2608
 8249W        W23380   0.188  10.649   3.938  0.1182 -0.2386 -0.0047
 8250W        W23381  11.771   0.791  10.273 -0.3600  0.0386  0.2796
 8251W        W23382   2.170   5.196   0.507 -0.1189  0.0781 -0.2955
 8252W        W23383   4.684  16.456   3.878  0.2072  0.4618 -0.0049
 8253W        W23384   0.556   7.238   5.873  0.2708  0.0472  0.0625
 8254W        W23385   5.646  16.848  11.613 -0.0608  0.0810  0.1383
 8255W        W23386   0.774   1.269   0.417 -0.1722  0.0478 -0.0294
 8256W        W23387  14.990  12.788  12.264 -0.0732 -0.0256 -0.0179
 8257W        W23388  16.290   3.592   0.932  0.0728 -0.3050 -0.0082
 8258W        W23389   8.998   2.210   1.535 -0.1193  0.1804 -0.0313
 8259W        W23390  12.954   3.995   1.125 -0.3319  0.0218 -0.0501
 8260W        W23391   5.407  14.864  14.358  0.2468  0.0446  0.1140
 8261W        W23392  14.460   0.448   4.938  0.4197  0.1054 -0.3001
 8262W        W23393  13.608   7.542  15.850 -0.2051 -0.1829  0.1163
 8263W        W23394  14.713   9.798  12.551  0.0582 -0.1946  0.1222
 8264W        W23395  12.582   5.756   4.957  0.0760 -0.1494  0.0583
 8265W        W23396  11.434   3.423  11.208 -0.1733  0.4635 -0.2044
 8266W        W23397   7.454   7.455  11.640 -0.0997  0.1731  0.1315
 8267W        W23398   2.293  18.504  13.366  0.0351 -0.1455 -0.1174
 8268W        W23399  10.011   4.277   4.541 -0.1454 -0.1318  0.3894
 8269W        W23400   8.275   0.386   4.277 -0.2705 -0.0839 -0.0586
 8270W        W23401   2.902   6.784   4.379  0.1605 -0.2284  0.1218
 8271W        W23402   0.097   1.284   4.268 -0.2023  0.1060 -0.2852
 8272W        W23403   2.214   2.520  10.962  0.3066  0.0995  0.2829
 8273W        W23404   4.629  16.172   2.737 -0.2832 -0.0351 -0.0435
 8274W        W23405   8.853   6.926   5.901  0.1075 -0.1105 -0.0532
 8275W        W23406  10.380   7.147  10.160  0.0973  0.0395  0.3243
 8276W        W23407   4.168  14.894  12.701  0.0130  0.1263 -0.3005
 8277W        W23408  10.491  16.003  12.617 -0.0678 -0.1579 -0.1725
 8278W        W23409   5.296  18.489   2.183 -0.1122  0.4141 -0.0801
 8279W        W23410   1.163   6.515   1.008  0.0684  0.0556  0.0046
 8280W        W23411   8.697  17.421   4.031  0.1878  0.0184 -0.0778
 8281W        W23412  11.300   7.122  14.282  0.1828 -0.3700 -0.0787
 8282W        W23413  16.124  15.122  12.446 -0.3435 -0.0258 -0.0330
 8283W        W23414   8.208  10.127  12.810 -0.1496  0.3193  0.2132
 8284W        W23415   8.028   8.207  15.939 -0.0109  0.1941  0.0830
 8285W        W23416  15.503   3.519  11.674 -0.0402 -0.0530  0.3539
 8286W        W23417  12.181   0.721   9.414 -0.1329 -0.0658  0.1651
 8287W        W23418   6.122   5.547   0.512 -0.4858 -0.1899 -0.0256
 8288W        W23419   2.893  17.520  12.108 -0.2263 -0.2931 -0.2166
 8289W        W23420   9.532   1.465  14.371  0.5084  0.2255 -0.2272
 8290W        W23421  15.881  10.457   2.934 -0.0930 -0.2962 -0.1050
 8291W        W23422   1.183  18.392  14.968  0.1590  0.0776 -0.1250
 8292W        W23423  10.515  14.382   2.401 -0.1465 -0.3449 -0.2004
 8293W        W23424  15.760   0.991   4.903  0.2952  0.2690 -0.1622
 8294W        W23425  15.684   6.218  11.232 -0.0944  0.1700  0.1826
 8295W        W23426  16.863   5.363  14.534 -0.0856  0.0185 -0.0752
 8296W        W23427   0.479   8.580  12.639  0.1600 -0.3342 -0.1170
 8297W        W23428   1.526   1.875   6.063 -0.1186  0.3183 -0.0555
 8298W        W23429   8.647   5.779   0.106 -0.0009 -0.1395  0.1975
 8299W        W23430   8.098  15.336   0.494  0.0368 -0.0429 -0.2189
 8300W        W23431  10.831   1.580  13.617  0.0467  0.1061  0.2513
 8301W        W23432  13.023   2.577  12.324 -0.1605  0.3042 -0.0098
 8302W        W23433   7.769  14.194  14.947 -0.2118  0.2605 -0.0587
 8303W        W23434   6.422  12.072   2.306 -0.0855  0.2775 -0.3620
 8304W        W23435   6.823   5.189  14.428 -0.2760 -0.0448 -0.2650
 8305W        W23436  13.172   1.479  10.193 -0.1393  0.0930 -0.0914
 8306W        W23437  13.330  11.559  12.976  0.1903 -0.0143  0.0458
 8307W        W23438   1.483   8.739   0.699 -0.0431 -0.1219  0.0845
 8308W        W23439   8.728  15.644  14.803 -0.1226  0.3373 -0.0522
 8309W        W23440   8.289   4.589   2.739  0.1470  0.0603 -0.0661
 8310W        W23441  10.746  17.283   1.973  0.0984 -0.0719 -0.0473
 8311W        W23442  13.760  11.403  12.014  0.0569 -0.1334  0.1130
 8312W        W23443   4.209   0.107  15.296  0.0012  0.0082 -0.2473
 8313W        W23444   6.267  14.326  15.269 -0.0782  0.2351 -0.0703
 8314W        W23445  11.748   4.496  14.940 -0.1270  0.0520  0.2411
 8315W        W23446  12.512   4.386   1.844 -0.1207 -0.0405 -0.1364
 8316W        W23447   5.067  11.943  12.471  0.1304 -0.1858  0.1944
 8317W        W23448  16.821  12.620   6.100 -0.2570 -0.0835 -0.0792
 8318W        W23449   1.650  17.376   5.373  0.0364 -0.0169 -0.3202
 8319W        W23450   8.446   1.250   4.277 -0.1753 -0.0107  0.0620
 8320W        W23451   6.019   2.580  13.045  0.3515  0.1674  0.2324
 8321W        W23452  13.464  12.139   5.293  0.2310  0.2497  0.0520
 8322W        W23453  15.090   1.676  13.773  0.1801  0.2152  0.2216
 8323W        W23454   9.442  16.395  11.726  0.2735 -0.2025  0.0781
 8324W        W23455   2.759  15.833  14.356  0.0242 -0.2450  0.3436
 8325W        W23456   5.999   6.498  14.236 -0.2142  0.1110  0.1144
 8326W        W23457   3.807   7.381   4.866 -0.2226  0.2001 -0.2398
 8327W        W23458  13.916  16.828   4.715  0.0420 -0.2516 -0.2384
 8328W        W23459  10.428   4.344   1.159  0.0875 -0.1503  0.2552
 8329W        W23460   1.287   6.513  13.264 -0.1478 -0.0356  0.0541
 8330W        W23461   0.686   5.909  12.998  0.3039 -0.0996  0.0624
 8331W        W23462  12.275  15.165  12.505  0.4490  0.4090 -0.0268
 8332W        W23463  11.643  11.693   2.637 -0.0375  0.4758  0.4128
 8333W        W23464   2.998  13.924   1.726  0.0684  0.1776  0.2305
 8334W        W23465   5.632   5.902   1.974  0.1113 -0.0752  0.0638
 8335W        W23466   6.257   7.426   1.967 -0.0349  0.2750 -0.1002
 8336W        W23467   7.485   8.512   0.502 -0.0859  0.0130  0.0834
 8337W        W23468  11.220   6.493  11.332  0.2475  0.0206 -0.2839
 8338W        W23469  16.254   5.226   5.023 -0.1390 -0.0901 -0.1686
 8339W        W23470  17.420   0.151  14.671 -0.2154  0.0238  0.2816
 8340W        W23471   8.871  18.485  14.736  0.1422 -0.2118  0.1825
 8341W        W23472   4.306   3.098   5.170 -0.1816  0.3800 -0.0434
 8342W        W23473  13.998   4.497  11.247  0.0944  0.1184 -0.0249
 8343W        W23474   6.066  11.075   0.316 -0.0885  0.0561  0.1885
 8344W        W23475  17.403   6.200   0.946  0.3762 -0.0037  0.1175
 8345W        W23476  12.085   5.103   2.878  0.1449 -0.2187  0.0985
 8346W        W23477   5.277   6.422   5.045  0.0601 -0.0259  0.0615
 8347W        W23478  18.244   2.078  14.896  0.1061 -0.1958 -0.2448
 8348W        W23479  12.542  16.777  15.732  0.1021 -0.2922  0.1564
 8349W        W23480  17.340  10.480  15.618 -0.0055  0.1058  0.3059
 8350W        W23481  12.025  13.325   3.529 -0.0952  0.0319 -0.0901
 8351W        W23482  17.285  11.406  12.264  0.0055  0.3084 -0.5206
 8352W        W23483  12.495  12.866   2.691  0.2718  0.0357 -0.0701
 8353W        W23484  18.525   5.987  15.673 -0.1954  0.0307 -0.1466
 8354W        W23485  13.210   3.891  11.346 -0.2015  0.3863 -0.3450
 8355W        W23486   6.512  11.920   4.048 -0.0842  0.1894  0.0469
 8356W        W23487  17.203  18.309   0.688  0.0125 -0.0977 -0.2016
 8357W        W23488   2.929  18.341  15.646  0.0369 -0.0764  0.1781
 8358W        W23489  11.611   6.098  12.083  0.1483 -0.0985  0.2265
 8359W        W23490   7.958  13.010  11.857 -0.1238 -0.0079  0.2463
 8360W        W23491  15.704  13.050  13.844  0.1100 -0.0938 -0.1023
 8361W        W23492  14.564  11.260   6.160  0.2127 -0.1039 -0.1886
 8362W        W23493   5.023  16.577  15.383  0.1759 -0.1794 -0.0756
 8363W        W23494   9.014   6.594  12.482 -0.3642  0.0878 -0.0016
 8364W        W23495   0.084  11.294   3.828  0.1637  0.0548 -0.2623
 8365W        W23496  12.333  16.516   4.272  0.0563  0.0657 -0.0455
 8366W        W23497   5.854   4.632   4.284 -0.2728 -0.0092  0.0599
 8367W        W23498  14.935   3.576  10.913 -0.1404  0.0828 -0.1367
 8368W        W23499   9.518  17.994  11.513  0.0832 -0.1790  0.3059
 8369W        W23500  15.370  13.267  14.868  0.0877  0.1315  0.3129
 8370W        W23501   2.534  11.742  12.844 -0.2207 -0.1446  0.1597
 8371W        W23502   4.076   9.747   2.525 -0.3123  0.2747  0.0096
 8372W        W23503   4.356   8.956   4.796  0.1470 -0.2507  0.2003
 8373W        W23504  12.883   9.538  14.357 -0.1270 -0.0467 -0.2361
 8374W        W23505  12.161   1.198  13.973 -0.4347 -0.2394 -0.1414
 8375W        W23506   5.885  10.874  10.828  0.2408  0.0660  0.1172
 8376W        W23507   0.120  16.184   1.032 -0.0163  0.2505  0.1206
 8377W        W23508  14.547  16.312  12.250  0.1804 -0.0858 -0.0688
 8378W        W23509   7.284  11.845  11.527 -0.1004  0.1424 -0.0028
 8379W        W23510  11.178  14.647   0.191 -0.1548  0.2216 -0.0818
 8380W        W23511   1.585  14.813  11.182  0.0334  0.1413  0.0450
 8381W        W23512  14.072   4.886  10.964  0.0618 -0.0475  0.3136
 8382W        W23513   6.939   4.466  13.827 -0.2352  0.2402  0.0399
 8383W        W23514  14.646  14.511  11.806  0.0471  0.1192 -0.1956
 8384W        W23515  17.421  12.285   3.322  0.0985  0.0551 -0.1250
 8385W        W23516   9.730   5.862   1.003 -0.1566 -0.0233  0.2074
 8386W        W23517   5.849   6.315  12.452  0.2199 -0.0864  0.3770
 8387W        W23518   1.652   2.202   4.124  0.0824 -0.0917  0.3547
 8388W        W23519   1.849  14.417  12.969 -0.1649  0.2313  0.0428
 8389W        W23520  13.261  13.019   4.719 -0.1337  0.2305 -0.1929
 8390W        W23521   1.019   5.510   4.441 -0.0186  0.0531  0.3891
 8391W        W23522  17.223   5.086   4.723 -0.5773 -0.1299  0.3112
 8392W        W23523  15.513  13.175   2.180  0.3159  0.0256 -0.4877
 8393W        W23524   1.055   6.612   4.724 -0.1817 -0.0853  0.1325
 8394W        W23525   3.130  13.039  14.391  0.0893  0.4285  0.4241
 8395W        W23526   0.858  12.131   3.059  0.1208 -0.0325  0.2015
 8396W        W23527  14.273  14.337  12.712 -0.3737  0.2175 -0.0478
 8397W        W23528  11.572   7.904   4.576 -0.1526 -0.1697  0.1257
 8398W        W23529   5.903   9.274  10.387  0.1619  0.0215  0.4501
 8399W        W23530   4.368   4.256  14.319 -0.2252 -0.1239  0.2047
 8400W        W23531  16.904   6.006   2.701 -0.3544  0.1159  0.0704
 8401W        W23532  14.224  17.925  13.900  0.0736  0.1680  0.1942
 8402W        W23533   8.727  11.594   0.562 -0.0103  0.1010  0.2172
 8403W        W23534  18.003  18.047  14.543  0.3941  0.0426 -0.0924
 8404W        W23535  10.860   3.303  10.265 -0.0648 -0.1607 -0.3108
 8405W        W23536   1.165  13.388  11.517  0.2500 -0.2356 -0.0893
 8406W        W23537   0.091   3.873   3.111  0.2082  0.0681 -0.3511
 8407W        W23538  17.743   5.776   0.978 -0.0586 -0.0184 -0.2193
 8408W        W23539   5.136   1.333  14.208 -0.2153  0.0212  0.0514
 8409W        W23540   1.162   5.888   4.728 -0.0646 -0.0064  0.3736
 8410W        W23541   9.090   1.314   3.386  0.0572 -0.1058  0.3557
 8411W        W23542  15.775   6.804   5.587 -0.2667  0.1535  0.1395
 8412W        W23543  16.318   1.807  12.988  0.1245 -0.2882  0.2341
 8413W        W23544   9.841  11.448   0.338 -0.1338  0.1171 -0.0508
 8414W        W23545   2.977   6.370  14.764  0.0431  0.0253 -0.0898
 8415W        W23546   3.390   1.239  12.865 -0.0778 -0.1114  0.1255
 8416W        W23547   6.929   7.969  14.896  0.2234  0.1331 -0.0437
 8417W        W23548  13.553   7.403   4.857 -0.0621  0.0032 -0.2627
 8418W        W23549   2.388   9.364  10.595 -0.3420 -0.0402  0.0644
 8419W        W23550   8.336   0.504   0.366  0.1317  0.0550  0.0380
 8420W        W23551   0.321   0.305  12.147  0.0411  0.0803 -0.2717
 8421W        W23552  15.593  13.592   1.825 -0.1138  0.2933 -0.1695
 8422W        W23553   7.221   8.315   0.145  0.1334 -0.2918 -0.0171
 8423W        W23554  13.253   8.189   1.113  0.3864 -0.3573 -0.3870
 8424W        W23555  16.302  16.002   0.515  0.2260  0.0351 -0.0163
 8425W        W23556  11.012  16.968   3.304 -0.0570 -0.2431 -0.0349
 8426W        W23557   3.784  16.201  12.621  0.0109  0.0757 -0.0986
 8427W        W23558  16.573   6.634   5.209  0.0056 -0.1655 -0.0119
 8428W        W23559   6.087   9.532   3.737  0.0392  0.2114  0.1054
 8429W        W23560  15.923  14.884  11.718  0.0508 -0.1903  0.1318
 8430W        W23561  18.312   8.802  10.903  0.0520 -0.2013 -0.2403
 8431W        W23562  12.342  10.828  14.604  0.2340 -0.3463 -0.2123
 8432W        W23563   8.021  14.164   0.368 -0.1392 -0.2614  0.0924
 8433W        W23564  17.571   5.075   5.137 -0.1232  0.2098  0.3060
 8434W        W23565   1.646   5.479   0.069 -0.1840 -0.1132  0.3234
 8435W        W23566  10.460   4.311   3.094  0.1313 -0.2375  0.0079
 8436W        W23567   6.342   7.386   3.307 -0.2564 -0.1663 -0.2360
 8437W        W23568   0.078  12.621   4.611 -0.1739 -0.0711  0.0696
 8438W        W23569   7.618   9.110   0.365 -0.1423 -0.0803 -0.2437
 8439W        W23570  11.249  17.826  14.514  0.1599 -0.1924 -0.1086
 8440W        W23571   1.140  17.427  15.831 -0.4821 -0.2364 -0.2502
 8441W        W23572   6.709  18.173  10.419 -0.0155 -0.2813  0.1756
 8442W        W23573   9.242   1.528  15.794  0.1658 -0.1228  0.1676
 8443W        W23574  11.956   4.681   1.973 -0.2798 -0.1142 -0.1589
 8444W        W23575   4.881   5.675  12.898  0.0276 -0.1309  0.0502
 8445W        W23576  11.395  15.903   0.831 -0.0039 -0.2586 -0.4289
 8446W        W23577  11.990  12.033   3.874 -0.1831 -0.1050 -0.2968
 8447W        W23578   3.312   8.186  12.044 -0.1009  0.3729  0.0917
 8448W        W23579  15.475   8.737  15.627  0.2431  0.3072 -0.0174
 8449W        W23580  10.159  16.235  13.340  0.3354  0.1238  0.0697
 8450W        W23581   9.259   9.486  11.793  0.2809  0.0894 -0.1574
 8451W        W23582  13.048  11.202   2.192 -0.1863  0.1594  0.1152
 8452W        W23583  13.101   5.202   4.820  0.0340 -0.0890  0.1385
 8453W        W23584  14.980   5.944   2.909 -0.0761  0.1325 -0.1107
 8454W        W23585   1.522  16.971   1.602  0.0259  0.0012 -0.3128
 8455W        W23586   8.495   6.318   4.615  0.3074  0.0124 -0.1743
 8456W        W23587   8.724   8.329   3.029 -0.1834 -0.2624  0.2095
 8457W        W23588   9.072   0.975  13.757 -0.1737  0.1648 -0.0970
 8458W        W23589   3.874   4.154   0.210  0.1809  0.0148  0.2048
 8459W        W23590   3.366  16.118   3.575  0.3719  0.3567 -0.0226
 8460W        W23591  14.872  12.673   5.025  0.3498 -0.0934  0.0337
 8461W        W23592   4.483   0.450   3.750 -0.0165 -0.1323 -0.1071
 8462W        W23593   6.835   2.676   2.355  0.4851 -0.0566  0.0541
 8463W        W23594  18.483   1.107   5.686 -0.1871 -0.2823 -0.1713
 8464W        W23595  18.198   9.973   1.906 -0.2945 -0.0859 -0.2583
 8465W        W23596   1.222  10.208  11.705  0.2880  0.2322 -0.0687
 8466W        W23597   2.225  17.440   2.280  0.1787  0.1905  0.0187
 8467W        W23598  17.268   6.015  15.516  0.1393  0.0186  0.2392
 8468W        W23599  12.251  12.106  14.067  0.1816 -0.3207  0.0585
 8469W        W23600  15.181   9.586   4.667  0.3052 -0.1286 -0.2109
 8470W        W23601   6.219   3.689   3.240 -0.0551  0.0123  0.1113
 8471W        W23602   5.161   2.133   0.549  0.0093  0.4117 -0.0857
 8472W        W23603   6.094  17.528  15.283 -0.1402 -0.1790  0.3018
 8473W        W23604  10.129   5.675  14.326 -0.1120 -0.0881 -0.0248
 8474W        W23605  12.374   3.044   2.058 -0.1018 -0.0604 -0.1223
 8475W        W23606   0.716  14.331   0.299 -0.0600 -0.5270  0.2507
 8476W        W23607  16.486   2.255   2.580  0.1809 -0.1149  0.1910
 8477W        W23608   6.509   2.625   9.586  0.2172 -0.1582  0.0187
 8478W        W23609   1.248   6.442   3.270  0.3999 -0.4139 -0.0635
 8479W        W23610  13.872   3.273   3.717  0.2119 -0.2595 -0.0363
 8480W        W23611  11.679   2.591   0.975  0.0855 -0.3167  0.0020
 8481W        W23612  10.762   0.973  11.408  0.0547 -0.0848 -0.2627
 8482W        W23613  14.914  13.588   5.071  0.1659 -0.1681 -0.3851
 8483W        W23614   3.609   0.720  13.955 -0.0566 -0.1388 -0.3767
 8484W        W23615  14.019   3.803   1.958  0.0036 -0.3246  0.1751
 8485W        W23616   2.544  10.934   0.513 -0.0142 -0.0047 -0.0046
 8486W        W23617   0.227   8.622  14.298 -0.0869 -0.0029  0.0033
 8487W        W23618  11.718   6.607  13.450  0.0062 -0.1426 -0.3726
 8488W        W23619  12.853  17.900  15.532  0.0002 -0.0130  0.3158
 8489W        W23620   2.848  10.162   2.118  0.1651 -0.0786 -0.3685
 8490W        W23621   0.236   0.213   3.924 -0.1017  0.0469  0.1773
 8491W        W23622  13.740  12.569   1.837  0.1801 -0.2659 -0.4124
 8492W        W23623   0.965   8.375   2.877  0.1496  0.0180 -0.0913
 8493W        W23624  14.117   7.612   2.261  0.2105 -0.2319  0.2556
 8494W        W23625  12.484   8.815   3.904 -0.2040  0.2087  0.0260
 8495W        W23626  10.036   2.470   9.747  0.0720  0.1987  0.0185
 8496W        W23627  18.443  18.263  14.728  0.1657  0.2019  0.0380
 8497W        W23628   2.082   1.592  13.550 -0.0600 -0.0862  0.0035
 8498W        W23629  14.767  14.832   2.644  0.4061 -0.1564  0.1801
 8499W        W23630   6.572   0.300   5.035 -0.1776 -0.2723  0.2033
 8500W        W23631   3.932   0.790   1.996 -0.2349 -0.1469  0.0264
 8501W        W23632   8.658  10.887  14.877  0.0619  0.1793  0.1671
 8502W        W23633   5.862  13.159  11.380 -0.0608 -0.0403 -0.0852
 8503W        W23634  13.159  16.405  13.655  0.0941  0.0470  0.0597
 8504W        W23635   2.587  16.755   4.816  0.0433  0.1312  0.1301
 8505W        W23636   6.583   4.759   5.782 -0.0549  0.3618  0.2915
 8506W        W23637  14.821   4.456  14.981 -0.0334 -0.0626 -0.0810
 8507W        W23638   1.354   2.253   5.253  0.0447  0.1869 -0.0469
 8508W        W23639  11.195  10.311  10.624  0.0775 -0.0247  0.1356
 8509W        W23640   1.465  11.447  10.462 -0.0890  0.3132  0.0430
 8510W        W23641  11.776  12.173   2.271 -0.1831 -0.1800  0.3339
 8511W        W23642   6.038   2.122  13.378 -0.3332 -0.1878 -0.2242
 8512W        W23643   6.934  12.108  12.376 -0.1586 -0.0328  0.0376
 8513W        W23644  14.264  14.477   0.376  0.1683 -0.0275 -0.1675
 8514W        W23645   3.117   4.625   5.793  0.0614 -0.4207 -0.1367
 8515W        W23646   0.791   1.290   1.322 -0.0982  0.0669 -0.3360
 8516W        W23647   1.869   1.557   1.238  0.0422 -0.1676 -0.1260
 8517W        W23648   8.293   2.462   0.876  0.1526 -0.1525 -0.1020
 8518W        W23649  13.464   6.019  10.872  0.1410 -0.0572  0.3645
 8519W        W23650  18.040  11.630  11.393 -0.1284 -0.1841 -0.0810
 8520W        W23651  11.425  18.419   2.010  0.1191 -0.0303  0.1006
 8521W        W23652  12.062   3.959   1.380  0.1683  0.3213  0.2431
 8522W        W23653  17.079  16.621  12.209  0.2092  0.0806  0.1900
 8523W        W23654   4.416  13.673  13.002 -0.0589 -0.0601  0.0536
 8524W        W23655   4.076  18.480   4.539  0.0537  0.2352 -0.0152
 8525W        W23656   0.954   0.073   3.317 -0.0258  0.2469 -0.0063
 8526W        W23657   0.839   6.380  14.388 -0.0063  0.1092  0.1970
 8527W        W23658  12.292   7.073   0.307  0.4057  0.0726 -0.2784
 8528W        W23659   0.004   1.450   1.522  0.0700  0.0612  0.0151
 8529W        W23660   4.639   6.162  13.730  0.0536  0.0920 -0.0261
 8530W        W23661   3.686   4.821   4.784 -0.1506  0.1387 -0.2475
 8531W        W23662  10.070  16.806  13.712 -0.1358  0.1140  0.3453
 8532W        W23663  13.428  15.154  12.233 -0.1923  0.2536 -0.0032
 8533W        W23664   6.067   4.074  14.042 -0.0913  0.1251  0.1062
 8534W        W23665  10.604  15.917   3.351  0.2049 -0.0264 -0.2345
 8535W        W23666  10.130   5.155   4.519  0.3466 -0.0485  0.0966
 8536W        W23667  14.698   5.331   0.325  0.0551  0.0123  0.1839
 8537W        W23668  16.162  16.295  15.891  0.4131  0.3138 -0.1377
 8538W        W23669  15.760  15.750   1.742 -0.2785  0.0348  0.0722
 8539W        W23670   0.916   3.967   2.123 -0.3593  0.0199 -0.2126
 8540W        W23671  16.488   4.862   5.952 -0.0090  0.2345  0.0130
 8541W        W23672  14.646  15.819   0.551 -0.2282  0.1532  0.1788
 8542W        W23673  14.397  16.557   1.806  0.0230 -0.1226 -0.4135
 8543W        W23674   8.269  12.856  10.585 -0.2548 -0.0568  0.0963
 8544W        W23675  13.490  17.879   0.331  0.0496 -0.1699  0.0041
 8545W        W23676  10.746  10.673  12.526  0.1124 -0.4633 -0.0409
 8546W        W23677  16.792  15.141   0.760 -0.0626 -0.0213  0.0223
 8547W        W23678   4.652  10.901  15.520  0.1267 -0.0398  0.1433
 8548W        W23679  10.553   5.962  12.155 -0.2144 -0.1889  0.0654
 8549W        W23680   2.039   3.178   5.669 -0.2483  0.0768  0.3384
 8550W        W23681  12.980   7.679  12.467  0.2787  0.1400  0.4472
 8551W        W23682  11.517   0.440   5.239  0.0270 -0.2039  0.0526
 8552W        W23683  11.075  11.831  12.675 -0.0336  0.1614  0.0660
 8553W        W23684  12.040  10.474  12.282 -0.1477 -0.0367  0.0781
 8554W        W23685  11.031  15.092  10.624 -0.1547  0.0415 -0.4831
 8555W        W23686  14.164   2.591   4.858 -0.0874  0.3650  0.2041
 8556W        W23687   6.227   4.719   3.881 -0.0419 -0.0203 -0.1702
 8557W        W23688  13.518   7.955  13.064 -0.0849  0.0864 -0.0752
 8558W        W23689  12.535  12.322  15.677  0.1271  0.2332  0.1200
 8559W        W23690   8.738   9.203   2.948 -0.0841  0.0465 -0.1823
 8560W        W23691   6.533   7.619  14.116  0.2991 -0.4137 -0.1306
 8561W        W23692  16.550   3.974   5.492 -0.0331 -0.1768 -0.1662
 8562W        W23693   8.038   9.178   4.680  0.0153 -0.1012  0.2707
 8563W        W23694   7.257   6.697  10.474 -0.2434 -0.1124  0.2772
 8564W        W23695   0.244  14.440  13.845 -0.0542 -0.5169  0.2229
 8565W        W23696   2.215   9.908   4.089 -0.1359  0.0259  0.1598
 8566W        W23697   1.802  16.473  13.408 -0.0220  0.0711 -0.2454
 8567W        W23698  16.524   5.650   4.799  0.2167 -0.0838 -0.0224
 8568W        W23699  15.805   5.071   3.411  0.1000 -0.1497 -0.1062
 8569W        W23700  12.094  17.165   1.553  0.0886  0.0047  0.0745
 8570W        W23701   0.730  13.567  11.369  0.0286  0.0949 -0.1191
 8571W        W23702  15.390   4.235   1.938 -0.1176  0.2271 -0.0843
 8572W        W23703   4.873  10.542  10.302 -0.2551  0.2373 -0.3743
 8573W        W23704  14.448  14.397  15.311  0.1778  0.0347  0.1235
 8574W        W23705   4.792   6.710   5.090 -0.0520  0.3901  0.0605
 8575W        W23706  12.582   1.560   3.767 -0.0328 -0.1060 -0.0581
 8576W        W23707  15.486   1.311  10.951  0.0388  0.0567  0.2171
 8577W        W23708   2.564   1.399   2.461 -0.1326  0.3606 -0.1051
 8578W        W23709  10.285   2.040  10.671 -0.0631  0.0966  0.1714
 8579W        W23710   1.213   5.216  12.615  0.3814  0.1804  0.0785
 8580W        W23711   6.094  14.832  12.506  0.1089  0.1299 -0.0704
 8581W        W23712   3.270  16.805  15.046 -0.2075 -0.0863  0.0767
 8582W        W23713  10.386  17.511  15.018  0.1655 -0.1806 -0.2635
 8583W        W23714   2.887   6.105   1.614 -0.1932 -0.0319 -0.2562
 8584W        W23715   6.563  14.164   4.358  0.2672 -0.0320 -0.1493
 8585W        W23716  17.497   2.679  12.619  0.0065 -0.2953 -0.2791
 8586W        W23717  14.716  13.704  13.463 -0.0652 -0.1760  0.4237
 8587W        W23718  14.845  14.123  12.028 -0.1021  0.0186 -0.3337
 8588W        W23719   8.137   1.188   4.689  0.0670  0.0853 -0.0548
 8589W        W23720  16.259   4.843  13.211 -0.1228 -0.0540 -0.0539
 8590W        W23721   9.753   4.673   1.863 -0.1080  0.0145  0.1172
 8591W        W23722   0.756   5.088  11.732  0.1272  0.2753 -0.1165
 8592W        W23723   7.736   2.453   0.093  0.0562 -0.2313  0.1310
 8593W        W23724  12.580  16.475   2.719  0.1477  0.1007  0.1546
 8594W        W23725   0.158  11.665   2.030 -0.0703  0.0404 -0.0445
 8595W        W23726   2.588   7.259  13.490 -0.0335 -0.1409  0.1024
 8596W        W23727  16.317   5.786  15.680  0.0152 -0.0825  0.2174
 8597W        W23728  16.685   2.159   0.374 -0.0411 -0.2120 -0.0679
 8598W        W23729   4.301   1.906  12.921 -0.0412  0.0378  0.0584
 8599W        W23730   3.105  18.072  11.265 -0.1223  0.2236 -0.2764
 8600W        W23731   6.136  14.057  10.325  0.0838  0.1051 -0.0098
 8601W        W23732   6.189  13.529  10.469 -0.0166  0.2094 -0.2193
 8602W        W23733  11.267  12.831  14.369 -0.0901  0.3283 -0.0589
 8603W        W23734  15.819  11.433  14.546  0.0295  0.2818  0.0243
 8604W        W23735  16.787   0.994   4.269 -0.0970 -0.1717  0.1715
 8605W        W23736   1.632  13.965  12.974 -0.2884  0.1140 -0.1286
 8606W        W23737  14.606   9.936  13.281 -0.1860 -0.2044  0.2137
 8607W        W23738  11.799   1.553   2.754 -0.2453 -0.1277  0.3306
 8608W        W23739  15.979   5.269  13.988  0.2573  0.0978  0.1210
 8609W        W23740   6.135  13.215  12.472 -0.0453  0.0563  0.0266
 8610W        W23741  14.212   7.650   1.606  0.1830  0.3558 -0.0202
 8611W        W23742  17.828  17.004   4.005  0.3766  0.0827 -0.3597
 8612W        W23743  12.483   9.009   0.125  0.3790 -0.0754  0.1388
 8613W        W23744  11.733   9.761  13.327  0.2086 -0.0238  0.2115
 8614W        W23745   6.315   7.748   0.153  0.1496  0.1192  0.1532
 8615W        W23746  14.762  14.548   0.249  0.0413  0.1119  0.1262
 8616W        W23747  14.307   1.318  15.456  0.1338 -0.1635 -0.5593
 8617W        W23748  14.457  11.640  13.374 -0.4694  0.2229  0.0146
 8618W        W23749   2.706  11.169  10.957 -0.1907  0.0712 -0.0277
 8619W        W23750  10.107   3.811   5.301 -0.2144 -0.1700 -0.0500
 8620W        W23751  10.062   0.595  10.719 -0.0600  0.0140  0.0089
 8621W        W23752  15.851  13.561   4.633 -0.0011 -0.1014  0.1878
 8622W        W23753   1.389  15.300   3.361  0.6681 -0.1765 -0.1863
 8623W        W23754  17.733   0.336   0.441  0.0959 -0.0008 -0.2776
 8624W        W23755  14.577  10.652   4.288  0.3004 -0.2228  0.1181
 8625W        W23756   3.090  12.737   2.128 -0.0585  0.4223  0.0773
 8626W        W23757   9.347   0.441   5.102  0.0495  0.2039 -0.1679
 8627W        W23758  13.749   8.659   2.855  0.4320  0.2878  0.1436
 8628W        W23759  14.048  15.692   1.138 -0.0784  0.0369  0.1089
 8629W        W23760   6.157  13.468   4.246  0.0136  0.2279  0.2011
 8630W        W23761   2.839   6.911   0.550  0.1588  0.2134 -0.5234
 8631W        W23762   0.716   3.791   4.862 -0.5051  0.2364 -0.0131
 8632W        W23763  10.406  14.142   1.660 -0.1362  0.3535 -0.0905
 8633W        W23764   8.509   3.702  15.271  0.2444  0.4510 -0.1808
 8634W        W23765   7.244   6.435  14.040  0.0264 -0.0766 -0.3866
 8635W        W23766   7.576  16.634   3.083 -0.1875 -0.1080  0.1974
 8636W        W23767   4.036   3.475   6.165 -0.1700  0.0231 -0.1033
 8637W        W23768   7.689   8.600  14.536 -0.0591  0.1248 -0.2342
 8638W        W23769  12.084  13.033   1.218 -0.1841  0.1233 -0.0364
 8639W        W23770   0.608  10.381   4.872 -0.0804  0.0605  0.1233
 8640W        W23771  12.106  15.634   2.762  0.4458 -0.1317  0.1457
 8641W        W23772   7.002  10.800   1.948  0.1480 -0.1656  0.0040
 8642W        W23773   6.330  16.164  10.513  0.0662  0.6682  0.3808
 8643W        W23774   1.753   5.448   1.914 -0.1400 -0.1436  0.0011
 8644W        W23775  12.885  13.740   2.450 -0.0071  0.4769  0.0029
 8645W        W23776   3.342   7.734  14.996 -0.2566  0.0033  0.2088
 8646W        W23777  13.595  16.142  14.871 -0.0617 -0.1124 -0.1658
 8647W        W23778  16.631   9.990  15.291  0.1636 -0.1982  0.1703
 8648W        W23779   7.769   6.200  15.829 -0.1001  0.0434 -0.2922
 8649W        W23780   3.014   8.006  10.823  0.1305 -0.1030 -0.1184
 8650W        W23781   5.741  13.243  10.580  0.0049 -0.3216  0.1800
 8651W        W23782  14.095   0.214   2.559  0.2124 -0.0026  0.2906
 8652W        W23783   0.933   0.062   4.678 -0.2176  0.0217 -0.0341
 8653W        W23784  15.378   2.655  14.264  0.4615  0.1281 -0.1819
 8654W        W23785   5.111   6.467   4.571  0.4015  0.2877  0.1393
 8655W        W23786  10.595  13.947   3.238  0.1000  0.4732  0.1503
 8656W        W23787   0.042   5.424  13.952  0.1171  0.1914  0.0422
 8657W        W23788  18.132  14.124   0.386  0.1856  0.0276 -0.1139
 8658W        W23789  15.661   4.753   1.634 -0.1456  0.0154  0.5075
 8659W        W23790   9.513  14.935  10.831 -0.2353 -0.0627 -0.4254
 8660W        W23791  12.548  17.971   1.242 -0.1630  0.0577 -0.0431
 8661W        W23792  10.584   0.819   2.643 -0.0584 -0.0461 -0.2522
 8662W        W23793  13.342   2.296  15.645  0.0595 -0.0718 -0.1916
 8663W        W23794  13.963   5.398   1.494  0.1094 -0.0736 -0.1290
 8664W        W23795   8.482   3.390   5.459  0.0084 -0.5536 -0.1515
 8665W        W23796   6.393  10.260  12.847 -0.2118 -0.4098  0.1906
 8666W        W23797  10.673  16.235   2.896  0.2525  0.1989  0.2078
 8667W        W23798  13.634  16.805  10.006 -0.0490  0.1398 -0.1591
 8668W        W23799   5.793  15.299  10.149  0.0443  0.1219  0.3546
 8669W        W23800   6.725  16.630  10.571  0.1137  0.0496  0.2996
 8670W        W23801  10.875   2.023   9.976 -0.3313 -0.2690  0.3559
 8671W        W23802   5.977   6.764  13.236  0.0719  0.1267  0.2088
 8672W        W23803   7.136  13.740   9.707 -0.1627  0.0921  0.1405
 8673W        W23804  16.794  18.423   5.078 -0.2024  0.1908  0.0067
 8674W        W23805   7.368   1.904   1.486  0.3024 -0.0427 -0.1982
 8675W        W23806  16.241   6.241   5.447 -0.3034 -0.1664  0.2422
 8676W        W23807   8.341   0.252  14.998  0.3114  0.4249  0.0691
 8677W        W23808   7.913  11.613  10.707 -0.0408 -0.1797  0.0698
 8678W        W23809   0.571  12.569   4.563 -0.1051 -0.1129  0.2484
 8679W        W23810   9.097  13.715   0.323  0.0140 -0.1758  0.3142
 8680W        W23811  11.037   0.451  11.279 -0.0908  0.0215  0.1378
 8681W        W23812   2.108   6.355  13.026 -0.1388 -0.3374  0.1394
 8682W        W23813  15.388   1.348   0.681 -0.0044  0.2097 -0.1505
 8683W        W23814  17.544   2.337   3.135  0.0765 -0.2590 -0.0127
 8684W        W23815  12.620   6.222  11.212 -0.1600 -0.1378 -0.1288
 8685W        W23816   5.537  17.780   1.458 -0.0536 -0.0999 -0.1748
 8686W        W23817  17.863   5.872   4.952  0.1074 -0.3806 -0.1458
 8687W        W23818  13.947  13.982   1.084  0.4748  0.1843 -0.2006
 8688W        W23819   8.343  14.724   9.585  0.0793 -0.0942  0.2601
 8689W        W23820  16.484  18.487  13.329  0.0125 -0.0287 -0.2014
 8690W        W23821  10.250   1.511   0.725  0.0139  0.0840  0.3190
 8691W        W23822  13.540   4.308  15.207 -0.0414  0.4150  0.2218
 8692W        W23823   1.798   4.459  12.575 -0.2747 -0.1955  0.1582
 8693W        W23824   4.032  15.487   4.695  0.1929 -0.2223 -0.0530
 8694W        W23825   2.637  14.273   2.374 -0.0597  0.4444  0.0027
 8695W        W23826   4.120   5.191  10.031  0.0673  0.2897 -0.2766
 8696W        W23827   3.503  16.419  15.664  0.2651 -0.0316  0.1660
 8697W        W23828   0.480   0.806   2.809 -0.0478  0.0322  0.1027
 8698W        W23829  12.702  17.627  11.476 -0.0781 -0.1660  0.0149
 8699W        W23830   0.291  12.804   3.650  0.3110 -0.3088 -0.1696
 8700W        W23831  15.907   4.870   5.021  0.1464  0.2374 -0.0934
 8701W        W23832   9.072   1.600  10.365 -0.2874 -0.0585 -0.2379
 8702W        W23833   1.817   4.148   2.710 -0.3367  0.2069  0.2023
 8703W        W23834   5.209   2.279   5.537  0.1541  0.2562 -0.3734
 8704W        W23835   6.459  14.676   0.497 -0.2304 -0.3463 -0.0895
 8705W        W23836   6.926   9.250   3.375  0.1315  0.2189 -0.0806
 8706W        W23837  15.130  17.252   0.430  0.1768 -0.0926  0.0563
 8707W        W23838   7.014   9.599  13.127 -0.1353 -0.1687  0.0246
 8708W        W23839   3.234  11.753  15.697  0.1504 -0.1348 -0.0096
 8709W        W23840   5.090  13.389   4.012  0.4211 -0.1828 -0.2268
 8710W        W23841   7.631  10.911  15.582 -0.3640  0.1063  0.0809
 8711W        W23842   9.029   8.115  12.418  0.0373  0.2764 -0.1114
 8712W        W23843   1.812   7.391   2.593  0.1174 -0.2541  0.0157
 8713W        W23844   7.300  12.929   3.152  0.0413  0.2214  0.0980
 8714W        W23845  11.046   4.759   3.819  0.0747  0.2334 -0.1694
 8715W        W23846  16.360  10.324  11.696  0.1965  0.1737  0.3068
 8716W        W23847   4.969   6.825  12.438 -0.5307 -0.1141 -0.0350
 8717W        W23848  16.283   8.647  11.659 -0.2513  0.1925  0.1453
 8718W        W23849  13.582   2.853   0.996  0.1452 -0.1112  0.0604
 8719W        W23850   3.591  14.361   5.191  0.0344 -0.1570 -0.0750
 8720W        W23851  15.437   7.025  10.982  0.0588  0.2062  0.1743
 8721W        W23852  17.086  15.235  14.818 -0.2426  0.1568 -0.0698
 8722W        W23853   0.252   7.611   4.653  0.0558  0.2928 -0.1337
 8723W        W23854  18.186  12.155  14.165  0.2441 -0.0528  0.0629
 8724W        W23855   6.376   2.261   1.838 -0.1294  0.0350  0.0535
 8725W        W23856  17.383   7.147  14.048  0.0342  0.2555  0.1790
 8726W        W23857   5.729  13.968   4.738 -0.2790 -0.1001 -0.2384
 8727W        W23858   6.508   5.040   2.112 -0.0147 -0.0392  0.2142
 8728W        W23859   1.334  14.941  10.758 -0.2351 -0.0237  0.0436
 8729W        W23860   8.377  18.324  14.261 -0.2586  0.1779 -0.3071
 8730W        W23861   1.799  10.487   0.692  0.0793  0.0041 -0.3263
 8731W        W23862   6.683   1.996   1.164  0.1093  0.2394  0.1565
 8732W        W23863  10.680  18.004   0.333 -0.1503 -0.0744  0.2167
 8733W        W23864   2.507   7.497   4.110  0.2063 -0.2242 -0.1357
 8734W        W23865   2.799  13.295  14.096  0.3816 -0.2729  0.3358
 8735W        W23866  11.688   1.876  13.768 -0.1303  0.0291 -0.2448
 8736W        W23867   2.340   2.320   2.245  0.0045  0.0281 -0.2587
 8737W        W23868  16.579   5.079  15.031  0.2447  0.0204  0.0826
 8738W        W23869   5.963   5.577   5.393  0.2922  0.2380  0.0065
 8739W        W23870  15.411   3.252   4.920  0.1481  0.0850  0.0566
 8740W        W23871   8.505  10.708   2.408  0.2032 -0.1286 -0.0994
 8741W        W23872   0.064  10.863  11.428 -0.2359  0.0057  0.2253
 8742W        W23873  10.318  17.719  15.453  0.1717  0.1225 -0.2779
 8743W        W23874  10.276  16.641   4.780  0.0549 -0.1481  0.1778
 8744W        W23875  16.292  17.846   4.134 -0.0781 -0.1587  0.1514
 8745W        W23876   8.778   0.508   3.289  0.2441  0.4193  0.4259
 8746W        W23877  13.660  16.901   3.524  0.1025 -0.0450 -0.1417
 8747W        W23878   9.815  10.601   0.364  0.2512 -0.1586 -0.2773
 8748W        W23879   1.710  13.221   4.765 -0.1308  0.1707 -0.0304
 8749W        W23880  16.856   6.285  14.335  0.0430  0.0367  0.3644
 8750W        W23881   0.893   2.391   5.044  0.0396  0.1626  0.1938
 8751W        W23882   6.683   8.403  11.133 -0.0108  0.1538  0.0440
 8752W        W23883   7.312   3.519   3.624  0.3389 -0.0098 -0.4978
 8753W        W23884   5.658  15.427   2.488  0.2819  0.1882 -0.0693
 8754W        W23885  15.715  16.216   1.510  0.0507  0.0856 -0.1860
 8755W        W23886   0.294  13.493  11.196 -0.0154 -0.2034  0.3128
 8756W        W23887  12.274   9.293   2.622  0.0886 -0.0065  0.0771
 8757W        W23888   0.757  15.558  13.215  0.0530  0.1388  0.5161
 8758W        W23889   4.597   9.569   1.183  0.0422 -0.0880  0.2761
 8759W        W23890   0.330  14.854  15.064  0.0792 -0.1922 -0.2263
 8760W        W23891  15.349   9.985  10.921  0.1824 -0.4492  0.1754
 8761W        W23892   6.033   7.788  10.598 -0.4470 -0.3969 -0.0597
 8762W        W23893   2.107   7.286  13.417 -0.1049  0.0022 -0.1497
 8763W        W23894  14.368  13.744   2.081  0.0839  0.3175  0.0734
 8764W        W23895   3.638   1.464   4.120  0.3687  0.3599 -0.1278
 8765W        W23896   8.003  12.806   5.169 -0.0824 -0.1166 -0.3738
 8766W        W23897   6.650  12.238   0.267  0.0097  0.1193 -0.1465
 8767W        W23898   6.339   9.816   0.055  0.2116 -0.1549 -0.1421
 8768W        W23899   2.086   0.429  15.568 -0.4566 -0.0372 -0.0963
 8769W        W23900   2.004  11.305   1.056 -0.1614 -0.1537  0.3230
 8770W        W23901   9.280   9.689  15.028 -0.3923 -0.2588 -0.2316
 8771W        W23902  14.785   9.890   5.360  0.3282 -0.2833  0.0327
 8772W        W23903   3.891   9.309   3.856  0.0953  0.1173 -0.0493
 8773W        W23904   4.982  17.577  15.890 -0.1929 -0.1900  0.0285
 8774W        W23905  11.204   7.107   2.300  0.0003  0.0855  0.0641
 8775W        W23906   9.983   0.600  11.262 -0.3592  0.1239 -0.0281
 8776W        W23907  14.832  15.657   5.516 -0.2079 -0.0825  0.0150
 8777W        W23908   8.845   2.246   2.025 -0.1725 -0.1425 -0.2245
 8778W        W23909  10.546   4.817  11.223  0.3474  0.3235 -0.1115
 8779W        W23910  17.749  11.574  12.220  0.1554  0.0483 -0.0864
 8780W        W23911  18.340   4.684   1.513 -0.1731 -0.0984  0.1576
 8781W        W23912   8.158   2.270  15.919  0.0201 -0.0287 -0.1306
 8782W        W23913   7.245   4.670   5.336  0.1933  0.2484  0.3579
 8783W        W23914   3.527   7.017  11.854  0.2180 -0.4126 -0.2810
 8784W        W23915   1.584  11.649   1.128 -0.0131 -0.0170  0.0384
 8785W        W23916  13.206  12.733  15.553 -0.1616  0.0144  0.0266
 8786W        W23917   6.485  14.871  11.403 -0.0024 -0.1342  0.1755
 8787W        W23918  11.548  16.733  13.179 -0.2824  0.2778 -0.1707
 8788W        W23919   2.243   7.070  14.689 -0.0768 -0.1467  0.2588
 8789W        W23920   7.330   7.846   3.024  0.1785 -0.0941  0.0428
 8790W        W23921  10.966   1.194   5.956 -0.2051 -0.0063 -0.1613
 8791W        W23922   2.577  10.129   1.323  0.0101 -0.0926 -0.3125
 8792W        W23923   1.252   1.332   2.180  0.1324 -0.0167  0.0477
 8793W        W23924   0.190  14.018   4.749 -0.0726  0.1680 -0.0542
 8794W        W23925  10.234   2.662  12.205  0.2052 -0.2858  0.4378
 8795W        W23926   8.313  12.498  10.897  0.0062  0.0882 -0.0415
 8796W        W23927   5.003   3.441   1.771 -0.2290  0.0076  0.3268
 8797W        W23928  11.730   7.899  12.800 -0.2275 -0.1284  0.2583
 8798W        W23929  13.659  14.421   3.971 -0.0067  0.1849 -0.2400
 8799W        W23930   8.329  14.752   2.391  0.2139  0.1167  0.0470
 8800W        W23931  16.852   7.754  13.114 -0.1845  0.3517 -0.0859
 8801W        W23932   0.166   6.162   1.182  0.1988  0.3805  0.0346
 8802W        W23933  10.208  14.607  14.077  0.0674 -0.1603 -0.1022
 8803W        W23934   6.912  13.738   1.253 -0.0408  0.3378 -0.2096
 8804W        W23935   4.849   9.504  11.959 -0.2747  0.2165 -0.0788
 8805W        W23936  12.722   8.142  12.478 -0.2022  0.2559  0.1039
 8806W        W23937  17.555   1.554   0.670 -0.3114 -0.3230  0.1562
 8807W        W23938   9.952   3.570   0.139  0.0749 -0.0507  0.1064
 8808W        W23939   2.063   2.481   0.263  0.2002 -0.4371 -0.1406
 8809W        W23940  13.749  14.202   0.712 -0.4179  0.4085  0.1022
 8810W        W23941   5.926   9.102  13.823  0.1066  0.2621  0.0814
 8811W        W23942  10.938   6.808  14.018 -0.3049  0.4277 -0.2148
 8812W        W23943   3.037   5.421  13.775  0.0986 -0.2303  0.0239
 8813W        W23944   4.956   9.439  14.434  0.4683  0.1925 -0.5255
 8814W        W23945  17.461  10.476   5.197 -0.1723  0.0278  0.4016
 8815W        W23946  15.947  15.981  13.323 -0.3904 -0.1859  0.0990
 8816W        W23947   3.347   8.105  12.585  0.0390 -0.3024  0.0795
 8817W        W23948   8.887  13.338  14.934 -0.1547 -0.0620 -0.1902
 8818W        W23949   8.474  12.028   9.504  0.3667 -0.1778 -0.1405
 8819W        W23950  16.564   2.086  15.127  0.0296 -0.0137 -0.0988
 8820W        W23951   9.686   2.540  11.413 -0.1142 -0.2819 -0.1471
 8821W        W23952  11.138   7.236  10.461 -0.0261 -0.0110 -0.0385
 8822W        W23953   6.509   5.420   1.778  0.0238 -0.3514 -0.1607
 8823W        W23954   6.078  11.657  10.606  0.0282 -0.0853 -0.2751
 8824W        W23955   7.172   9.337   2.235  0.0951  0.1831  0.0120
 8825W        W23956   8.061  15.747   3.806  0.0160 -0.0477 -0.0010
 8826W        W23957   7.439   9.362  11.661 -0.2525  0.0350 -0.3413
 8827W        W23958  10.111   0.208   4.649 -0.1201 -0.2624  0.2884
 8828W        W23959   4.729  11.049   3.319  0.1288  0.1156 -0.0475
 8829W        W23960  18.469   8.516   0.843 -0.2151  0.1377 -0.1502
 8830W        W23961   6.831  11.595  11.412  0.2270 -0.2990 -0.0417
 8831W        W23962   9.223  16.881   3.635 -0.0259 -0.0122  0.1941
 8832W        W23963  12.312  17.730   3.380 -0.0592  0.2161  0.0314
 8833W        W23964  10.578  12.883   2.018  0.1137 -0.4415 -0.2669
 8834W        W23965  18.482   8.264   0.376  0.2240 -0.0456  0.0418
 8835W        W23966   4.367   6.813  15.673 -0.1681  0.1508 -0.0350
 8836W        W23967  13.877  16.081   3.601 -0.0172 -0.0910  0.1912
 8837W        W23968   9.609  15.580  12.626 -0.0864 -0.0339 -0.0837
 8838W        W23969   6.940   9.018  15.607  0.1912  0.0294  0.0060
 8839W        W23970  15.589  18.236   0.258  0.1637  0.1652  0.2217
 8840W        W23971  17.899   1.679   2.697  0.3642 -0.1081  0.2709
 8841W        W23972  14.873   1.416   2.103  0.1020 -0.0683 -0.0628
 8842W        W23973   5.737   5.595  11.763 -0.1080 -0.0953  0.1786
 8843W        W23974  18.549  14.409  12.057 -0.1647  0.1174  0.0963
 8844W        W23975   3.718  14.347  11.537 -0.1171  0.0998 -0.2702
 8845W        W23976  12.431   2.848   0.292 -0.0986  0.2792 -0.1192
 8846W        W23977   0.817   6.797   1.412 -0.2106  0.2019 -0.0249
 8847W        W23978   1.623  14.194  11.619  0.0648  0.0498  0.0213
 8848W        W23979   5.907  12.659   4.167  0.1778  0.3285 -0.0493
 8849W        W23980  16.141  17.578  13.132 -0.3329  0.2026  0.3494
 8850W        W23981   5.247  12.968  15.672 -0.0544  0.1638 -0.0595
 8851W        W23982   7.743   5.407  10.499  0.0510  0.1883 -0.0412
 8852W        W23983  11.462   4.450  13.411  0.2491 -0.0216 -0.2808
 8853W        W23984  10.173   1.951   1.391  0.3563 -0.3082  0.0055
 8854W        W23985  15.073   1.391   5.363 -0.1379 -0.0498 -0.1667
 8855W        W23986  17.003   0.712  11.589  0.0537 -0.2398  0.0173
 8856W        W23987   3.441  15.794  12.645 -0.0796 -0.0972 -0.0047
 8857W        W23988   7.778   1.711   1.792  0.1775 -0.0971 -0.2901
 8858W        W23989  15.388   0.272   5.569 -0.0516 -0.2131  0.0785
 8859W        W23990  11.249   4.892  13.406  0.2499  0.0759 -0.0276
 8860W        W23991  12.129   7.716  12.573  0.1267  0.0082  0.0002
 8861W        W23992   9.422   8.332   3.971 -0.1985  0.0329  0.1292
 8862W        W23993   8.222   4.884   1.243  0.0123  0.0943 -0.2679
 8863W        W23994  16.270   0.580   5.707  0.1588 -0.1790  0.1858
 8864W        W23995   1.507   5.893  14.938 -0.0144 -0.0439  0.1629
 8865W        W23996   5.686  13.984  10.150  0.2112 -0.0345 -0.1266
 8866W        W23997   7.214   6.046  13.667  0.0820  0.1844 -0.1144
 8867W        W23998  12.846   7.892   1.223  0.1081 -0.1415  0.2898
 8868W        W23999   6.294  11.261   4.810  0.0384  0.2971  0.1465
 8869W        W24000   0.037  15.670   4.981 -0.0431  0.0468  0.2333
 8870W        W24001   8.545  16.139   0.494 -0.0607  0.0009 -0.2264
 8871W        W24002  18.480  13.791   5.798 -0.1551 -0.3275  0.0115
 8872W        W24003  15.997  12.910   2.615  0.0391  0.0247 -0.0682
 8873W        W24004  17.640   6.349  12.394  0.2333 -0.0907 -0.1265
 8874W        W24005   5.999  11.245  15.140  0.1237 -0.0184 -0.1654
 8875W        W24006   7.992   7.896   5.202  0.1897  0.3543 -0.0750
 8876W        W24007  15.214  13.317   4.208 -0.1499  0.1507 -0.0002
 8877W        W24008  18.166   2.124   4.469 -0.1282 -0.0154 -0.1081
 8878W        W24009   1.853   9.200   2.625 -0.1946 -0.2470  0.0517
 8879W        W24010   7.700   6.428   0.486 -0.0695 -0.2433  0.1336
 8880W        W24011   5.275  15.759  13.549 -0.0114  0.1714 -0.0613
 8881W        W24012  16.597  13.043  10.786  0.0007  0.2831  0.0682
 8882W        W24013   5.693   8.207  14.204  0.1794 -0.0196 -0.0720
 8883W        W24014   3.891   8.849   1.588  0.0105  0.3479  0.1927
 8884W        W24015   2.047   2.266   4.463 -0.0511 -0.1668 -0.1402
 8885W        W24016   2.823  11.445  13.180 -0.0206 -0.2297  0.0766
 8886W        W24017   2.971   8.642  13.274 -0.0594  0.1364 -0.0021
 8887W        W24018  14.923   4.440   0.033 -0.2624 -0.4780  0.1173
 8888W        W24019   6.843  17.728  10.556 -0.0144  0.0456  0.0435
 8889W        W24020   3.051   6.281   2.942  0.0070  0.0495 -0.0909
 8890W        W24021   6.828   8.063  14.420  0.2509  0.1048 -0.1122
 8891W        W24022  16.157   1.183  14.551 -0.0367 -0.3188  0.0781
 8892W        W24023  10.165   2.541   4.037 -0.0113  0.1709 -0.3497
 8893W        W24024  17.743  15.223  11.372 -0.2849 -0.1175  0.0307
 8894W        W24025   1.065   8.760  13.975  0.1285  0.0417 -0.1016
 8895W        W24026   8.987  13.121   4.702 -0.1209  0.0498  0.3127
 8896W        W24027  18.431   6.108   2.601 -0.2423 -0.1771 -0.2224
 8897W        W24028   6.866   6.945  12.716 -0.3029 -0.2767  0.1342
 8898W        W24029   8.600  16.266   0.023  0.1679 -0.1705  0.1615
 8899W        W24030  10.003   6.904   0.923 -0.0697 -0.2902 -0.2132
 8900W        W24031  15.626   6.828   4.775 -0.3023  0.1787 -0.1973
 8901W        W24032   1.283   6.241  13.716 -0.3251  0.1025  0.0653
 8902W        W24033  10.260   7.689  12.632 -0.4091 -0.0452  0.1315
 8903W        W24034   1.160  11.644  11.341 -0.0139 -0.1987 -0.0268
 8904W        W24035   4.158   3.160  10.796  0.1694 -0.0648 -0.0097
 8905W        W24036   6.959   2.913  15.631  0.0605 -0.1636  0.1969
 8906W        W24037  10.345  12.836  15.788  0.0751 -0.1953  0.2810
 8907W        W24038   5.608   5.576   0.524 -0.1678  0.0927  0.1696
 8908W        W24039   2.651  13.866  15.417 -0.1596  0.0265  0.0898
 8909W        W24040   6.205   4.786  11.183 -0.2156  0.2471 -0.1539
 8910W        W24041   0.007   6.428  15.315 -0.0623 -0.1040 -0.0282
 8911W        W24042   8.839   0.642   2.194  0.1528 -0.1025  0.1299
 8912W        W24043   8.101  15.793  14.224  0.0033  0.0709  0.2239
 8913W        W24044  16.518  17.384  12.738 -0.2419 -0.1924 -0.0899
 8914W        W24045  11.367   5.729  15.380  0.0103  0.1917 -0.0354
 8915W        W24046   3.576  12.319  13.971 -0.1334  0.0847  0.1959
 8916W        W24047  11.525   0.657   3.002  0.0545 -0.6012 -0.0244
 8917W        W24048  10.918  10.247  13.496 -0.0799  0.0865 -0.1964
 8918W        W24049   4.795   7.902  13.251 -0.2379 -0.0555  0.0518
 8919W        W24050  13.081  12.686  14.369  0.0696 -0.1943 -0.0729
 8920W        W24051   7.179   0.841  14.093 -0.0839 -0.0319  0.0920
 8921W        W24052  16.647  12.716   0.836 -0.1975  0.5065  0.1873
 8922W        W24053   5.124   1.091  15.189 -0.0360 -0.2215 -0.0299
 8923W        W24054  13.888  12.100   3.574 -0.1052  0.2009 -0.1214
 8924W        W24055   5.581  17.383   2.575  0.0799  0.1347 -0.2011
 8925W        W24056   0.933   6.556   2.361 -0.0534 -0.2240 -0.0310
 8926W        W24057  11.125   7.989  14.805 -0.0216  0.1101 -0.6292
 8927W        W24058   3.338  18.027   4.243 -0.3647  0.3596 -0.2540
 8928W        W24059   0.094   1.088   3.732 -0.3317 -0.1267  0.2126
 8929W        W24060  16.692  18.558   2.316  0.0645 -0.1598 -0.0255
 8930W        W24061  10.378   1.360  14.361 -0.0718  0.0277 -0.2041
 8931W        W24062   6.074  12.540  12.079  0.0817  0.0153  0.0949
 8932W        W24063   9.088   4.990  12.597 -0.0948  0.0556  0.1369
 8933W        W24064  10.584   5.644   1.938 -0.1244  0.2490 -0.1268
 8934W        W24065  10.787  12.501   3.204 -0.0665 -0.2073  0.2239
 8935W        W24066   8.115  14.520   1.003  0.1856  0.3233 -0.1428
 8936W        W24067  10.191  16.622  10.871 -0.1581  0.0583  0.0047
 8937W        W24068   9.520  17.487  13.471 -0.1541  0.0701 -0.2705
 8938W        W24069   1.417   1.149   4.004 -0.2899 -0.0734  0.0128
 8939W        W24070   4.750   4.472  14.109 -0.1657 -0.3287 -0.0744
 8940W        W24071  12.714   5.508  13.273 -0.0929 -0.1104 -0.0152
 8941W        W24072  11.747  15.161   2.056 -0.0017 -0.0955 -0.0902
 8942W        W24073   4.867  12.038   4.582 -0.1017  0.3003 -0.1968
 8943W        W24074   4.191   4.138  13.890 -0.2006 -0.1175  0.0801
 8944W        W24075   8.983   6.545   1.606  0.1383  0.0567  0.0361
 8945W        W24076   4.636  12.210   0.916  0.2737 -0.0857  0.0007
 8946W        W24077   0.620   1.061   0.030 -0.0519  0.5306 -0.2976
 8947W        W24078  15.807   5.486   3.688 -0.2237 -0.1368 -0.0529
 8948W        W24079  14.606   0.009  15.417 -0.1797  0.2254  0.0873
 8949W        W24080  17.390   8.086   3.373 -0.0093  0.0218  0.3448
 8950W        W24081   2.940   8.701  15.489  0.3078  0.0140 -0.1239
 8951W        W24082  10.335  16.523   2.196  0.0761  0.1102  0.1534
 8952W        W24083  10.160   0.932  14.166  0.0152  0.0144  0.1640
 8953W        W24084   8.574  14.884  11.853  0.2262 -0.3095 -0.0846
 8954W        W24085  14.198  14.493   5.151  0.0144 -0.0324 -0.1231
 8955W        W24086  16.726   2.314  11.262 -0.1067 -0.4379  0.1099
 8956W        W24087   8.477   3.603  11.248  0.0749 -0.0052  0.0184
 8957W        W24088   7.025  13.730   3.319  0.1492 -0.1677  0.2209
 8958W        W24089  10.608  12.312   0.625  0.2987  0.1022  0.0306
 8959W        W24090  18.557  12.966   1.140 -0.2501 -0.0554  0.0612
 8960W        W24091  10.600   1.370   4.310  0.3233 -0.3928 -0.1941
 8961W        W24092   3.535   4.993   3.823  0.0271  0.1632 -0.3034
 8962W        W24093   1.458   3.246   0.839 -0.1089 -0.1894 -0.0791
 8963W        W24094   6.423  12.994   3.485 -0.1841  0.3437  0.0718
 8964W        W24095   2.568   0.456   4.003  0.2438  0.3179  0.1561
 8965W        W24096   6.006   3.598   2.630  0.0405 -0.1918  0.2204
 8966W        W24097   4.803  17.456  13.446  0.0763  0.0761 -0.2551
 8967W        W24098  13.953   3.528  11.127 -0.0984  0.3300  0.0333
 8968W        W24099   1.997  14.151  11.273  0.1055 -0.0176  0.0276
 8969W        W24100   3.685  16.228   1.840  0.1079  0.3278  0.1469
 8970W        W24101   8.628  16.199  11.917  0.1558  0.0492 -0.0049
 8971W        W24102  14.229   2.421  13.463  0.0522 -0.0044  0.1219
 8972W        W24103   0.050   0.374  12.591  0.0209 -0.0105 -0.0413
 8973W        W24104   3.446   5.254   3.371  0.1289  0.0113 -0.2341
 8974W        W24105   0.363   9.597  11.810 -0.0186  0.1137  0.3450
 8975W        W24106  15.974   9.443  13.333  0.2891 -0.0966  0.2118
 8976W        W24107  14.609  17.731  11.373 -0.0901 -0.1127  0.3148
 8977W        W24108   0.508   9.315  13.464 -0.2631 -0.1702 -0.0421
 8978W        W24109  13.156   6.448   3.803 -0.3056  0.0322  0.1383
 8979W        W24110   8.135  10.589  12.894 -0.2218 -0.0994 -0.0948
 8980W        W24111   5.470   1.487   2.630  0.0933  0.0037  0.0402
 8981W        W24112   5.314  10.223  12.210  0.1923  0.0732 -0.0938
 8982W        W24113   7.569   4.361   3.431 -0.1499 -0.3315 -0.0663
 8983W        W24114  10.258  17.237  14.008  0.0242 -0.0188  0.0423
 8984W        W24115  16.246   2.216   0.764 -0.0910 -0.0915  0.2164
 8985W        W24116   3.511  17.250  15.317  0.1024  0.4071 -0.1263
 8986W        W24117   4.487   2.696  15.874 -0.1111  0.0646 -0.2025
 8987W        W24118   3.624  12.636   4.694  0.2718 -0.3228  0.1037
 8988W        W24119  14.316   8.618  10.321  0.2148  0.2904  0.2226
 8989W        W24120  17.417   0.796  11.100  0.2393 -0.1630  0.0576
 8990W        W24121   4.611   7.248   4.322 -0.2370  0.0000  0.1228
 8991W        W24122  17.744  10.207  11.342 -0.3216  0.0581  0.1778
 8992W        W24123   3.861   4.715  14.115  0.2126 -0.3115 -0.1459
 8993W        W24124   8.201  18.331  13.729 -0.1447  0.0530  0.2020
 8994W        W24125  14.914  11.092   0.939  0.0063 -0.1844 -0.2381
 8995W        W24126  14.624   3.092  14.551  0.1685  0.1121  0.0113
 8996W        W24127  11.013  16.818   1.718 -0.1217 -0.0547  0.1752
 8997W        W24128   2.735  16.611   2.194 -0.2403  0.0226 -0.2079
 8998W        W24129   6.972   2.765  11.847  0.0031 -0.0125 -0.2500
 8999W        W24130  14.787   1.600  12.465  0.0124 -0.2729  0.1375
 9000W        W24131   7.352  13.735  13.521 -0.0017 -0.0980  0.0397
 9001W        W24132   4.937   5.553   1.264  0.0971 -0.0031 -0.3797
 9002W        W24133   4.009   3.109   4.176 -0.2333  0.1287 -0.2992
 9003W        W24134   2.733  12.149  11.840  0.2252 -0.1394  0.1555
 9004W        W24135   3.612   2.585   1.504  0.2751  0.3182  0.0035
 9005W        W24136  17.880   4.088  10.858 -0.1035  0.0534 -0.1481
 9006W        W24137   2.463  14.779  15.724  0.0666  0.2726  0.0533
 9007W        W24138  14.042   5.193   1.049 -0.2279  0.2334  0.0853
 9008W        W24139   4.711   7.905  15.092  0.1108 -0.1507 -0.2249
 9009W        W24140  14.919   6.632  13.468  0.1510 -0.2426 -0.1151
 9010W        W24141   0.482   1.189  13.590 -0.1844  0.0437  0.2201
 9011W        W24142  16.207  14.692  14.457  0.3679 -0.0409  0.3064
 9012W        W24143   9.742   2.831  14.219 -0.1118 -0.2446  0.0490
 9013W        W24144   0.826   1.187   2.380 -0.1562  0.1431 -0.0063
 9014W        W24145   7.324   1.855   2.923 -0.0479 -0.2055  0.1616
 9015W        W24146  18.265  15.848  15.596 -0.0809 -0.2736  0.1338
 9016W        W24147   3.069   2.727   2.768 -0.1400  0.1061  0.0811
 9017W        W24148   3.258   4.749   3.335  0.0280 -0.0061 -0.0372
 9018W        W24149  15.818   0.112  12.069 -0.2284 -0.2103  0.3759
 9019W        W24150  18.398   6.613  11.614  0.2229 -0.0404  0.1563
 9020W        W24151  15.879  13.165   3.226  0.3083 -0.2731 -0.0978
 9021W        W24152  17.741  16.581  14.502  0.3010  0.1507  0.1041
 9022W        W24153   5.207  10.630   4.400 -0.1239 -0.1001 -0.0066
 9023W        W24154  18.363  17.750   5.000  0.4390 -0.1794 -0.0198
 9024W        W24155  12.914  14.561   3.253  0.0948 -0.3455  0.0099
 9025W        W24156  18.204   1.047  10.033  0.2762  0.1901  0.0566
 9026W        W24157   4.264   8.441  14.472  0.1282 -0.2236  0.0624
 9027W        W24158  13.936   4.948  14.642  0.0801  0.0198  0.3846
 9028W        W24159  13.145  17.810   2.450 -0.0835 -0.1286  0.0128
 9029W        W24160   3.119  17.422   2.227 -0.0541  0.3665 -0.0229
 9030W        W24161  17.294   1.994  12.986 -0.0231  0.1257  0.0565
 9031W        W24162  14.855  16.585   1.646 -0.1853  0.3287 -0.0006
 9032W        W24163  13.745   7.567  13.610 -0.2161  0.0796  0.1775
 9033W        W24164   4.521   7.787  11.415 -0.1391 -0.0050  0.1330
 9034W        W24165   5.315  11.881  13.801 -0.0603  0.4926  0.0599
 9035W        W24166   7.651  15.297  12.246  0.1394  0.0592  0.4254
 9036W        W24167   1.788  14.199   5.144  0.0193  0.0804  0.1406
 9037W        W24168  14.061   5.374  14.307  0.1033  0.0262 -0.4402
 9038W        W24169   4.931   8.473   1.938 -0.1190  0.0442 -0.0245
 9039W        W24170   5.587   3.987  13.145  0.1309  0.0164  0.1528
 9040W        W24171   2.814  14.811  15.165  0.0923 -0.0384 -0.2873
 9041W        W24172   1.401  16.349  14.954  0.0435  0.1269 -0.0190
 9042W        W24173   1.132  13.981  14.086  0.3945 -0.0013 -0.0022
 9043W        W24174   9.576  14.549  12.283 -0.2593  0.0941 -0.0842
 9044W        W24175  11.774   1.545   1.674  0.1293  0.3425 -0.1615
 9045W        W24176   4.306   0.220  12.174  0.1161 -0.3904 -0.0004
 9046W        W24177   8.739   0.193   5.180  0.2035 -0.5539  0.0032
 9047W        W24178   4.434   2.041  11.722  0.0017 -0.0630 -0.1450
 9048W        W24179  11.329   6.876   1.358  0.2203 -0.1315 -0.0298
 9049W        W24180   5.522  15.207   2.010 -0.0478  0.0404  0.3715
 9050W        W24181  16.309  18.257   3.813  0.1245  0.3482  0.3368
 9051W        W24182   2.126   8.997   2.982 -0.0925 -0.0550 -0.1007
 9052W        W24183   7.898  16.803  14.777  0.1895 -0.0821  0.1024
 9053W        W24184  13.136  18.531   3.971 -0.2367  0.0030  0.1335
 9054W        W24185  10.989   8.120  14.135  0.2502 -0.0863  0.1376
 9055W        W24186  10.807  15.441  11.378  0.0537 -0.1523  0.0332
 9056W        W24187  13.416   8.741  11.445  0.0043 -0.0995  0.0817
 9057W        W24188  14.828   8.392  13.617  0.1346 -0.0588  0.0445
 9058W        W24189   5.939   6.740  10.934  0.0913  0.1527 -0.0628
 9059W        W24190  15.094   1.502   4.565 -0.0784  0.2886  0.1347
 9060W        W24191  12.733   2.637  15.398 -0.1557 -0.2487 -0.0242
 9061W        W24192   3.506   2.798  12.217  0.3446 -0.1563 -0.0668
 9062W        W24193  12.681  13.010   1.882 -0.2422 -0.0375  0.0930
 9063W        W24194  11.204  14.522  13.126 -0.1187  0.0271 -0.3155
 9064W        W24195   5.234  13.371   1.016  0.0095 -0.1556 -0.2245
 9065W        W24196   3.523   4.822  13.810  0.0470 -0.1319  0.0242
 9066W        W24197   7.355   8.211  11.241  0.1772  0.0745 -0.0061
 9067W        W24198  13.480   2.901  13.427 -0.4362 -0.1465  0.2152
 9068W        W24199   3.100   8.135  13.348  0.2997 -0.1631 -0.1354
 9069W        W24200   7.006   9.544  12.620  0.2688  0.1208  0.3268
 9070W        W24201   4.547  12.938   4.971  0.0068 -0.1056  0.3611
 9071W        W24202   7.964  16.246  14.382  0.1261  0.3027 -0.0131
 9072W        W24203  16.153  13.284   5.888  0.1499  0.0279 -0.2340
 9073W        W24204  17.307   4.187   3.695 -0.0494  0.1355 -0.0719
 9074W        W24205   8.197   6.299   4.107  0.3368  0.1254  0.3508
 9075W        W24206  16.543   3.927  12.115 -0.2835 -0.0275  0.0980
 9076W        W24207   8.674  11.139  10.998 -0.0853  0.3053  0.0906
 9077W        W24208  15.478  14.044   1.979 -0.0496 -0.0246 -0.3378
 9078W        W24209  18.278  15.837   3.717  0.0791  0.2563 -0.0995
 9079W        W24210  12.598   8.131   4.410  0.1022 -0.0300 -0.2213
 9080W        W24211   2.296  14.613  10.109  0.2605  0.3966 -0.0937
 9081W        W24212  13.342  17.829  14.550  0.0393  0.0819 -0.2417
 9082W        W24213   1.526   9.997  12.882 -0.2519  0.0126 -0.3300
 9083W        W24214  13.630   5.208   5.036 -0.0492 -0.1110 -0.2233
 9084W        W24215   6.597   7.576   0.536  0.0166 -0.3752 -0.0587
 9085W        W24216   4.759  11.657  15.122  0.0091  0.0690  0.0437
 9086W        W24217   9.948   3.753  13.021 -0.0715  0.0125  0.2039
 9087W        W24218   7.751   3.678   3.420  0.1307  0.0485  0.1294
 9088W        W24219  18.204   1.025   2.351 -0.1067  0.0411 -0.2519
 9089W        W24220  10.910  12.364   4.785  0.0536 -0.2849 -0.1153
 9090W        W24221   6.514   7.382   5.469  0.3479  0.1813 -0.1117
 9091W        W24222   5.138   3.098   4.245 -0.1043 -0.4312  0.0835
 9092W        W24223   4.202   3.702  10.832  0.1922 -0.2094 -0.0931
 9093W        W24224   2.926  16.941  10.588 -0.1996 -0.1609  0.4686
 9094W        W24225   0.339  15.650  15.175 -0.0417 -0.1555  0.2434
 9095W        W24226  15.508  10.477  13.460 -0.1553 -0.1712 -0.0510
 9096W        W24227  15.844  14.912   0.602 -0.1958 -0.0403  0.1162
 9097W        W24228   4.672   4.954  15.671  0.0916 -0.1073  0.0904
 9098W        W24229   7.526   1.893  15.093  0.2804  0.1520 -0.2381
 9099W        W24230   2.245   2.625   3.605  0.1209 -0.3483 -0.2691
 9100W        W24231  12.216   8.358  10.901 -0.0518 -0.1444  0.0067
 9101W        W24232  10.705  10.823  11.697 -0.0683 -0.3158 -0.4980
 9102W        W24233   3.746  14.323  14.546 -0.1830 -0.1038 -0.3118
 9103W        W24234  10.112   3.789   2.078 -0.0188 -0.1058 -0.0069
 9104W        W24235  10.307  13.080   4.778  0.0963  0.2513 -0.1075
 9105W        W24236   6.334  10.778  11.184  0.0330 -0.2931  0.1842
 9106W        W24237  13.060   0.985   2.686 -0.0709 -0.0383  0.2021
 9107W        W24238  12.783   7.796   0.282  0.2557 -0.0571 -0.0228
 9108W        W24239  16.911  12.952   4.254 -0.0365 -0.1067 -0.1882
 9109W        W24240   4.186   1.518  10.485 -0.1858  0.2168  0.0509
 9110W        W24241   0.457   1.691   1.436  0.0559  0.2813  0.1130
 9111W        W24242  13.147  12.457   4.998  0.2330 -0.5526 -0.2000
 9112W        W24243  10.558  17.971  14.965  0.0369  0.0608 -0.0731
 9113W        W24244   1.766   9.705  11.454  0.0899 -0.1332 -0.0709
 9114W        W24245   2.499   7.715  13.248 -0.0787  0.1868 -0.0337
 9115W        W24246   9.339  16.717  11.273 -0.4562  0.0658  0.2147
 9116W        W24247   8.803   8.663  10.143  0.2393 -0.1540  0.1003
 9117W        W24248  13.036   8.404   4.301  0.0330  0.2516  0.3002
 9118W        W24249  16.110   5.840  14.824 -0.0867 -0.0894 -0.3524
 9119W        W24250  14.032  18.361  10.787  0.2652  0.0513 -0.1482
 9120W        W24251   0.542  11.040   3.859 -0.0391 -0.0038 -0.2779
 9121W        W24252  14.504  10.350  15.266 -0.0254 -0.1907 -0.3401
 9122W        W24253   2.611   8.893   0.564 -0.2184  0.1301  0.2210
 9123W        W24254   3.794   0.881  11.046  0.1688 -0.0627  0.1614
 9124W        W24255   9.451  17.878  15.727 -0.0999 -0.2023 -0.1295
 9125W        W24256  17.954  12.806  13.122 -0.0896  0.0331 -0.2680
 9126W        W24257  10.061   9.852  15.667  0.1738  0.0875 -0.1430
 9127W        W24258   9.186   4.235   5.184  0.1754 -0.0865 -0.2319
 9128W        W24259   5.927   9.262  10.939  0.0522  0.0903 -0.1481
 9129W        W24260  11.322  12.267  10.264 -0.2352 -0.0193  0.2513
 9130W        W24261   3.956  11.929  14.494 -0.2179  0.3998 -0.1062
 9131W        W24262   4.399  11.747  14.316 -0.1934 -0.1120  0.0698
 9132W        W24263  12.539  13.154  13.669  0.0455 -0.0789 -0.0838
 9133W        W24264   0.041  12.737   4.064 -0.2232  0.3399 -0.0984
 9134W        W24265  17.236   2.264   2.348  0.0120  0.1567  0.0135
 9135W        W24266  16.764   0.929   0.617  0.0808  0.0109 -0.1234
 9136W        W24267   5.992   1.988  11.536  0.2157 -0.1303  0.0635
 9137W        W24268   6.860   3.552   5.409 -0.0141  0.4023  0.0496
 9138W        W24269  10.567   4.175   4.815 -0.0054  0.1737  0.3336
 9139W        W24270   9.802  12.342  14.355  0.0089 -0.3991 -0.0053
 9140W        W24271   8.481   9.978  13.670  0.2855 -0.1170  0.1155
 9141W        W24272  15.776  13.483  12.389 -0.1430 -0.1256  0.0775
 9142W        W24273  12.626   5.685   1.299  0.0262 -0.0386 -0.2043
 9143W        W24274   4.344   9.914  13.388 -0.0839  0.0098 -0.2571
 9144W        W24275  10.035   4.820  11.400 -0.1454  0.5391 -0.1467
 9145W        W24276   9.522   9.120  15.605 -0.2471 -0.4080 -0.0746
 9146W        W24277   1.237   7.808  12.712 -0.0049  0.3096  0.1415
 9147W        W24278   6.697  15.375  11.319  0.1538 -0.1969  0.0114
 9148W        W24279  14.319  14.398  13.339 -0.1108 -0.1658 -0.2262
 9149W        W24280   4.100  16.512   2.572 -0.1149  0.0177  0.0434
 9150W        W24281  11.359   6.462   4.477  0.1772  0.1158  0.3402
 9151W        W24282  16.207  17.813  12.692  0.3854 -0.1324 -0.0591
 9152W        W24283  11.595   0.822   4.537  0.1614 -0.3033  0.4998
 9153W        W24284  11.239   8.077   4.110  0.1682 -0.3687 -0.0823
 9154W        W24285   9.885  10.171   2.627 -0.0086  0.0610  0.3118
 9155W        W24286   9.494  11.364   3.574  0.1238  0.0999 -0.1197
 9156W        W24287  15.438  13.072  12.339 -0.1098 -0.0117 -0.3670
 9157W        W24288   1.740  10.414  12.272  0.2190  0.1102 -0.1873
 9158W        W24289  12.168  12.798  13.515 -0.0793  0.0996  0.4091
 9159W        W24290   5.638  15.078   9.658  0.0534  0.1903 -0.1211
 9160W        W24291  13.370   2.124  12.967  0.1641 -0.3778  0.0393
 9161W        W24292   8.742  16.988   4.918 -0.2080  0.1175  0.1168
 9162W        W24293   5.639   4.042  13.647 -0.1376 -0.1361 -0.0058
 9163W        W24294   6.283   6.561   0.416  0.0951 -0.0609 -0.0259
 9164W        W24295  10.048   7.017   3.038  0.1127 -0.0844 -0.1607
 9165W        W24296  13.308  12.271   1.719  0.3339  0.0815 -0.1719
 9166W        W24297  10.913   1.394   3.346  0.0124  0.0674 -0.1052
 9167W        W24298   7.943   6.474   5.904  0.0837 -0.2169 -0.3149
 9168W        W24299   6.084   5.990   2.914 -0.1493  0.2138 -0.3303
 9169W        W24300  10.566   7.979   5.737 -0.0336 -0.0054  0.0585
 9170W        W24301  16.344   5.451   1.846  0.0828  0.0092 -0.3262
 9171W        W24302   0.514  10.311   2.062 -0.1670  0.3508  0.0099
 9172W        W24303  15.796  15.926   3.676  0.1785 -0.1096  0.1008
 9173W        W24304  16.934   8.652  11.214  0.0188  0.0304 -0.3112
 9174W        W24305   9.069  17.617  10.722 -0.1888  0.0514  0.0835
 9175W        W24306   2.064   6.313   4.569  0.0352  0.0202  0.1472
 9176W        W24307  18.540  13.043  11.799  0.1200  0.0243 -0.2186
 9177W        W24308   3.321  10.365   2.512 -0.0160  0.2316 -0.3426
 9178W        W24309  15.150  10.272   3.976  0.1095  0.1618 -0.2711
 9179W        W24310  16.600  15.760   3.751  0.0073  0.0624 -0.0614
 9180W        W24311   4.595   0.180   3.134  0.0188  0.2830  0.1765
 9181W        W24312   6.153  17.844  15.626 -0.2225 -0.0120 -0.0970
 9182W        W24313  16.873  10.792   3.477 -0.2430 -0.2589 -0.0547
 9183W        W24314   3.068   8.282   1.115 -0.1123 -0.2164 -0.0380
 9184W        W24315   0.040  10.057   0.730 -0.2880 -0.1467  0.0916
 9185W        W24316  14.313  16.465   3.290  0.3255  0.1995  0.1629
 9186W        W24317  17.845   4.782  13.138  0.1525  0.2345 -0.1242
 9187W        W24318   5.104   7.591   4.566 -0.0320  0.1501 -0.6152
 9188W        W24319  13.296   4.242   1.459 -0.2162  0.4021  0.0188
 9189W        W24320  10.500  15.273   1.040  0.0183  0.4528  0.0065
 9190W        W24321  14.976   8.034   3.862 -0.0866  0.3528 -0.2286
 9191W        W24322   2.253   5.418   1.879 -0.2686 -0.0140 -0.2791
 9192W        W24323  13.886   3.126  13.140 -0.1899 -0.1909  0.2352
 9193W        W24324  10.375  13.046  12.551 -0.1031 -0.0434 -0.5062
 9194W        W24325  12.635   2.802  13.508  0.0318  0.3858  0.0902
 9195W        W24326  11.397  11.872  13.455 -0.1406 -0.0006 -0.1995
 9196W        W24327   1.104   7.843   0.717 -0.0334 -0.4093 -0.3133
 9197W        W24328   6.371   8.887   1.899 -0.1322  0.1988  0.2074
 9198W        W24329   5.421   6.048   0.517 -0.1859  0.1390  0.0659
 9199W        W24330   8.876   3.439   2.951 -0.0470 -0.0599  0.1317
 9200W        W24331   0.302  12.271   4.881 -0.1416  0.2371  0.5304
 9201W        W24332  11.785   5.532   3.010 -0.0879 -0.0902  0.0854
 9202W        W24333  11.036   7.858   4.521 -0.1965  0.2268 -0.3724
 9203W        W24334  13.847   0.607   4.968 -0.0291  0.1788  0.2265
 9204W        W24335   2.482   0.746   5.497  0.1831 -0.0296  0.1838
 9205W        W24336  12.642  16.862   4.046 -0.1351  0.2269 -0.1024
 9206W        W24337   9.329   1.986   0.011  0.0607  0.0013 -0.2056
 9207W        W24338   6.376   4.251  11.942 -0.1980 -0.1412 -0.1223
 9208W        W24339  11.282  12.182   1.312 -0.0485 -0.0666 -0.0595
 9209W        W24340  15.287   7.992   5.170  0.0199 -0.0982 -0.1858
 9210W        W24341   5.110   6.650  13.986  0.0751 -0.2055 -0.0289
 9211W        W24342  13.144  14.241  15.495 -0.0285 -0.0534  0.0182
 9212W        W24343  14.325   1.239  14.945  0.0221 -0.0198  0.1420
 9213W        W24344  17.266  15.194   2.068  0.0354  0.4779 -0.0506
 9214W        W24345  13.202   6.259   3.027 -0.0524  0.0476 -0.0719
 9215W        W24346   6.299  15.393  12.722 -0.4664 -0.0497 -0.0064
 9216W        W24347   2.495   9.142   3.600 -0.2871  0.0792  0.2967
 9217W        W24348   1.444  12.949   5.644  0.4139  0.2177 -0.1064
 9218W        W24349   9.052   3.097   3.265 -0.0799 -0.1261 -0.0686
 9219W        W24350  17.540  11.012  12.465  0.0331  0.0867 -0.0199
 9220W        W24351  16.595  12.425  14.296  0.0843 -0.0667  0.0853
 9221W        W24352  16.608  18.271   0.552 -0.1500  0.0311  0.1695
 9222W        W24353  14.180  14.830   3.976  0.0809 -0.2234  0.1795
 9223W        W24354  10.282   5.398  12.942 -0.2597 -0.3070 -0.0272
 9224W        W24355  12.554  16.770   1.492 -0.1136 -0.0978  0.0266
 9225W        W24356   8.301   3.460   4.589  0.1859 -0.1019 -0.0034
 9226W        W24357   0.141  12.290   3.606 -0.0021 -0.3379  0.0623
 9227W        W24358  11.227  16.134  14.190 -0.2660 -0.1377  0.0880
 9228W        W24359  11.535  14.569   3.174 -0.0036 -0.1938 -0.5032
 9229W        W24360   7.881  18.125  13.372 -0.2502  0.0670 -0.1748
 9230W        W24361   8.670   8.138  11.680  0.2518 -0.0383  0.1266
 9231W        W24362   5.915  13.174   9.596 -0.2033  0.1138 -0.0911
 9232W        W24363  10.196   7.236   5.040 -0.1190  0.2449  0.0188
 9233W        W24364   7.179  11.893   3.010  0.0782  0.2849  0.0140
 9234W        W24365  16.812   3.315  12.891  0.3005  0.1171 -0.4800
 9235W        W24366   1.873   7.858  11.130 -0.0754  0.0345  0.2399
 9236W        W24367  11.636   0.663  13.632 -0.1496  0.0134 -0.0726
 9237W        W24368  10.392   9.111  14.458  0.0820  0.0977 -0.1123
 9238W        W24369  13.982   0.407  12.137 -0.3359 -0.0460 -0.1132
 9239W        W24370   9.104   2.073   4.923  0.1642  0.3549  0.0620
 9240W        W24371  16.909   1.153  13.142  0.0781  0.0159  0.1468
 9241W        W24372   1.730   4.632   2.485  0.1764 -0.0574  0.0002
 9242W        W24373   2.294   5.064  10.928  0.1864  0.1994 -0.3439
 9243W        W24374  12.818   0.070  15.536  0.0853  0.0170  0.1053
 9244W        W24375   6.007  16.166  13.135  0.3075 -0.1617 -0.0116
 9245W        W24376  14.408   2.092   5.337  0.1771 -0.1523 -0.0989
 9246W        W24377   2.768   3.804   5.760 -0.0181  0.1209 -0.0418
 9247W        W24378  11.543  13.999   0.401 -0.0612  0.2249  0.1525
 9248W        W24379   5.379   3.766   1.837  0.3109  0.1681 -0.1999
 9249W        W24380   7.271   5.691   5.131 -0.1133 -0.0076 -0.0399
 9250W        W24381   6.128  13.632   9.601 -0.1980  0.0548 -0.0100
 9251W        W24382  15.402  17.718   0.408 -0.1892  0.2568  0.1720
 9252W        W24383   1.703   3.160  15.153 -0.1350  0.2611 -0.0442
 9253W        W24384   6.163  11.480   4.178  0.1017 -0.1881  0.1739
 9254W        W24385   3.538   2.360   3.735 -0.0806 -0.0261 -0.0836
 9255W        W24386  10.527  16.139   1.246 -0.0170  0.0213 -0.0431
 9256W        W24387  12.809   0.665   4.330 -0.2005  0.0047 -0.0032
 9257W        W24388   4.536   7.067   2.672  0.1755 -0.3800  0.1284
 9258W        W24389   8.600   3.117   4.252  0.0552  0.1420  0.0457
 9259W        W24390   4.673   5.058   5.709 -0.3533  0.0109  0.3588
 9260W        W24391   1.821   0.274   5.210  0.0823  0.1187  0.1342
 9261W        W24392  11.894   8.888   4.642  0.2233  0.2757 -0.2265
 9262W        W24393  18.195  12.746  15.223  0.1600  0.0909 -0.0315
 9263W        W24394   4.929  15.642   5.332 -0.1778 -0.1817 -0.3240
 9264W        W24395   4.240   2.757   1.620  0.1493 -0.0439 -0.2183
 9265W        W24396  14.695   7.559  14.247  0.0017 -0.1866 -0.2957
 9266W        W24397   6.375   9.082  14.891  0.1438 -0.1656 -0.3842
 9267W        W24398   4.892   6.146   0.323 -0.2832 -0.1842 -0.4177
 9268W        W24399   2.413   7.806   3.254  0.1133  0.1156  0.1394
 9269W        W24400   7.168   7.032  10.075  0.6456  0.0184 -0.1346
 9270W        W24401   6.961   2.847   1.427 -0.1483 -0.1095  0.1386
 9271W        W24402  13.838   1.663  13.366  0.5575  0.1243  0.3845
 9272W        W24403  10.278  15.848   4.158 -0.0680 -0.0529 -0.0214
 9273W        W24404  11.812  10.201  13.563 -0.0137  0.3373 -0.0315
 9274W        W24405   7.745  14.150   1.044 -0.0096 -0.1679  0.0621
 9275W        W24406   4.711  18.033  13.180 -0.0001  0.0100  0.0268
 9276W        W24407  17.717  15.556   5.437 -0.0973 -0.1142 -0.2310
 9277W        W24408   6.046   9.575   3.117 -0.1303  0.1650 -0.0814
 9278W        W24409  15.358   6.633   2.150  0.0631 -0.0324  0.1343
 9279W        W24410  17.234  13.773   2.856 -0.0066 -0.0459 -0.0620
 9280W        W24411   0.033   2.440   5.140  0.2066 -0.1854  0.0099
 9281W        W24412   8.075   0.868  14.576 -0.1301 -0.1523 -0.1843
 9282W        W24413   6.098  13.591  11.199  0.0687 -0.2533  0.0238
 9283W        W24414   1.371  17.143   3.364 -0.2413  0.3931  0.0901
 9284W        W24415   0.871  14.366   6.171  0.0408  0.1813  0.0207
 9285W        W24416   9.483  12.854   1.841 -0.1827  0.0119  0.2660
 9286W        W24417   3.510  10.829  14.881  0.0070 -0.0046 -0.1701
 9287W        W24418  11.531  10.615  11.273  0.0988 -0.0521 -0.3252
 9288W        W24419   2.934  11.619  14.086 -0.0012 -0.1753 -0.1093
 9289W        W24420  15.677  14.312  13.980 -0.3231  0.0285  0.0644
 9290W        W24421   0.816   0.653  10.812  0.3438  0.0310 -0.1441
 9291W        W24422   7.667   1.727  10.699 -0.1484 -0.0978 -0.2677
 9292W        W24423   1.594  12.122   3.894 -0.0315 -0.1457  0.0440
 9293W        W24424   3.029   5.114   3.557  0.1164 -0.0140  0.1253
 9294W        W24425  16.691   1.940   4.430  0.3187  0.0618  0.0617
 9295W        W24426   3.703  11.431  10.680 -0.2295  0.2150  0.2844
 9296W        W24427  17.157  15.423  10.749  0.0924 -0.2109 -0.2607
 9297W        W24428   9.671  12.497   4.361  0.3225  0.1267  0.1096
 9298W        W24429  10.394   7.551   4.602 -0.0943 -0.1851  0.0898
 9299W        W24430  16.056  17.408   3.920 -0.3437  0.4036 -0.0789
 9300W        W24431   0.909  16.808  11.105  0.0526  0.1627  0.0129
 9301W        W24432   5.983  10.664   3.794  0.1101 -0.2789  0.1580
 9302W        W24433   3.534  15.531  15.145 -0.0734 -0.3988  0.1334
 9303W        W24434  11.789   5.473   2.472  0.0996 -0.2204 -0.1636
 9304W        W24435   7.147  13.367  13.134 -0.1332  0.2965  0.1115
 9305W        W24436   4.682   1.210   1.779  0.4141  0.2329  0.2914
 9306W        W24437  13.168   5.609  14.441 -0.0241  0.0208 -0.2261
 9307W        W24438  10.246  17.611   2.921  0.0033  0.0049 -0.0527
 9308W        W24439  15.460   7.865   2.948  0.1048  0.0622 -0.1413
 9309W        W24440  14.826  18.439   2.873  0.2231 -0.4169 -0.1241
 9310W        W24441  11.230  16.420  10.924  0.2256  0.1782  0.0396
 9311W        W24442   0.660   0.687  14.323 -0.2616  0.0335  0.2755
 9312W        W24443   9.744  10.173  12.794  0.1946 -0.1481  0.0370
 9313W        W24444  16.475  18.310   6.148 -0.0656  0.1731  0.2392
 9314W        W24445   7.370  14.590  15.685 -0.1891  0.1863 -0.0276
 9315W        W24446   0.996   7.086  11.380  0.0359 -0.0040  0.1080
 9316W        W24447   1.963   1.417  12.807 -0.1368  0.2352 -0.1924
 9317W        W24448  15.166   4.611   3.411  0.1207 -0.1111 -0.0272
 9318W        W24449   2.231   2.944  10.690 -0.1785  0.2074  0.0372
 9319W        W24450   2.730  18.390   1.466  0.0020 -0.0130 -0.1454
 9320W        W24451  16.207  12.429  15.836  0.2198  0.1313  0.2567
 9321W        W24452   3.263  12.725  12.928 -0.0844  0.1615 -0.0526
 9322W        W24453   6.687  17.278   1.056 -0.0891 -0.1288  0.0064
 9323W        W24454  15.346   2.842  14.786 -0.0296 -0.2646 -0.1942
 9324W        W24455  15.835  18.324  15.357 -0.1588 -0.1747 -0.0120
 9325W        W24456  14.379   4.150  12.001 -0.1446 -0.0181  0.0459
 9326W        W24457   9.318   0.091  15.569  0.0063  0.0416 -0.2683
 9327W        W24458  14.951   2.229   4.142  0.1451 -0.0230  0.1489
 9328W        W24459   4.542  17.428  13.851 -0.0472 -0.2806 -0.0603
 9329W        W24460  17.697  17.582   1.494  0.2099 -0.3075  0.1235
 9330W        W24461  15.860   7.355   3.117 -0.0005 -0.0688  0.1744
 9331W        W24462  11.361   8.439   3.310 -0.3079 -0.0438  0.3788
 9332W        W24463  10.511  12.463  15.041  0.0068 -0.2254  0.0811
 9333W        W24464   1.596  11.036   2.790 -0.3047  0.2835  0.0161
 9334W        W24465   2.557  13.479  15.854  0.3717 -0.0007 -0.0025
 9335W        W24466  15.849  16.787  14.280  0.1637 -0.0275  0.0119
 9336W        W24467   5.332  16.246  13.500  0.0604  0.0259  0.4320
 9337W        W24468  12.545   4.365   0.475  0.1029 -0.0964  0.0911
 9338W        W24469  16.629   7.510   2.222  0.2729 -0.0807  0.0313
 9339W        W24470  14.792   2.024   3.699  0.0492  0.0511 -0.2939
 9340W        W24471  16.546  16.305   5.915 -0.0914 -0.2684 -0.3542
 9341W        W24472  17.136   6.764   5.131  0.2332  0.4987  0.1081
 9342W        W24473  11.237   2.761   1.681 -0.3525 -0.0818 -0.1520
 9343W        W24474   7.290  11.753   0.019 -0.0894  0.1992  0.1526
 9344W        W24475   2.055  14.911  14.744  0.3103  0.3123 -0.0149
 9345W        W24476  17.316   7.934  11.478 -0.1075  0.2082  0.0980
 9346W        W24477  18.253   8.938  11.406  0.3035  0.1423 -0.0639
 9347W        W24478   1.897  17.669   1.971 -0.1001 -0.0679  0.2400
 9348W        W24479  14.443  12.998   2.904  0.0305 -0.0196 -0.3161
 9349W        W24480   0.916  17.021  14.858  0.0886  0.0000  0.2045
 9350W        W24481   3.961   8.533  14.891  0.2095  0.1783 -0.2206
 9351W        W24482  13.836   3.971   5.314 -0.3063  0.4449  0.1903
 9352W        W24483   8.465   2.006  12.628  0.2060  0.0774  0.1877
 9353W        W24484  14.471   7.905   4.881 -0.2012 -0.0342  0.0127
 9354W        W24485   8.342   7.255   1.066  0.1414  0.1241 -0.2516
 9355W        W24486  13.463   1.317   0.765  0.1526  0.3693 -0.0254
 9356W        W24487  14.819  16.433  12.980  0.1434  0.2237 -0.0413
 9357W        W24488   4.785   5.178   0.574 -0.1321  0.2012  0.2653
 9358W        W24489  18.495  12.081   2.317  0.4175 -0.3120  0.1144
 9359W        W24490  10.623  14.876   2.535 -0.0383  0.0764 -0.2203
 9360W        W24491   9.326  16.128   4.570  0.0387 -0.0236 -0.0778
 9361W        W24492   4.076  14.387   5.022  0.3806 -0.0944  0.1965
 9362W        W24493   5.810  16.026   4.725  0.1199  0.0213 -0.1391
 9363W        W24494   9.070  15.961   2.858  0.1568  0.1800  0.4823
 9364W        W24495  11.176   4.960   3.426 -0.2376 -0.0870  0.0839
 9365W        W24496   9.120  14.750  11.093 -0.0100  0.0676 -0.1072
 9366W        W24497   0.814   8.253  11.625 -0.0217  0.2461  0.5013
 9367W        W24498   1.987  17.847   1.499  0.3005 -0.3126  0.0245
 9368W        W24499  15.497  11.347  11.099 -0.1043  0.0598  0.0101
 9369W        W24500   1.320   8.608   4.091  0.2339  0.1318  0.0082
 9370W        W24501   2.881   6.983  13.169 -0.2173  0.2160 -0.1576
 9371W        W24502   2.634   8.980   2.787  0.0487  0.0150  0.0548
 9372W        W24503  15.136  12.616   0.740 -0.1154 -0.1471 -0.0110
 9373W        W24504   8.689  15.110   9.725 -0.1533  0.2716 -0.0268
 9374W        W24505  13.418   3.196  11.703 -0.0401  0.0014 -0.0439
 9375W        W24506  17.927  10.398   4.247  0.1533 -0.2708  0.1085
 9376W        W24507   8.927   2.334  13.985  0.2142  0.0713 -0.0591
 9377W        W24508  11.255  13.407  14.363  0.0677  0.1038 -0.0220
 9378W        W24509  12.254   7.463  14.535 -0.1240 -0.0768  0.1224
 9379W        W24510  15.536   3.314   0.306 -0.3333  0.0066  0.0734
 9380W        W24511   4.145   9.728  11.541 -0.1101  0.3072 -0.2133
 9381W        W24512  13.315   9.027  10.576  0.2430  0.1859  0.0922
 9382W        W24513  14.695  13.470   3.600 -0.2844 -0.2811  0.0898
 9383W        W24514   4.514  13.632  11.773  0.0152 -0.0266 -0.2150
 9384W        W24515  12.377  12.823   3.561 -0.2908  0.0492  0.3386
 9385W        W24516   2.753  17.997   0.268 -0.1500 -0.2129 -0.2252
 9386W        W24517  12.902   4.314   5.117  0.0825 -0.2648 -0.0143
 9387W        W24518   5.819   4.825   0.137  0.1027 -0.2981 -0.1334
 9388W        W24519   1.331  14.829   3.036 -0.0400  0.0747  0.1036
 9389W        W24520   7.621  12.704  15.813  0.1582 -0.0748 -0.0432
 9390W        W24521   1.274   3.350  12.781  0.1667 -0.1647 -0.2725
 9391W        W24522  11.451   0.388   4.708  0.2299  0.1704  0.0827
 9392W        W24523  13.478  16.372   9.648  0.0109  0.3488  0.1464
 9393W        W24524  11.647  13.190   0.284  0.2411  0.2346 -0.1038
 9394W        W24525   0.247   6.740   4.938 -0.0593  0.1056  0.1090
 9395W        W24526   5.392   4.698  14.219  0.0414  0.1965  0.0243
 9396W        W24527   9.335   9.436   2.450 -0.0904  0.0619  0.1540
 9397W        W24528   8.880  15.272  11.999 -0.1396  0.1260  0.0329
 9398W        W24529   4.856   8.647   1.435  0.0141  0.0208  0.0003
 9399W        W24530  17.294  10.192   1.398  0.1790  0.2434 -0.1638
 9400W        W24531   1.018  11.588   2.237 -0.0521  0.1186 -0.2371
 9401W        W24532   8.022   5.616  13.311 -0.1593  0.0455  0.0428
 9402W        W24533   8.199   7.048   3.341 -0.0918  0.3021  0.1667
 9403W        W24534   0.243   5.544   1.780  0.0633 -0.2331  0.1206
 9404W        W24535  14.729   8.837   5.773 -0.0357 -0.0567  0.0429
 9405W        W24536  15.034   6.485   2.962  0.0855  0.3093  0.2512
 9406W        W24537  11.770   8.091   5.167 -0.2448 -0.5115 -0.0634
 9407W        W24538   3.243   6.495  11.184 -0.1362 -0.1171 -0.0238
 9408W        W24539   4.479  10.778  12.250 -0.1706 -0.1993  0.0156
 9409W        W24540  14.082   6.331  14.999 -0.1368 -0.0424  0.0041
 9410W        W24541   7.779   2.823   2.478 -0.0883  0.1143  0.0168
 9411W        W24542   5.030  17.929   1.250  0.0052  0.1474 -0.0710
 9412W        W24543  14.804  16.746  15.416  0.2020 -0.0565 -0.0838
 9413W        W24544   5.728   9.482  14.077  0.2198 -0.1388  0.0031
 9414W        W24545   7.096   0.945   1.204  0.2328  0.0980 -0.0011
 9415W        W24546   1.749   3.143   1.534  0.4719 -0.0129  0.1975
 9416W        W24547   2.038   8.506   2.959 -0.2555 -0.2392 -0.0687
 9417W        W24548   9.671   5.980   0.097  0.2102 -0.3415  0.3152
 9418W        W24549  15.629  16.083  11.618  0.0613 -0.0449 -0.2167
 9419W        W24550  16.672  12.710   3.256 -0.0588  0.1216  0.2390
 9420W        W24551  17.870  11.099   1.550 -0.1978  0.0067  0.0221
 9421W        W24552   9.298   1.995   1.880 -0.0005 -0.4074  0.0631
 9422W        W24553  14.055  16.055   1.668 -0.0635  0.1640 -0.1307
 9423W        W24554  10.994   2.172   1.590  0.1029 -0.2002  0.0785
 9424W        W24555   6.131   8.555  11.133  0.0864  0.1158  0.3121
 9425W        W24556   2.700   4.139  12.348 -0.0526  0.1749 -0.0261
 9426W        W24557   8.026   9.011  14.553 -0.3570 -0.0188 -0.0718
 9427W        W24558  12.783   5.483   4.563  0.1598  0.0695  0.1874
 9428W        W24559  12.814   6.848   5.096 -0.2935  0.3265  0.0119
 9429W        W24560   8.496   2.500   2.800  0.1549  0.1080 -0.2355
 9430W        W24561   4.073  12.135  12.591  0.1424 -0.3128  0.0415
 9431W        W24562  14.108  10.880   4.364 -0.1743  0.0869  0.2383
 9432W        W24563  16.911  15.541  15.185 -0.3096 -0.4378  0.3916
 9433W        W24564  12.268  12.438   4.698 -0.1087  0.0578 -0.1508
 9434W        W24565   5.156  10.877   3.504 -0.1467  0.1221  0.0177
 9435W        W24566   0.092   4.795   1.101  0.0909 -0.2906  0.0217
 9436W        W24567  14.321  10.827  12.175 -0.0350 -0.4098  0.0378
 9437W        W24568   5.450  12.795   0.941 -0.1765 -0.0725  0.1497
 9438W        W24569   0.628  13.715   3.309 -0.1696 -0.3452  0.1930
 9439W        W24570   2.602   9.408   3.171  0.0408  0.0542  0.1212
 9440W        W24571   5.456   7.779  14.451  0.2555  0.2241  0.5849
 9441W        W24572   8.780  13.543   3.147  0.1632  0.3199  0.2186
 9442W        W24573   3.547  17.076  14.254 -0.1718 -0.1275 -0.2027
 9443W        W24574   8.734   1.268  10.621  0.1544  0.4005  0.3108
 9444W        W24575   7.590  16.259  13.567 -0.1255 -0.1191 -0.0670
 9445W        W24576   8.966   1.969   4.092 -0.0970 -0.4113 -0.1040
 9446W        W24577  12.697  12.226  11.874  0.2326 -0.1356  0.0088
 9447W        W24578   8.091   3.403   5.751 -0.1290 -0.0168 -0.0927
 9448W        W24579   2.212  13.288  12.425 -0.2602 -0.1162 -0.4947
 9449W        W24580  17.827  16.620   1.218  0.2096  0.0978  0.0082
 9450W        W24581  11.719   5.392   3.674  0.0383  0.0659  0.2181
 9451W        W24582  16.482   1.463   1.946  0.2548  0.1106 -0.0317
 9452W        W24583   5.138  13.985  15.576  0.1685 -0.2825 -0.0657
 9453W        W24584   9.449  16.983  12.191  0.2183  0.0219 -0.3584
 9454W        W24585  13.456  17.266  15.411  0.0309  0.0328  0.2764
 9455W        W24586   1.589   6.862  11.510  0.1011  0.2292  0.0857
 9456W        W24587   6.082  13.600   1.449  0.0522 -0.1176  0.2588
 9457W        W24588   3.714   3.639  10.072  0.0139 -0.1195  0.0862
 9458W        W24589  16.579   6.940   4.392 -0.0767  0.0045 -0.3098
 9459W        W24590   7.062   0.331   9.656 -0.0163 -0.1847  0.0161
 9460W        W24591   1.819  17.236  13.796  0.0744 -0.0559 -0.0566
 9461W        W24592   4.566  11.691   4.317  0.2699  0.1488  0.2458
 9462W        W24593   6.607   1.184   3.284 -0.1181  0.0015  0.0243
 9463W        W24594  17.425   8.702   1.976 -0.3380  0.0314 -0.0062
 9464W        W24595  14.821   4.271   2.609  0.0208 -0.1486  0.1596
 9465W        W24596  11.649  16.719  12.167 -0.0751 -0.0387 -0.3089
 9466W        W24597   1.623   4.609   4.681 -0.1032  0.0881  0.1522
 9467W        W24598   5.260   7.587   2.095 -0.0554 -0.1565  0.3143
 9468W        W24599  13.702   3.283  10.246  0.1597  0.3827  0.1817
 9469W        W24600  15.891  13.511  11.046  0.1378 -0.1326  0.0981
 9470W        W24601  11.812  17.632   1.985  0.1294  0.0216 -0.0936
 9471W        W24602   7.677   7.979   2.067 -0.1672  0.1762  0.1730
 9472W        W24603   3.212  16.296  14.928  0.2054  0.0297  0.1982
 9473W        W24604   2.899  15.976   1.488  0.0883 -0.0281  0.0064
 9474W        W24605   5.914  12.796   0.542  0.1038  0.2668  0.0692
 9475W        W24606  17.227  10.349   4.337  0.0862 -0.0977  0.0387
 9476W        W24607  10.702  10.385  12.073  0.3731  0.1550 -0.0378
 9477W        W24608  12.225   4.914  12.801  0.0600  0.0315  0.1996
 9478W        W24609  14.530  14.901  15.542 -0.2189  0.1379 -0.1555
 9479W        W24610   8.430   4.184  12.242 -0.2467 -0.1265  0.0653
 9480W        W24611   6.330  15.397   0.348 -0.0289 -0.0073  0.2659
 9481W        W24612   9.380   0.100   2.683  0.2142  0.1772  0.1047
 9482W        W24613   4.550  13.176  11.159  0.4017  0.0122  0.0146
 9483W        W24614   9.868   4.701   4.454 -0.2913 -0.1719  0.2151
 9484W        W24615   5.187  14.787  11.966 -0.1074 -0.0431  0.0810
 9485W        W24616  10.245   4.249   3.522 -0.0904  0.0323 -0.3211
 9486W        W24617  16.956   6.110  12.756 -0.0410  0.0621  0.0616
 9487W        W24618  10.520   2.814  15.189 -0.1598  0.0374 -0.1825
 9488W        W24619  14.323  15.235  13.884  0.0791 -0.0203 -0.0063
 9489W        W24620   5.729   4.682  14.755  0.3021 -0.3963 -0.0969
 9490W        W24621   2.627   9.627  13.556  0.2050  0.0610 -0.1397
 9491W        W24622  15.122  15.001   4.311 -0.0056  0.2849 -0.3353
 9492W        W24623  13.231   2.519   4.704  0.0715 -0.2594 -0.0110
 9493W        W24624   1.579  11.273   9.965  0.0073 -0.3545  0.0387
 9494W        W24625   4.193   3.240   1.480 -0.1880  0.1400 -0.2272
 9495W        W24626   6.094   9.993   0.458 -0.1206  0.2820 -0.0182
 9496W        W24627  12.540   0.030  13.364  0.2128 -0.0654 -0.2161
 9497W        W24628   5.891  12.041  13.191  0.1984  0.1860 -0.2846
 9498W        W24629  12.835   8.239   2.020 -0.0893  0.1169 -0.2825
 9499W        W24630   7.413   2.638  15.615 -0.0141  0.2638  0.0475
 9500W        W24631   8.072  14.399  10.887 -0.1285  0.3917 -0.0711
 9501W        W24632   8.339   9.737  11.242  0.1624 -0.2891  0.0351
 9502W        W24633  17.016  15.246   4.315  0.1126 -0.0982 -0.0291
 9503W        W24634   1.910   5.790   0.929 -0.0729 -0.3039  0.2062
 9504W        W24635  17.746   7.698   4.202 -0.1521  0.1554  0.1622
 9505W        W24636  17.059   6.489   2.913  0.0882 -0.0945 -0.0630
 9506W        W24637   0.478   3.278  15.483  0.3962  0.3568  0.1381
 9507W        W24638  18.161   6.880  12.765  0.1765  0.0256  0.0791
 9508W        W24639   4.280   7.137   3.969  0.0748 -0.3655 -0.0817
 9509W        W24640  17.569   9.786   5.158 -0.0867 -0.2918 -0.1856
 9510W        W24641   4.485   0.086  14.875 -0.1127 -0.1341 -0.0075
 9511W        W24642  12.330   9.408  13.560 -0.1096 -0.1514  0.2278
 9512W        W24643   6.138   3.196  13.707  0.1460  0.0191  0.2210
 9513W        W24644   6.498  11.350   3.324  0.1476 -0.1277 -0.1372
 9514W        W24645   3.781  17.291   3.865  0.1491 -0.2467  0.0690
 9515W        W24646  14.054  10.075  15.045  0.1098  0.1778 -0.2877
 9516W        W24647   7.319  10.031   4.581 -0.0456  0.1646  0.1598
 9517W        W24648   0.511   1.434   2.093  0.1442  0.2486  0.1474
 9518W        W24649   8.354  10.985  12.705  0.0985  0.2368 -0.2916
 9519W        W24650  12.584  16.360   2.232 -0.0397 -0.0223 -0.0532
 9520W        W24651  14.001   3.002  13.611  0.0194  0.1283 -0.0904
 9521W        W24652   4.301   3.460   3.999  0.2391  0.4276  0.1984
 9522W        W24653   5.692  12.517   2.111  0.0482 -0.0800 -0.0836
 9523W        W24654   9.499   6.233  13.806 -0.0386  0.0185  0.4475
 9524W        W24655   9.702   2.318   0.864 -0.4710  0.0084  0.0095
 9525W        W24656   0.456  16.658  11.221 -0.3088 -0.1221  0.0185
 9526W        W24657   5.275   6.180  14.931  0.0242  0.4229  0.0983
 9527W        W24658  17.789  11.118   3.552 -0.2327 -0.3190 -0.0816
 9528W        W24659   8.069  17.536  11.062 -0.0531 -0.2241 -0.3671
 9529W        W24660   4.842  10.813  13.654  0.1681 -0.2412 -0.1675
 9530W        W24661   5.824   0.453   3.675 -0.3522  0.1327 -0.1485
 9531W        W24662   1.890   8.568  13.580 -0.0153  0.2977  0.1054
 9532W        W24663  16.775   3.113   3.685 -0.2070 -0.1881 -0.0698
 9533W        W24664  10.002   9.042   2.154 -0.0007 -0.0965 -0.1900
 9534W        W24665  18.448   7.065   4.043 -0.1154  0.0089 -0.0108
 9535W        W24666   7.903   9.463  12.496 -0.0098  0.3433  0.1665
 9536W        W24667  15.104   2.669   0.136 -0.2543 -0.0508 -0.3203
 9537W        W24668   6.755   7.290  14.881 -0.0590  0.0187 -0.1135
 9538W        W24669  17.638  13.418  11.258  0.0644  0.1770  0.1462
 9539W        W24670  15.444   5.274   3.907  0.1102 -0.2290 -0.1663
 9540W        W24671   9.467   3.142  12.203  0.3312 -0.2760  0.0260
 9541W        W24672  14.899   1.547   1.566 -0.0034  0.1269  0.1615
 9542W        W24673   8.595   9.650  15.330  0.1329  0.0233  0.3190
 9543W        W24674   4.917  14.645   4.992 -0.2021 -0.0481 -0.0540
 9544W        W24675   7.554   1.224   1.039  0.1443  0.0336 -0.1451
 9545W        W24676   9.032  17.751   4.310 -0.1622  0.2012 -0.3208
 9546W        W24677   6.776   7.096   1.294  0.3626 -0.0249  0.1293
 9547W        W24678   8.400  14.070  13.400  0.1661 -0.0135 -0.2175
 9548W        W24679   4.214   1.170  11.916 -0.1793 -0.3899  0.3173
 9549W        W24680   1.995  11.797   0.263 -0.0080 -0.0614  0.3211
 9550W        W24681   1.685   1.207  13.565  0.1563 -0.0614 -0.1567
 9551W        W24682  13.535  15.633   1.384  0.0264  0.0881  0.2528
 9552W        W24683  12.835   5.626   2.239 -0.2144 -0.0959 -0.0455
 9553W        W24684   5.565  12.359  15.138  0.0441  0.3381  0.0171
 9554W        W24685   4.582   0.152   0.917  0.3384 -0.0875 -0.2044
 9555W        W24686  13.071   3.180  12.178 -0.1203  0.1757  0.1124
 9556W        W24687   7.607   9.784  14.528 -0.3029  0.1373 -0.1621
 9557W        W24688   7.193  13.138  12.726  0.2725  0.2903  0.3114
 9558W        W24689  14.994  14.195   4.138  0.0929  0.3607 -0.0328
 9559W        W24690   0.937  13.659   0.786  0.0861 -0.2086 -0.2402
 9560W        W24691  11.392   7.820  13.970  0.1710 -0.0449  0.1516
 9561W        W24692  17.584   1.820   5.188  0.0798 -0.0177 -0.2754
 9562W        W24693   4.753  13.071  10.678  0.2000  0.0146  0.1019
 9563W        W24694   0.247   4.258   3.470 -0.1297 -0.3137 -0.1879
 9564W        W24695  10.200  14.114   3.684 -0.2767 -0.2811 -0.0067
 9565W        W24696  10.375   2.948   4.262 -0.2482  0.1716 -0.0824
 9566W        W24697   1.625  12.063   3.370 -0.0773  0.1186  0.3750
 9567W        W24698   8.588  16.118  13.510 -0.2061 -0.2484 -0.1067
 9568W        W24699  15.348   7.490   5.032 -0.0363 -0.0644 -0.0535
 9569W        W24700  16.131  16.078   5.024  0.0111  0.1137  0.0221
 9570W        W24701   1.173   2.955   2.800 -0.1234  0.0341 -0.2527
 9571W        W24702   4.502   0.131   4.616  0.1730 -0.4083 -0.2724
 9572W        W24703   4.235  17.703  10.383  0.1065  0.0148  0.0744
 9573W        W24704   3.674   3.816  11.059 -0.0672  0.2615  0.1287
 9574W        W24705  16.320  10.248  11.121  0.0049 -0.1722 -0.2326
 9575W        W24706  17.955  16.445  11.112  0.0401  0.1298 -0.0802
 9576W        W24707  16.261   6.204  12.162 -0.3265 -0.2794 -0.0243
 9577W        W24708  10.339   8.122   5.200  0.1439 -0.3459 -0.3800
 9578W        W24709  13.940  12.527   2.903  0.0006 -0.0936 -0.1737
 9579W        W24710   0.371  10.308  15.771 -0.2323  0.1050 -0.0679
 9580W        W24711   9.507  10.417   2.532 -0.0002  0.0061  0.0644
 9581W        W24712   6.045   3.182   1.289  0.1733  0.3022  0.0252
 9582W        W24713  10.267   9.245  11.117 -0.0877  0.3012 -0.0734
 9583W        W24714   4.789   4.551   5.491  0.1431 -0.1523 -0.1332
 9584W        W24715   3.621   0.695  10.586 -0.3838  0.2359 -0.0360
 9585W        W24716  11.802   2.063   3.969 -0.3573  0.0296 -0.0507
 9586W        W24717   6.334   5.884  14.954 -0.0107 -0.0104  0.5033
 9587W        W24718   5.784   5.982   5.850 -0.3073  0.1163 -0.0458
 9588W        W24719  11.768  11.904  13.944 -0.2781  0.0732  0.3971
 9589W        W24720  10.227   6.643   1.413 -0.2893  0.0112  0.1573
 9590W        W24721   1.496  12.594   4.156  0.0693  0.0989 -0.0317
 9591W        W24722  11.345   5.654   4.825 -0.0025 -0.2876  0.0062
 9592W        W24723   5.631  15.439  13.785  0.0794  0.0171 -0.1334
 9593W        W24724   2.619   8.344  15.273  0.1309  0.2754 -0.3097
 9594W        W24725   4.093  15.142   2.967 -0.1544  0.3550  0.0350
 9595W        W24726   3.429   2.374   5.710 -0.1689  0.0333 -0.1054
 9596W        W24727  12.271  11.689   6.149 -0.0671 -0.0235  0.0235
 9597W        W24728  17.445   3.246  14.371  0.1115 -0.1211 -0.0487
 9598W        W24729  11.277  15.966  15.511  0.2504 -0.2129  0.0548
 9599W        W24730  18.025  18.338  12.044  0.0061  0.2334  0.2402
 9600W        W24731  12.872  11.501   4.651  0.0596  0.0094 -0.1381
 9601W        W24732   5.859   2.942   2.325 -0.0319  0.0169 -0.0429
 9602W        W24733  12.223   0.332   5.754  0.0505  0.1883 -0.2540
 9603W        W24734   8.106  15.691  12.377  0.0303 -0.0617  0.0629
 9604W        W24735   0.978   4.259  12.139 -0.2679  0.3811 -0.0020
 9605W        W24736  14.371  14.503   4.687 -0.3665 -0.2263 -0.0005
 9606W        W24737   9.507   3.176  13.597  0.2839 -0.0251  0.1341
 9607W        W24738  12.722   4.657   1.066  0.1239 -0.2166 -0.0189
 9608W        W24739  18.257  11.571  14.495 -0.3623  0.0385 -0.2877
 9609W        W24740  16.545  16.685  12.186  0.0591  0.0616  0.2837
 9610W        W24741  17.382  16.967   4.735  0.2706  0.1557  0.3174
 9611W        W24742  15.231   1.550  15.293 -0.2648 -0.1827 -0.3371
 9612W        W24743  12.100   6.720  12.122 -0.2825 -0.0461 -0.1125
 9613W        W24744   3.348   0.917   2.802  0.0955  0.2708 -0.1216
 9614W        W24745  10.573  11.107  11.167  0.4134  0.0513 -0.0770
 9615W        W24746   8.561   3.123   9.929 -0.0417  0.0766  0.1325
 9616W        W24747   3.257  15.005   4.650 -0.0303 -0.2671 -0.0845
 9617W        W24748   1.222  10.398   3.302 -0.1206  0.0827  0.0424
 9618W        W24749   2.903  16.110   2.230  0.3099  0.0816 -0.3143
 9619W        W24750   2.724   5.641  11.335 -0.0106 -0.0439  0.0432
 9620W        W24751   4.104  17.832   0.174  0.2121  0.0202  0.0716
 9621W        W24752  14.600   6.209   2.557 -0.2035  0.1712 -0.0714
 9622W        W24753   1.218  12.648  12.751 -0.1942  0.1863 -0.0695
 9623W        W24754   4.894  15.041  15.260 -0.0016 -0.1582  0.1296
 9624W        W24755  15.619  13.784  13.125  0.1547  0.2201 -0.2191
 9625W        W24756   3.422  10.714   4.598 -0.3262  0.3666  0.0786
 9626W        W24757   3.718  14.651  15.447 -0.0924  0.1009  0.3494
 9627W        W24758  16.394  12.932  14.124 -0.0596 -0.0393 -0.1674
 9628W        W24759   3.932   6.398  15.130 -0.5595 -0.1512 -0.4239
 9629W        W24760  13.820  10.077  11.951 -0.1196 -0.0355  0.1110
 9630W        W24761  15.995   5.804  11.355  0.0348  0.1818 -0.1489
 9631W        W24762  16.846  16.864   2.495 -0.0137 -0.1307 -0.2318
 9632W        W24763   1.178   0.468   4.593  0.0379  0.2907  0.2430
 9633W        W24764  12.619   5.441  12.762 -0.1213 -0.0524  0.0213
 9634W        W24765  14.782   4.602  12.857 -0.0335  0.3144  0.0163
 9635W        W24766   9.728  15.045  15.441  0.2191  0.0450  0.0914
 9636W        W24767   0.540  17.117  14.174  0.0538  0.0054 -0.0818
 9637W        W24768  15.510  11.201   4.069 -0.0988 -0.0422  0.1287
 9638W        W24769  18.418   3.279   5.656 -0.0737  0.3606 -0.4862
 9639W        W24770   0.397   7.027  14.763 -0.2317 -0.0731  0.3027
 9640W        W24771  11.275  13.772  11.814 -0.6526  0.0435  0.1412
 9641W        W24772  18.547  17.262  13.434  0.0155 -0.1679  0.2898
 9642W        W24773   7.282  14.502  10.883 -0.0047 -0.0316  0.0791
 9643W        W24774  11.411   2.223   4.215 -0.0094  0.0564 -0.2112
 9644W        W24775  10.544   2.628   3.783 -0.0986  0.1506  0.1432
 9645W        W24776   1.875  16.918   3.490  0.2692 -0.0600 -0.0533
 9646W        W24777  17.799  12.279  10.694 -0.0614  0.1718  0.2979
 9647W        W24778  18.349   2.411  12.198  0.2261 -0.2133 -0.1273
 9648W        W24779  12.744  14.234  11.180  0.3665  0.2396  0.0496
 9649W        W24780  11.397  12.361   0.040  0.2035  0.0755  0.1632
 9650W        W24781  11.026   2.692  15.046  0.0260 -0.2038  0.0509
 9651W        W24782  17.434  11.574  11.815 -0.0727 -0.0440  0.1996
 9652W        W24783  15.686  15.788   3.159  0.0313  0.0082 -0.0605
 9653W        W24784   4.490   5.701   2.880 -0.3152 -0.0956  0.0520
 9654W        W24785  15.079   9.695   6.103 -0.0749  0.0516 -0.2853
 9655W        W24786   3.178   2.256  15.300 -0.1763  0.3032  0.0987
 9656W        W24787  15.807  17.840  14.298  0.0299 -0.0189 -0.1222
 9657W        W24788  11.229   2.914  12.186  0.0267  0.1576  0.0228
 9658W        W24789  14.290  18.495  12.978 -0.2358 -0.0533 -0.1421
 9659W        W24790  15.459  12.280  15.236  0.1275  0.0717  0.0419
 9660W        W24791   4.553   6.746  11.475 -0.0181 -0.2870 -0.1275
 9661W        W24792   2.774  18.120   1.068  0.1225 -0.1532  0.0511
 9662W        W24793   1.492  15.021   1.265  0.0029  0.1989 -0.0813
 9663W        W24794  18.140   5.271  13.832 -0.0181  0.0997 -0.1368
 9664W        W24795  16.770   9.799  14.793 -0.3494  0.1098  0.0622
 9665W        W24796  17.554   1.420   1.832  0.0049  0.0754  0.4692
 9666W        W24797  18.512  14.854  14.107  0.0270 -0.3673 -0.0115
 9667W        W24798  18.325  13.299   3.257  0.0919 -0.1675 -0.0325
 9668W        W24799  14.655   2.364  11.876  0.0653  0.3533  0.1875
 9669W        W24800  10.352   1.936   5.217 -0.2154  0.0175 -0.0162
 9670W        W24801  16.436   6.226  11.675 -0.1032 -0.0665  0.0067
 9671W        W24802  13.117  10.992   4.553 -0.0065  0.2203  0.0579
 9672W        W24803   9.439  11.234   4.764 -0.2344  0.3568  0.0898
 9673W        W24804  15.195   7.785   0.651  0.1382  0.3670  0.4164
 9674W        W24805   8.077   8.977   3.695  0.1030 -0.1789 -0.1112
 9675W        W24806   8.821   7.186  14.705  0.0414  0.1038 -0.2605
 9676W        W24807  11.145   4.693   0.749  0.0738 -0.0197 -0.1605
 9677W        W24808   9.743   6.568   2.237  0.1251  0.0617  0.1031
 9678W        W24809  16.573  17.221  12.015 -0.1098 -0.3389  0.0540
 9679W        W24810  14.899  15.678   2.022 -0.1584  0.2219 -0.0573
 9680W        W24811   1.884  15.333   4.597  0.2880  0.2253 -0.1326
 9681W        W24812  10.917  10.414   1.061 -0.0752  0.0864 -0.1395
 9682W        W24813  12.487   8.336   2.847  0.3369  0.0536 -0.3054
 9683W        W24814   8.637  15.151   3.647 -0.0096 -0.0120 -0.1296
 9684W        W24815   8.444  14.074   3.533  0.0056  0.2856  0.0035
 9685W        W24816  11.893   4.276  13.466 -0.0741 -0.1282 -0.0796
 9686W        W24817   4.649  10.055   0.776  0.1488  0.0799  0.3512
 9687W        W24818  11.868   8.537  15.280  0.3342 -0.0078  0.1545
 9688W        W24819  18.022  18.243   2.865 -0.1406  0.0192 -0.1126
 9689W        W24820   2.077   8.291   1.915 -0.2507 -0.2371  0.0537
 9690W        W24821  15.372   3.595  15.741 -0.0756 -0.0900 -0.2991
 9691W        W24822   0.229   3.875   2.156  0.1134 -0.0677 -0.0644
 9692W        W24823   5.303   9.015  14.791 -0.4125 -0.1463 -0.1308
 9693W        W24824   1.203   7.396   6.360  0.1053  0.0931  0.1081
 9694W        W24825   6.242  10.290   3.982  0.1852 -0.0049  0.2131
 9695W        W24826  15.446   0.826  10.958 -0.1248  0.2147  0.2416
 9696W        W24827   9.415  11.001  13.718 -0.1495 -0.0896 -0.0094
 9697W        W24828   3.769   3.635   1.423  0.0541  0.2216  0.1773
 9698W        W24829   9.470  15.292   1.349  0.0261 -0.3706  0.0980
 9699W        W24830   6.895   4.952   0.196  0.0027  0.0853 -0.0424
 9700W        W24831  14.578   7.207  12.960  0.0918  0.3331 -0.0470
 9701W        W24832  16.513   2.721   2.814 -0.1296  0.1896  0.0918
 9702W        W24833   3.940   7.632   1.420 -0.4037 -0.0831  0.1385
 9703W        W24834  16.178   3.884  14.955  0.0112 -0.0012  0.4024
 9704W        W24835  14.206   2.132   0.021 -0.2503 -0.0552 -0.1643
 9705W        W24836  10.024  16.794   5.631 -0.2033  0.0998 -0.0898
 9706W        W24837   3.727   5.676   3.309  0.1910 -0.0290  0.2217
 9707W        W24838   3.047  14.454   5.991 -0.1696 -0.0935  0.0503
 9708W        W24839  18.207   0.789   1.875  0.0499  0.0663  0.4820
 9709W        W24840   3.061  10.549  15.155  0.3623  0.3262  0.3538
 9710W        W24841   7.971   3.190   0.431  0.1668 -0.1656  0.2295
 9711W        W24842  18.204   4.386  13.890  0.0499 -0.0791 -0.3421
 9712W        W24843  17.922   7.054   3.191  0.0124  0.0107  0.3294
 9713W        W24844   3.284  14.598  13.231 -0.2846  0.2132  0.1213
 9714W        W24845   2.452   0.384  10.891 -0.1034  0.0416 -0.0767
 9715W        W24846  11.877   0.303   0.711  0.0253 -0.2312  0.1515
 9716W        W24847   7.645  10.620   2.700  0.2889 -0.3995  0.1324
 9717W        W24848  12.576  11.826  14.984  0.0969 -0.3602  0.0110
 9718W        W24849   6.387   5.464  13.717  0.1956 -0.0835 -0.2600
 9719W        W24850  13.171  17.659   3.517  0.0674  0.0231  0.0978
 9720W        W24851   2.781   0.917  13.417 -0.0849 -0.1667  0.0073
 9721W        W24852  18.518   9.729   2.642 -0.0580  0.0167 -0.1083
 9722W        W24853   2.004   3.704  11.443 -0.2361  0.2086 -0.1731
 9723W        W24854   5.276   6.086   2.386 -0.3549 -0.3093 -0.1667
 9724W        W24855   8.851   9.800   1.366 -0.4351 -0.2153 -0.2658
 9725W        W24856  14.415   9.124   0.605  0.2338  0.3823 -0.2618
 9726W        W24857   5.813  15.320  12.532  0.1198 -0.2984  0.2066
 9727W        W24858   4.907  15.796   2.600 -0.0335 -0.0261  0.0652
 9728W        W24859  11.945   0.963   4.160  0.1657 -0.0004 -0.0913
 9729W        W24860  17.912   5.921  10.968 -0.0694  0.1399  0.2790
 9730W        W24861  12.389   8.184   4.853  0.1103 -0.1580 -0.4555
 9731W        W24862  13.972  17.482  12.530  0.1324  0.2241  0.2083
 9732W        W24863   8.837  16.387   9.690  0.1000 -0.0826  0.3728
 9733W        W24864  14.103  11.428  14.391  0.0318 -0.4969 -0.1797
 9734W        W24865  12.054   0.507   1.774 -0.1955 -0.3299  0.0564
 9735W        W24866   3.787  17.756   2.917  0.0123 -0.1165  0.1794
 9736W        W24867   4.013   1.810  13.340 -0.2881  0.0396  0.2801
 9737W        W24868  13.229   0.023  14.166  0.4009 -0.0205  0.1614
 9738W        W24869  12.844  11.741  12.909 -0.2013  0.0406 -0.1905
 9739W        W24870   6.522   9.007  15.879  0.2148  0.2354 -0.0809
 9740W        W24871   0.515  12.512  15.770  0.1073 -0.2625 -0.1120
 9741W        W24872   1.934  15.637   0.181 -0.1282 -0.0695  0.1260
 9742W        W24873   3.347  10.216  11.412  0.1911 -0.1466 -0.0392
 9743W        W24874   4.662   7.472   3.857 -0.3619 -0.0482  0.2655
 9744W        W24875   5.186  13.805  12.875 -0.1183 -0.0161  0.4487
 9745W        W24876  14.367  10.588  13.086  0.1265  0.1627 -0.0144
 9746W        W24877  15.808   6.336   3.451  0.1885 -0.2528 -0.0815
 9747W        W24878   4.432   1.069  13.624 -0.2659  0.1700 -0.0783
 9748W        W24879   7.111   3.618  13.743 -0.1323  0.0545 -0.2340
 9749W        W24880  10.028   8.493   1.310 -0.3533  0.1638  0.0944
 9750W        W24881  11.250   0.756   2.240  0.0100 -0.0405  0.0205
 9751W        W24882   5.589   8.683  14.457 -0.1598  0.1436  0.3336
 9752W        W24883  18.019   8.510  14.525 -0.1862  0.1062 -0.0838
 9753W        W24884  11.302   7.469  15.288 -0.0883  0.2080  0.1749
 9754W        W24885  15.587   1.043   1.820  0.0206 -0.2991 -0.3192
 9755W        W24886   5.209  13.670  13.970 -0.4909 -0.0528 -0.2288
 9756W        W24887  16.517   1.463  11.170 -0.2839 -0.3320 -0.0126
 9757W        W24888   4.169   2.421   2.565 -0.1900  0.1443  0.0803
 9758W        W24889   4.391   0.865   3.516 -0.0229 -0.0161 -0.0908
 9759W        W24890  11.192  18.156  15.676  0.0516 -0.0455 -0.2751
 9760W        W24891   8.507   2.358   1.453 -0.3889  0.1330 -0.3108
 9761W        W24892   7.113  17.114  13.956  0.1077 -0.1063  0.0008
 9762W        W24893   2.602  11.814   1.749  0.0846 -0.0557 -0.2534
 9763W        W24894   3.692   6.505  11.959  0.0443  0.1016 -0.1299
 9764W        W24895  15.548  17.070  11.821 -0.0566  0.2580  0.2367
 9765W        W24896   1.732  17.185   0.655  0.0572  0.2034  0.5060
 9766W        W24897   1.762   7.660  13.565  0.1554  0.0542 -0.0663
 9767W        W24898  11.641  13.934   0.918 -0.4218 -0.1723  0.0542
 9768W        W24899   9.206  15.938   2.105  0.0850  0.1163 -0.3813
 9769W        W24900   5.534   2.524  13.454  0.0442  0.3045 -0.0557
 9770W        W24901  13.382   6.582  10.981 -0.2986 -0.1262  0.0167
 9771W        W24902   7.090   5.730   3.674 -0.1486 -0.3446 -0.1703
 9772W        W24903  10.235   3.029   0.149 -0.0534  0.2896 -0.0470
 9773W        W24904   9.891   6.584   4.512 -0.0433  0.0263  0.2004
 9774W        W24905  13.758   8.799   0.167 -0.1641  0.0550  0.1216
 9775W        W24906   2.464   4.418   0.876  0.2868 -0.1453 -0.3139
 9776W        W24907  12.604   2.728   1.705  0.1922  0.1194 -0.2811
 9777W        W24908   5.321   3.274  12.043  0.0876  0.0203  0.1945
 9778W        W24909  11.966   7.384   2.487 -0.0017  0.1923 -0.0163
 9779W        W24910   8.361  12.473  12.479 -0.0330 -0.2545 -0.1454
 9780W        W24911   1.109  14.921   5.030 -0.4877 -0.0938  0.1494
 9781W        W24912  17.012  15.041   9.628 -0.0035 -0.2825  0.0550
 9782W        W24913   0.594   1.265   4.309  0.0538  0.1098  0.0255
 9783W        W24914   1.991  10.714  14.318 -0.3093 -0.0149 -0.3497
 9784W        W24915  11.860  11.778  15.927  0.2882 -0.3430  0.2359
 9785W        W24916   8.826   1.296  15.325 -0.1026 -0.1251 -0.0654
 9786W        W24917   1.418   7.296   2.837  0.6453  0.2081  0.2122
 9787W        W24918   1.644   2.430  13.510  0.1161  0.0421  0.0467
 9788W        W24919   9.445   6.287  10.503  0.1386 -0.2364 -0.1982
 9789W        W24920   3.860  17.206  11.781  0.1548 -0.0070 -0.2549
 9790W        W24921   8.571   4.547  15.346  0.0692  0.2065 -0.0337
 9791W        W24922   8.823   5.706   1.452 -0.0048  0.0699  0.1681
 9792W        W24923  18.215   4.486   3.305 -0.2361 -0.2400  0.1016
 9793W        W24924   5.844   7.174   3.261  0.2896 -0.1443  0.0022
 9794W        W24925  15.055   8.975  15.793 -0.1079  0.3089  0.0695
 9795W        W24926   2.983   9.920  11.925  0.0718  0.4481 -0.0968
 9796W        W24927   5.180  13.437  15.474 -0.0652 -0.3576  0.0026
 9797W        W24928   8.361  11.104  14.398 -0.0134  0.0124  0.1881
 9798W        W24929   9.091   1.398   2.400 -0.0142  0.0617 -0.0043
 9799W        W24930  15.417   5.978  14.191  0.0038  0.2917  0.0746
 9800W        W24931  16.034   7.379  12.059 -0.0344 -0.3227 -0.2380
 9801W        W24932   2.129   5.018   3.294  0.0433 -0.0439  0.0508
 9802W        W24933   6.964  16.573  14.764 -0.1663  0.0384 -0.0726
 9803W        W24934   8.578   4.077  14.970 -0.1548  0.0471 -0.1765
 9804W        W24935  12.318   7.304  15.470 -0.0879  0.0955  0.1867
 9805W        W24936  16.724   7.649  12.654  0.1891 -0.1827 -0.0291
 9806W        W24937   6.543   6.148  14.377 -0.2849 -0.1050  0.1670
 9807W        W24938   6.093   1.196   3.359 -0.3774 -0.0936 -0.2319
 9808W        W24939   2.422  13.495  13.181  0.2222  0.1078  0.0099
 9809W        W24940   1.278   6.996  14.710 -0.0933  0.2244  0.2258
 9810W        W24941   9.141  16.448  12.671 -0.1364 -0.0363  0.0879
 9811W        W24942   1.695   8.559   1.237 -0.1481  0.1097 -0.2115
 9812W        W24943   6.936   2.473  13.298  0.0084 -0.2794  0.0159
 9813W        W24944   0.436   9.617  11.243 -0.0480  0.1922 -0.2279
 9814W        W24945  15.879   3.864   0.865  0.0017 -0.2772 -0.1813
 9815W        W24946  14.018  11.101   1.902  0.0307 -0.0059 -0.1459
 9816W        W24947  14.858  10.284   4.435 -0.2191  0.2873 -0.2634
 9817W        W24948   7.947   4.775  12.731  0.2904 -0.1742  0.1632
 9818W        W24949  11.815   3.734   1.926  0.0265  0.3262 -0.4712
 9819W        W24950  13.215   1.271   3.856  0.2295  0.0978  0.1346
 9820W        W24951  17.551  17.447   3.830  0.1465  0.1491  0.1507
 9821W        W24952  16.130  10.753  11.670 -0.0836  0.1193 -0.0412
 9822W        W24953  16.973  11.789  12.015 -0.2397 -0.0509 -0.2108
 9823W        W24954   5.681   8.368  13.183 -0.0839 -0.1285  0.1328
 9824W        W24955  16.245   3.199  10.911  0.0797  0.0041 -0.1828
 9825W        W24956  17.663  13.863   1.345  0.0358  0.2878  0.0027
 9826W        W24957  17.771   1.784  13.213 -0.3457 -0.1488  0.3381
 9827W        W24958   0.330  10.996   1.051  0.0511  0.0702  0.0257
 9828W        W24959   7.421   8.831   2.366  0.2257 -0.1115 -0.0783
 9829W        W24960  17.787  10.032  12.236  0.4128 -0.1013  0.4882
 9830W        W24961   0.705   1.300  13.140  0.0598 -0.0004  0.2445
 9831W        W24962  18.366   0.165  11.294 -0.0710  0.1584  0.1762
 9832W        W24963   9.137   4.986  14.061  0.0639  0.0937 -0.1415
 9833W        W24964  13.187   9.068  14.935 -0.0872  0.1708  0.0835
 9834W        W24965   2.200   9.870   1.122 -0.1872 -0.1445  0.1880
 9835W        W24966  13.558  10.364  11.122  0.1244 -0.3243  0.1036
 9836W        W24967  17.235  18.493   0.184 -0.1905  0.0399  0.1160
 9837W        W24968  14.660  14.992   9.710 -0.3186  0.0855 -0.4397
 9838W        W24969  18.101  14.907  12.992  0.2330  0.0912  0.0415
 9839W        W24970   5.883   4.528  13.864 -0.1551  0.2001  0.0473
 9840W        W24971  18.184  17.409   2.260 -0.0371  0.1711  0.1515
 9841W        W24972  16.714   6.059   3.719  0.0048  0.0995  0.2348
 9842W        W24973  16.552  13.410  14.213  0.1430  0.0622  0.0921
 9843W        W24974   1.635   8.268   1.661  0.2405  0.1999  0.3166
 9844W        W24975   6.313   0.330  13.434  0.0125 -0.1675  0.0048
 9845W        W24976  16.315   0.933   4.128  0.1476  0.0489 -0.2745
 9846W        W24977  12.020  14.729  14.810  0.0589  0.2093 -0.1016
 9847W        W24978  15.290   3.630   2.733 -0.1129  0.1307 -0.0406
 9848W        W24979   3.817   8.683  14.418  0.0917  0.5611  0.1502
 9849W        W24980  11.319   0.211   2.296 -0.3892 -0.0253  0.0709
 9850W        W24981  17.609   7.298   5.360 -0.0231  0.1985 -0.1059
 9851W        W24982  17.551  10.018   1.028 -0.1385 -0.2235 -0.1621
 9852W        W24983   5.544  17.296  10.664  0.1351  0.0496  0.0767
 9853W        W24984  10.042   2.201   5.748  0.1305  0.1006 -0.2369
 9854W        W24985   2.400  12.979   5.938  0.1094  0.0985  0.2569
 9855W        W24986  13.635   8.400  15.235  0.1991  0.1193 -0.0937
 9856W        W24987  11.801  11.027  14.143 -0.0662 -0.2870  0.0952
 9857W        W24988  16.716   8.699  11.852  0.1613  0.0905  0.2745
 9858W        W24989  17.245   7.393  13.582 -0.1083  0.0522 -0.1574
 9859W        W24990   3.339   5.268  11.813 -0.0943  0.0193 -0.0845
 9860W        W24991   0.899   7.607  13.962  0.2131  0.2140  0.1213
 9861W        W24992  11.706   2.812  12.174  0.2589  0.2136  0.1007
 9862W        W24993  18.380   6.437   3.384  0.5368 -0.2500  0.1801
 9863W        W24994   6.126  12.769   9.739 -0.0309  0.0446 -0.0632
 9864W        W24995  11.518   0.374  10.304  0.2350  0.4761  0.0427
 9865W        W24996   1.671   2.016  11.401  0.1230  0.1071 -0.0077
 9866W        W24997  10.198   5.735   6.195  0.0345  0.2346 -0.1198
 9867W        W24998  15.173  15.693  12.609 -0.2556 -0.2200 -0.4342
 9868W        W24999   5.438  14.733  10.820  0.2221  0.0268  0.0182
 9869W        W25000   0.094   6.445   0.762 -0.0163  0.0970 -0.0408
 9870W        W25001  17.744   0.980  12.693  0.3071  0.1062  0.1751
 9871W        W25002  16.896  17.316   2.013 -0.2911  0.3967  0.5051
 9872W        W25003  13.600  13.308   1.862 -0.1939  0.5517 -0.0436
 9873W        W25004   3.100  12.689   0.777 -0.0059  0.2195 -0.0589
 9874W        W25005   2.469  10.694  14.378 -0.4379 -0.2042  0.0722
 9875W        W25006   8.371  11.970   4.172 -0.4551 -0.2326  0.0563
 9876W        W25007  16.346   1.953  12.025 -0.1006 -0.0674  0.2404
 9877W        W25008  14.141   2.871  15.420 -0.2940 -0.0677  0.2167
 9878W        W25009  12.160  12.352  12.821  0.0003 -0.0779  0.1068
 9879W        W25010  13.185   6.446   1.149  0.0602 -0.0406 -0.0570
 9880W        W25011   0.966   1.535   3.877  0.1046  0.0496 -0.0452
 9881W        W25012   2.162  12.804   0.885  0.0870  0.2856 -0.0155
 9882W        W25013  11.380   0.541  10.804 -0.4888 -0.1461  0.1427
 9883W        W25014   0.435  13.868   0.720 -0.0375  0.0759 -0.1503
 9884W        W25015   1.876   1.319   1.890 -0.0196  0.0749 -0.1725
 9885W        W25016   9.050   4.816  13.490 -0.2367 -0.0446  0.1225
 9886W        W25017   9.244  12.003   5.165  0.0973  0.0085 -0.0834
 9887W        W25018   2.083   5.599   4.897 -0.2582  0.0757  0.2641
 9888W        W25019   2.919  10.819   4.640  0.1894 -0.1118  0.0290
 9889W        W25020   1.553   5.269   2.288 -0.1344  0.0594  0.1123
 9890W        W25021   2.343   4.495  12.492 -0.1434 -0.1961 -0.0328
 9891W        W25022  16.670   4.683  10.519 -0.0603  0.2204  0.2048
 9892W        W25023   2.231  18.208  14.447  0.0003 -0.0306 -0.1302
 9893W        W25024  16.986  18.265  13.883  0.0663 -0.1960  0.0329
 9894W        W25025  16.777   2.827   1.155 -0.0487  0.3411 -0.1156
 9895W        W25026  16.592   1.388  14.307 -0.2606  0.4744 -0.1678
 9896W        W25027   2.718   1.730   1.051  0.0017 -0.0275 -0.1072
 9897W        W25028  14.640   2.257   0.320 -0.2377 -0.1112 -0.0596
 9898W        W25029  18.336   4.458  13.142 -0.2126 -0.0665 -0.0832
 9899W        W25030   5.570  13.746  15.491 -0.0118  0.1279 -0.0935
 9900W        W25031   8.464   6.954  15.094  0.1850 -0.0239 -0.0773
 9901W        W25032  17.752  12.688   4.235  0.1352  0.3161  0.0048
 9902W        W25033   4.717   2.459  12.950 -0.1939 -0.2891  0.1065
 9903W        W25034   2.126   2.261  15.600  0.0655 -0.0733  0.0849
 9904W        W25035   6.485  14.875  12.782  0.0432 -0.2314  0.0154
 9905W        W25036   1.313  10.389  12.566  0.0228 -0.1708 -0.3593
 9906W        W25037  18.392   7.456  12.090  0.3106  0.1093  0.4280
 9907W        W25038   7.853  16.411   0.018  0.4710  0.2987  0.0257
 9908W        W25039   8.749   9.424  12.402 -0.2026  0.3635  0.0070
 9909W        W25040   9.636   5.288  10.641  0.0610 -0.0900 -0.0942
 9910W        W25041   1.695  11.881  12.212  0.0133 -0.0137 -0.1856
 9911W        W25042  14.473  10.334  14.197 -0.2774  0.1067 -0.2097
 9912W        W25043  11.218   0.283  13.169  0.1044 -0.2937 -0.0415
 9913W        W25044   3.335  17.113   0.544  0.0010  0.0623  0.1251
 9914W        W25045   4.337   4.732   3.250  0.2331  0.2026  0.0960
 9915W        W25046   8.829  17.655   3.072 -0.1158  0.1228  0.2968
 9916W        W25047   1.019  13.637   1.566 -0.0102 -0.0437 -0.4473
 9917W        W25048  17.587  14.499  15.082 -0.0638 -0.0913 -0.0652
 9918W        W25049  10.179   9.403  15.911  0.0674 -0.0726 -0.3402
 9919W        W25050  17.956   0.688  11.721 -0.0126  0.1444  0.0460
 9920W        W25051   5.351  13.415  14.523  0.2792 -0.0128  0.0447
 9921W        W25052   4.888  14.129  12.615 -0.0755  0.0347  0.2619
 9922W        W25053  16.940   1.460   4.451  0.0263  0.3461  0.0302
 9923W        W25054   4.128  13.136  12.466  0.0385  0.2593 -0.1258
 9924W        W25055  17.418  15.527  13.103 -0.1281 -0.1177 -0.0019
 9925W        W25056  13.034  14.301   2.231 -0.0444  0.0563  0.2184
 9926W        W25057   5.589   3.280   2.047  0.2334  0.1127 -0.1300
 9927W        W25058  15.742  16.436  13.286  0.1638  0.0513 -0.2459
 9928W        W25059   8.192   7.697   0.936  0.0193  0.0883 -0.0136
 9929W        W25060   8.079  15.262   2.299  0.1244 -0.2668 -0.3813
 9930W        W25061  14.088  11.382  13.203 -0.1018  0.3238 -0.2042
 9931W        W25062   1.004  11.247   3.670  0.2793 -0.0563 -0.2034
 9932W        W25063   5.979   5.382   5.860 -0.1372 -0.0434  0.0466
 9933W        W25064  17.995  15.393  11.929  0.0842 -0.0998  0.0418
 9934W        W25065  11.604  12.015   1.691 -0.3603 -0.2637 -0.4213
 9935W        W25066  18.517   7.031  13.152 -0.0950  0.2157  0.1068
 9936W        W25067   5.105   8.787   4.787 -0.0137  0.0103  0.1107
 9937W        W25068   1.295   7.173   3.782 -0.2002  0.0450 -0.2589
 9938W        W25069   2.328   3.549   0.379 -0.1169 -0.1463  0.0112
 9939W        W25070   9.905   6.813   4.946 -0.0582 -0.0256 -0.3068
 9940W        W25071   8.207   9.514  11.704 -0.1470 -0.0076 -0.1689
 9941W        W25072  14.503  18.466   4.377  0.0474 -0.0293 -0.4238
 9942W        W25073  17.161   5.357   3.940  0.1168 -0.3737  0.1987
 9943W        W25074   8.079   4.426  14.776 -0.3945  0.2647 -0.1387
 9944W        W25075  13.866   8.316   2.468 -0.1507 -0.1663  0.3505
 9945W        W25076   5.916  18.348  15.519  0.3275  0.4040  0.1588
 9946W        W25077   1.361   0.371  12.122 -0.0304  0.1199  0.2525
 9947W        W25078   9.114  12.475   2.957  0.2670  0.3080 -0.2494
 9948W        W25079  13.813   2.949   4.174  0.0370  0.2469 -0.1702
 9949W        W25080  10.696  14.830   4.210  0.0275  0.1925 -0.1566
 9950W        W25081   2.523   1.539  11.702  0.0650 -0.0829  0.0258
 9951W        W25082  12.785  15.266  15.453 -0.1092 -0.1399 -0.0828
 9952W        W25083  15.154   5.548   4.877 -0.1173  0.0985 -0.0135
 9953W        W25084  13.201   1.801  10.864 -0.2057 -0.1707  0.0321
 9954W        W25085  15.893  11.045  11.275  0.0350  0.0076  0.1927
 9955W        W25086   4.198   0.218   2.789 -0.1386 -0.0994 -0.1306
 9956W        W25087  15.430   5.822  11.375 -0.1093 -0.1690  0.2122
 9957W        W25088   6.939   4.794   9.871  0.0640 -0.2555 -0.0219
 9958W        W25089  17.395   3.052  12.942  0.0627  0.1896 -0.3528
 9959W        W25090  16.170   8.287   4.099  0.1199  0.1580 -0.0286
 9960W        W25091  13.579   7.009  14.084  0.0819 -0.0042  0.0013
 9961W        W25092   7.846  14.170   5.320 -0.1508 -0.1241 -0.0833
 9962W        W25093   8.396  16.075   4.512 -0.0125 -0.0182  0.0730
 9963W        W25094   4.114  10.877  14.261 -0.2534  0.2227  0.0612
 9964W        W25095  17.031   6.133   1.642  0.2129 -0.2962 -0.4082
 9965W        W25096   0.199   5.017  10.968  0.1494 -0.1889  0.1993
 9966W        W25097   6.002  13.799  14.285 -0.3107  0.0125 -0.0794
 9967W        W25098   2.564  12.524   0.035  0.1195  0.3112  0.1060
 9968W        W25099   6.273  10.439   3.458  0.0045 -0.3137  0.2015
 9969W        W25100   0.184  16.981   5.483 -0.2496  0.1477  0.1137
 9970W        W25101  12.396  11.974  13.549  0.0862 -0.1292 -0.2610
 9971W        W25102  17.756   9.636   4.609  0.3332  0.1357 -0.1477
 9972W        W25103  17.667   2.224   5.899 -0.0236  0.1312 -0.0060
 9973W        W25104   5.695   6.491  14.794 -0.0825  0.1601  0.2511
 9974W        W25105  12.307  11.123  13.798 -0.0603 -0.2979  0.0048
 9975W        W25106   8.132   1.734   5.929  0.0931  0.1157  0.3436
 9976W        W25107  10.073   9.452  13.952 -0.1058 -0.0364 -0.1031
 9977W        W25108  15.453  10.090  11.811 -0.1554 -0.0588 -0.0686
 9978W        W25109  10.148  12.215   9.789 -0.0730 -0.0732  0.1745
 9979W        W25110   0.420   6.766   2.179  0.2742 -0.0826 -0.0484
 9980W        W25111  12.109   8.940   0.901  0.0822 -0.1402  0.0888
 9981W        W25112   7.636   5.241  10.962 -0.1456  0.0185 -0.0728
 9982W        W25113   3.780  12.829  10.748 -0.1121  0.1634 -0.1283
 9983W        W25114  16.045  16.400   2.519 -0.0528  0.0684 -0.0398
 9984W        W25115   1.058   4.004  13.885  0.0851  0.2805  0.1057
 9985W        W25116  16.769  10.615   1.639  0.1713  0.0801 -0.2287
 9986W        W25117  11.001   9.640   4.215 -0.3340  0.1889 -0.2474
 9987W        W25118   0.561   0.460   2.380  0.2254  0.3471  0.2435
 9988W        W25119   5.730   5.099   4.914 -0.0473 -0.0704  0.2783
 9989W        W25120  15.606   7.559   0.531  0.0417  0.0433 -0.0672
 9990W        W25121   7.703  10.471  15.842 -0.2725  0.0354 -0.0874
 9991W        W25122  11.204   7.491  12.258  0.2591 -0.2255  0.0110
 9992W        W25123   3.906   0.057  11.330 -0.0379 -0.0320 -0.2297
 9993W        W25124   2.305   3.318  15.064 -0.1494  0.3635  0.0393
 9994W        W25125  17.546  17.588   2.601  0.0905 -0.0199 -0.3492
 9995W        W25126  11.644   3.345   4.380 -0.0270 -0.0728  0.0773
 9996W        W25127  18.430   2.600   3.211 -0.0113 -0.0770  0.0040
 9997W        W25128   8.569   2.650  14.704 -0.0008  0.0291 -0.0442
 9998W        W25129   2.718  17.701   2.079  0.1311 -0.1869  0.0998
 9999W        W25130   6.163  11.235  11.946  0.0652 -0.1986 -0.0332
10000W        W25131   6.745   5.825  12.024  0.3160 -0.1679  0.0248
10001W        W25132  16.634  18.003  14.110  0.2635  0.0804 -0.1025
10002W        W25133  12.708   1.919  11.017 -0.2199  0.3340 -0.1330
10003W        W25134  13.897  15.667  10.287 -0.1289 -0.1012 -0.1034
10004W        W25135   5.384   7.247   6.054 -0.1851 -0.2320 -0.0446
10005W        W25136  11.143   4.699  10.223  0.1233 -0.3698 -0.2711
10006W        W25137   6.330   1.391   1.975  0.2114 -0.2046  0.0573
10007W        W25138   1.137   0.246  11.628  0.0350 -0.5776 -0.2405
10008W        W25139   5.919   2.678  15.462 -0.0240  0.2196  0.0229
10009W        W25140  17.837   5.610  13.559  0.1345 -0.0926 -0.0485
10010W        W25141  18.318  13.438  15.900 -0.1602 -0.0445 -0.0357
10011W        W25142  15.507   6.615   3.165  0.0859  0.1545  0.1823
10012W        W25143   4.419   6.033   0.334 -0.0678 -0.0753 -0.3348
10013W        W25144   0.435   7.133   5.280 -0.2739 -0.1179 -0.0586
10014W        W25145   7.636   0.502   2.540 -0.1544  0.0904  0.0245
10015W        W25146   3.897  10.159  11.885 -0.1163 -0.1014  0.3631
10016W        W25147  12.003  17.293   4.235 -0.1565  0.0635  0.0288
10017W        W25148  17.544  13.522  10.761  0.2623 -0.1282  0.1335
10018W        W25149   1.787   6.258  11.417 -0.0934 -0.3325  0.3101
10019W        W25150  11.903   5.505   4.145 -0.2095  0.3352 -0.2246
10020W        W25151   6.503   5.221   0.954  0.0988 -0.1369  0.2415
10021W        W25152  15.373   1.251   2.248 -0.1963 -0.3197 -0.0250
10022W        W25153  12.965  14.818  12.264 -0.4526 -0.0228 -0.0308
10023W        W25154  14.420   4.817   2.303  0.2830  0.0602  0.0790
10024W        W25155  13.719  16.443  11.034 -0.3816  0.1220  0.0679
10025W        W25156   0.875  10.729  13.267 -0.1634  0.0240 -0.1090
10026W        W25157  10.019  17.535   0.726  0.0013  0.0238 -0.1445
10027W        W25158   8.102  14.675   2.905  0.0319  0.2020  0.0123
10028W        W25159   4.308   6.590   2.717 -0.4573  0.0835 -0.0619
10029W        W25160  10.375   5.346   3.681  0.1171 -0.0054 -0.1335
10030W        W25161  14.926   5.071  12.724 -0.1682 -0.0830  0.3210
10031W        W25162   7.254   7.222  10.606 -0.2114 -0.2740 -0.0122
10032W        W25163   4.709   3.013   2.940 -0.2705 -0.1272  0.2813
10033W        W25164  16.254   7.916   4.496  0.0183  0.1647  0.0969
10034W        W25165   8.447   4.512   4.496  0.0406  0.2059 -0.0732
10035W        W25166   3.794  15.928  13.154  0.1741  0.0202  0.0230
10036W        W25167  16.292   2.617   1.102 -0.0055  0.0974  0.0508
10037W        W25168   5.318  13.958  12.376  0.0360 -0.2305  0.0472
10038W        W25169   6.351   6.480   3.310  0.0455  0.1043 -0.0078
10039W        W25170  14.876   3.621   5.822 -0.0343 -0.1292 -0.1261
10040W        W25171   7.894   2.149  10.713 -0.0437  0.0035  0.1093
10041W        W25172  15.504  17.970   2.966 -0.2342  0.0105  0.0759
10042W        W25173  12.032   2.489  11.249  0.0314  0.3460  0.2014
10043W        W25174  17.228   7.337  14.593 -0.2334 -0.0216  0.1974
10044W        W25175  14.377   9.663   3.537 -0.1766  0.2541  0.0710
10045W        W25176   2.018   6.553  14.615 -0.0843  0.2215  0.2682
10046W        W25177  18.450  15.800   1.282 -0.2291  0.3977 -0.2361
10047W        W25178  16.040  11.539   5.715 -0.2295 -0.0391 -0.0845
10048W        W25179   8.835  14.766  13.575  0.1204 -0.0104  0.1075
10049W        W25180  10.178   2.267   3.600 -0.2549 -0.1372 -0.0894
10050W        W25181   2.049   5.779  15.682 -0.1667 -0.0426  0.0370
10051W        W25182   8.556   6.624   5.043  0.0348 -0.3429  0.1362
10052W        W25183   7.673   1.537   3.231 -0.1931 -0.3752 -0.0910
10053W        W25184   5.998  14.675   5.433 -0.2464 -0.1550 -0.3006
10054W        W25185   7.809   1.445  13.400  0.0184 -0.2336 -0.0771
10055W        W25186   6.698  17.490  10.966 -0.3055 -0.0376  0.1605
10056W        W25187  15.422  12.553  13.711 -0.1122 -0.0108 -0.0147
10057W        W25188  15.245  17.166  12.328  0.2952 -0.2361 -0.0699
10058W        W25189  13.872  17.108   5.569 -0.0543  0.0664  0.1976
10059W        W25190  10.291  16.302  14.335  0.0691  0.2652  0.0398
10060W        W25191   7.746  17.800  11.894 -0.2422  0.0100 -0.0319
10061W        W25192  12.912  11.146  11.615 -0.2275 -0.0161 -0.1426
10062W        W25193  14.400  11.593  11.598  0.1840 -0.2501 -0.2011
10063W        W25194   9.835   5.123  15.335 -0.0810  0.0457 -0.0233
10064W        W25195   1.502   7.048   3.326 -0.1840  0.5185 -0.4267
10065W        W25196   2.309   9.164  13.414 -0.1851  0.3711  0.3295
10066W        W25197   2.857  12.341  13.824  0.0427 -0.1056  0.0548
10067W        W25198  13.675  12.307  12.906  0.1816  0.0114  0.2350
10068W        W25199   1.289  15.888  15.418 -0.2128  0.0302  0.1719
10069W        W25200   3.271  18.001   1.488  0.1343 -0.1017 -0.0330
10070W        W25201  12.294   2.293  12.806 -0.0728 -0.1518 -0.1968
10071W        W25202  12.402  11.235   4.717 -0.0326 -0.2338 -0.1343
10072W        W25203  13.814  15.579  11.925 -0.0140  0.4364 -0.3205
10073W        W25204   8.836   7.690   1.744 -0.1619  0.3306 -0.0635
10074W        W25205  11.768   2.701  15.376 -0.3097 -0.0531 -0.2151
10075W        W25206   5.065   2.669  14.696 -0.0157 -0.1292 -0.1325
10076W        W25207   0.836  16.878   0.121 -0.1181 -0.0756 -0.1239
10077W        W25208   4.703   7.542  14.108 -0.0859 -0.1174 -0.5018
10078W        W25209   6.309   9.555  10.984  0.2438  0.3177  0.3217
10079W        W25210  14.381   4.569   4.606 -0.0072  0.0409  0.1768
10080W        W25211  12.445   3.480   0.473 -0.1190  0.4447  0.5205
10081W        W25212  17.855  17.095   1.463 -0.0282 -0.1030  0.1090
10082W        W25213   9.686   6.562  11.379  0.3138 -0.0009  0.2563
10083W        W25214   6.322  12.160   4.719 -0.1645  0.1170 -0.1496
10084W        W25215  17.436   7.241   3.184  0.2312 -0.1520 -0.1511
10085W        W25216   4.080  16.218   5.161 -0.0734 -0.1227  0.1571
10086W        W25217   9.078   0.772  10.396  0.1944 -0.3276  0.0234
10087W        W25218   6.847  13.830  12.430  0.1100 -0.1954  0.1952
10088W        W25219   8.246   7.027  11.783 -0.1635 -0.0885  0.1578
10089W        W25220  16.076   5.022  15.272  0.2384 -0.2580 -0.0950
10090W        W25221  13.852  13.134   3.609  0.0020 -0.0626  0.1652
10091W        W25222   5.894  11.074  12.378  0.0781 -0.2219 -0.3033
10092W        W25223  11.735  12.007  10.178  0.0626 -0.1317  0.0875
10093W        W25224   4.549  13.127  12.787  0.1171  0.0087 -0.2328
10094W        W25225   1.171  14.054  12.740  0.0028  0.1295  0.1834
10095W        W25226   5.965   9.633  13.630  0.2153 -0.1444 -0.0973
10096W        W25227   1.662   1.247   3.170  0.0783 -0.0658  0.2220
10097W        W25228   5.624   2.632  15.884  0.1859  0.1651  0.3018
10098W        W25229   7.639  13.432  11.495  0.1972 -0.0618  0.0488
10099W        W25230  17.394  16.765   5.313  0.0488  0.1647 -0.2925
10100W        W25231   9.266   4.784  12.185 -0.0626 -0.1785  0.3184
10101W        W25232   3.771  12.857   5.548 -0.1954 -0.0772  0.3866
10102W        W25233   9.422   6.539   3.063  0.1354 -0.1607  0.2680
10103W        W25234  17.312   3.712   0.056 -0.4663  0.0221  0.1065
10104W        W25235  15.627  11.954   1.017  0.0963 -0.2060 -0.2071
10105W        W25236   6.789  12.861   2.899  0.2836 -0.0448 -0.0026
10106W        W25237   3.040   8.389   3.065 -0.2692 -0.1427 -0.0470
10107W        W25238  11.444   5.532  14.438 -0.0767  0.1948 -0.1086
10108W        W25239  14.669   6.803   2.806  0.0439  0.0885  0.2679
10109W        W25240  15.185   9.420   0.123  0.0592  0.1402 -0.0749
10110W        W25241   9.189   9.267   3.002 -0.1285  0.4042  0.1412
10111W        W25242  14.979  18.034   1.572 -0.2279 -0.2499 -0.0404
10112W        W25243   3.739  15.744  10.985  0.0685  0.2031  0.4929
10113W        W25244  17.407   3.114  12.333  0.1190  0.2112  0.2271
10114W        W25245  10.428  12.986  14.724  0.0318  0.1201  0.0585
10115W        W25246  15.047  10.538  13.861 -0.0649  0.1440  0.3547
10116W        W25247  11.038  15.158   4.028 -0.1798  0.2008  0.3214
10117W        W25248   3.071  11.110   1.988  0.0920  0.1530  0.2899
10118W        W25249   4.508   0.684  12.640 -0.0131 -0.0555  0.0338
10119W        W25250   5.977   6.796  13.777  0.0887 -0.1417 -0.1254
10120W        W25251   1.364  16.839   5.196 -0.2566 -0.0651 -0.2003
10121W        W25252   0.338   0.978  13.991  0.0724  0.0175  0.1936
10122W        W25253   1.277  14.042   0.467  0.0096  0.0595  0.0920
10123W        W25254   3.177  13.949   5.324  0.3492 -0.0858  0.2024
10124W        W25255   5.016   7.057   2.269  0.1511  0.0895 -0.2768
10125W        W25256  11.623   3.714   2.931 -0.0378  0.0134 -0.0167
10126W        W25257   9.492   8.166  12.612  0.0338 -0.1056  0.1190
10127W        W25258   4.005   3.812  12.404  0.2943  0.1066  0.0990
10128W        W25259  14.709   4.154  13.635  0.2389  0.1207 -0.2577
10129W        W25260   2.397   0.214   3.056  0.2930  0.1425  0.1260
10130W        W25261   2.696   2.540  11.927 -0.0410  0.3613  0.1271
10131W        W25262  13.512   6.390  12.538  0.4002 -0.2914 -0.1503
10132W        W25263   6.921  15.631   2.383 -0.0519 -0.1917  0.0634
10133W        W25264   6.637   2.684  11.351  0.0696  0.1060 -0.3046
10134W        W25265   0.046   1.957   5.487  0.0897  0.0917  0.0576
10135W        W25266  15.204  17.577  12.677 -0.1965  0.2230 -0.0687
10136W        W25267  16.044  15.629  15.304 -0.0276 -0.2030 -0.2867
10137W        W25268  14.523   7.691   2.007  0.0398 -0.1867  0.1239
10138W        W25269   1.485  11.221  15.907 -0.1811  0.0867 -0.0147
10139W        W25270  15.101   4.010   2.297  0.0597 -0.0191 -0.3750
10140W        W25271  18.349  10.239   5.048 -0.1449  0.0746 -0.0255
10141W        W25272  15.138  13.967   2.394  0.2029  0.1299  0.3034
10142W        W25273  12.920  18.021  13.078 -0.3655  0.0622  0.1393
10143W        W25274   1.841  14.938  11.975  0.1084 -0.4967 -0.2304
10144W        W25275  13.232   0.300  12.847 -0.1407 -0.0809  0.1183
10145W        W25276   1.369  17.373   2.944  0.1858 -0.1230  0.0651
10146W        W25277   1.121  15.389  13.540 -0.0796 -0.1298  0.0675
10147W        W25278   5.194   5.373   1.676  0.2307 -0.2133 -0.2998
10148W        W25279   2.878   2.689   1.171 -0.2623 -0.0571 -0.0934
10149W        W25280   8.882   0.279  12.322  0.1425  0.1938 -0.0867
10150W        W25281   0.106   5.768   0.830 -0.0516 -0.0208 -0.0144
10151W        W25282   7.973  11.524   2.503 -0.4229  0.1031 -0.3672
10152W        W25283   1.745   2.620   1.420 -0.0971  0.1117 -0.1704
10153W        W25284   3.589   6.397  10.478  0.0022  0.0645 -0.0808
10154W        W25285   7.012   4.049   1.608 -0.0487 -0.0922 -0.2096
10155W        W25286  15.631   5.591  12.856  0.1759  0.1302 -0.2257
10156W        W25287   3.357  14.785   5.179 -0.0924  0.3465  0.0585
10157W        W25288   9.586  17.097   1.661  0.0863 -0.1392 -0.1369
10158W        W25289  18.142   6.252   4.724 -0.0542  0.1717 -0.0051
10159W        W25290  17.066   4.441  13.038  0.1531  0.1162 -0.0769
10160W        W25291   4.795   8.197  14.215  0.0517  0.1148 -0.1964
10161W        W25292   7.500  17.544   4.106 -0.1300 -0.0003  0.0466
10162W        W25293  18.568  17.619   4.250 -0.4012  0.1217  0.0020
10163W        W25294  11.609  15.780   3.015  0.0246  0.0453  0.1674
10164W        W25295  16.692  17.432   5.114 -0.3558 -0.0355 -0.3705
10165W        W25296  12.030   7.645   1.266 -0.0150  0.3467  0.1463
10166W        W25297  11.784   5.881   1.425 -0.4353  0.0024 -0.0724
10167W        W25298  12.807   0.878  15.140  0.0481 -0.0474  0.1526
10168W        W25299   9.249  15.008   1.720  0.0090 -0.0653 -0.3052
10169W        W25300   3.699   9.233  12.329  0.0571 -0.0373  0.2086
10170W        W25301   7.524  10.457   2.228  0.1591  0.0016 -0.1522
10171W        W25302   3.547   2.566  15.129  0.3433  0.1796  0.1054
10172W        W25303  11.382   1.292  13.420 -0.0687 -0.2795 -0.0817
10173W        W25304   6.220  11.263   2.788  0.1491 -0.0066  0.1636
10174W        W25305   1.943  18.297   2.635  0.0146  0.2285 -0.0960
10175W        W25306   4.412   5.022  13.603 -0.2036 -0.1975 -0.1931
10176W        W25307   6.545   2.653  12.946 -0.0590 -0.1836  0.0118
10177W        W25308   0.038   8.223   5.446 -0.2183  0.1713  0.0085
10178W        W25309   1.469   3.684  14.322  0.2795  0.1766  0.2146
10179W        W25310  13.894  13.688   3.427 -0.1770  0.1410 -0.3110
10180W        W25311   9.325   9.670   3.246 -0.2464 -0.2899 -0.3541
10181W        W25312  15.546  11.781  12.464 -0.2878  0.3059 -0.1785
10182W        W25313   5.464   1.259  13.236  0.0654  0.0485  0.1207
10183W        W25314  12.784   1.137   3.666 -0.4227  0.0706 -0.0493
10184W        W25315  14.970  15.901  14.446 -0.1326  0.0680  0.0256
10185W        W25316  17.020  17.080   0.217  0.1313 -0.1282 -0.0116
10186W        W25317  10.827   4.598  13.370 -0.0580  0.0827  0.3011
10187W        W25318  15.071  10.466  15.933 -0.1579  0.0604  0.0621
10188W        W25319  14.471   1.254   2.326  0.3266 -0.0424  0.0144
10189W        W25320   5.177  16.312   9.822 -0.0629  0.3601  0.2136
10190W        W25321   1.645   0.411   4.384 -0.1584 -0.1171 -0.1427
10191W        W25322  17.473  18.544  15.317  0.1955  0.2441  0.0302
10192W        W25323  17.581   3.477  12.679  0.0689  0.1973  0.0269
10193W        W25324   4.735  10.478   2.066  0.0486  0.0170  0.0644
10194W        W25325  16.660  15.656   0.601 -0.3251  0.1587 -0.1204
10195W        W25326  15.726  16.579  15.829 -0.0662 -0.0101 -0.0450
10196W        W25327   1.851  15.988  11.644 -0.1451 -0.0610 -0.1564
10197W        W25328   4.786  12.277   0.369  0.1143 -0.4212  0.1565
10198W        W25329  11.944  14.200   3.315 -0.2172  0.3145 -0.3486
10199W        W25330  14.199  11.586  11.095 -0.0174 -0.0943  0.1752
10200W        W25331   5.132   2.708  13.185  0.0255 -0.1184  0.0354
10201W        W25332   0.760  17.373   4.908  0.1499  0.2009 -0.0630
10202W        W25333  13.464  17.976   2.106  0.0237 -0.0932 -0.2397
10203W        W25334  17.135  18.233  10.895 -0.0601 -0.3130 -0.1668
10204W        W25335   5.140  16.650   0.836  0.0184 -0.2803 -0.2340
10205W        W25336   7.946  14.248   3.542 -0.1989 -0.1394 -0.3547
10206W        W25337  14.283   2.019   2.881  0.1614 -0.1523  0.1294
10207W        W25338  11.954  14.914   3.831 -0.0069 -0.1765 -0.0848
10208W        W25339  11.937   2.675   2.909 -0.1645 -0.0053 -0.0293
10209W        W25340   0.448   9.660   2.024 -0.1460  0.0887 -0.1468
10210W        W25341   9.025   9.440   4.643 -0.2337 -0.2687  0.3435
10211W        W25342  10.483   7.890   3.427  0.1127 -0.3795 -0.0559
10212W        W25343  17.519  10.997   4.921 -0.0874  0.0037  0.1552
10213W        W25344   9.567  17.554   2.381  0.0741  0.0672 -0.1251
10214W        W25345   4.452   0.713   1.783 -0.0679 -0.0724 -0.0962
10215W        W25346  14.978   2.626   1.247 -0.1225  0.3826 -0.1444
10216W        W25347   5.728  16.671   0.285 -0.2264 -0.0356  0.2549
10217W        W25348  12.718   3.187  14.345  0.4310  0.1267 -0.0179
10218W        W25349  12.550   3.321  10.860 -0.0370 -0.2803 -0.0997
10219W        W25350   5.693   6.376   2.604  0.0984  0.3167 -0.2166
10220W        W25351  17.363  14.126  10.599  0.1169 -0.1120  0.1895
10221W        W25352  16.901  11.759   3.529  0.4103  0.1458 -0.3518
10222W        W25353   5.445  16.436  10.251  0.1097 -0.2317 -0.2336
10223W        W25354   3.056   2.470  14.843  0.2007 -0.1139  0.2957
10224W        W25355   1.884  12.545   3.809  0.0330 -0.3827  0.1034
10225W        W25356  14.403  17.242   1.046  0.1704 -0.1079 -0.3599
10226W        W25357   7.308  16.124   3.003  0.2472  0.2138 -0.1579
10227W        W25358   7.580   1.655   0.648 -0.1017  0.3732 -0.1836
10228W        W25359   9.392   7.310  13.975 -0.0356  0.0215  0.3461
10229W        W25360   2.356   9.457  12.029 -0.1220 -0.0686  0.0268
10230W        W25361   1.280   5.358   0.452 -0.1176  0.3618  0.4904
10231W        W25362   9.040   7.964  12.903  0.0407  0.0224  0.2128
10232W        W25363  12.573   3.407  13.397  0.0241 -0.0912  0.0354
10233W        W25364  12.497  12.943  11.510  0.3033 -0.2836  0.0775
10234W        W25365   4.413   8.300  15.762  0.2265  0.2648 -0.1664
10235W        W25366   1.980  18.458   5.514  0.2555 -0.0686 -0.4614
10236W        W25367  18.216   2.041   3.934 -0.0389 -0.0605  0.0097
10237W        W25368   8.696  14.195  10.698  0.0532  0.2067  0.3348
10238W        W25369   2.597   4.283  12.961 -0.3524 -0.0836  0.2965
10239W        W25370   4.309   4.926  15.292  0.3440  0.0764 -0.0831
10240W        W25371  12.808  10.706   2.635 -0.1084  0.1345  0.2103
10241W        W25372  17.656   2.539   5.438 -0.0373 -0.2371 -0.1601
10242W        W25373   6.686   3.087   0.081  0.2735 -0.0528  0.0196
10243W        W25374  11.017  15.475  10.198  0.3191 -0.2743 -0.1070
10244W        W25375  17.953  16.790   2.827  0.2871  0.2538 -0.1402
10245W        W25376   8.665   4.583   0.312  0.0126 -0.3898 -0.1835
10246W        W25377   4.168  18.151   3.587  0.1009  0.0322 -0.0891
10247W        W25378   0.946   1.616  13.752 -0.0656 -0.0209  0.0881
10248W        W25379  13.689   7.344   1.442  0.0383  0.2617 -0.0019
10249W        W25380   9.533   2.198  12.007 -0.3179  0.0851 -0.2650
10250W        W25381   7.629  13.293  12.149 -0.0379  0.4061  0.1215
10251W        W25382   1.047   4.692  12.549 -0.4425 -0.2240 -0.0763
10252W        W25383   7.315  15.151  13.840  0.2058 -0.1551 -0.1804
10253W        W25384   2.103   4.553   0.565  0.2215  0.1739 -0.1564
10254W        W25385   2.672  15.976   2.941  0.2240  0.3030 -0.3191
10255W        W25386   6.215  12.300  12.901 -0.0372  0.0889 -0.0828
10256W        W25387  14.231   6.736  11.905  0.2086  0.1529 -0.0030
10257W        W25388  10.418   2.666  10.970 -0.3424  0.1072  0.3756
10258W        W25389  14.739  11.568   0.712 -0.0593  0.0568 -0.2482
10259W        W25390   9.038   8.390  15.567  0.1493 -0.1186 -0.0724
10260W        W25391  10.953   6.099   1.325  0.0314 -0.3652  0.1400
10261W        W25392  17.879  14.284   9.881 -0.5413  0.1939 -0.2278
10262W        W25393  16.047  15.034   6.310  0.2289 -0.0852 -0.0026
10263W        W25394  16.366   3.383  12.003 -0.3449  0.2549  0.0929
10264W        W25395  16.737   2.287  11.799 -0.0174 -0.0651  0.0452
10265W        W25396   5.579  16.870   4.091  0.0538  0.1420 -0.1854
10266W        W25397   4.308   4.801   0.535  0.1676  0.3101 -0.0666
10267W        W25398  14.425  12.093   5.571 -0.0367 -0.1008  0.0040
10268W        W25399  12.092  12.734  12.368 -0.1053 -0.1187  0.1877
10269W        W25400   0.951  17.596  13.021  0.0874 -0.3390 -0.1023
10270W        W25401   3.512  14.547   1.892  0.1004 -0.0756  0.0358
10271W        W25402   5.300   1.246   0.640  0.0379 -0.1008 -0.0761
10272W        W25403  12.795  12.533   3.647 -0.2183  0.2915 -0.3099
10273W        W25404   2.898  13.984   2.780  0.0317 -0.3554  0.0012
10274W        W25405  15.979   4.298  12.098  0.1913 -0.0434  0.2032
10275W        W25406   2.143   5.961   1.399 -0.1797  0.1314  0.0021
10276W        W25407   6.004   4.479   1.587 -0.1427 -0.2184 -0.2233
10277W        W25408   0.981  13.732   2.416 -0.1208  0.0012 -0.2017
10278W        W25409   7.386  17.354   1.987  0.2494  0.2575  0.1713
10279W        W25410   1.424   1.609  12.669 -0.2818  0.1158  0.1537
10280W        W25411   5.625   2.797  12.691 -0.1272  0.1296 -0.3959
10281W        W25412  14.902   0.574   2.777  0.1284 -0.0318  0.0923
10282W        W25413  14.497  13.038   3.732 -0.0713 -0.2378 -0.1843
10283W        W25414  13.180   0.757   1.978 -0.2067  0.1557 -0.1851
10284W        W25415   4.352  17.276   4.905 -0.1087  0.1707  0.0911
10285W        W25416  17.307  14.050   4.739 -0.2175 -0.0466 -0.3015
10286W        W25417  11.474  12.066  12.423 -0.0901  0.1297 -0.2031
10287W        W25418  13.620   8.347  12.116  0.1791 -0.3638  0.0522
10288W        W25419   4.706  17.935   1.616 -0.0322 -0.0816  0.1943
10289W        W25420   4.795  18.162   0.818  0.3139 -0.1886  0.1460
10290W        W25421  12.072  18.312   5.006  0.0934  0.2400  0.0455
10291W        W25422   2.811   1.451  10.910 -0.1162  0.0417 -0.2298
10292W        W25423   2.524  14.815   3.437  0.3377 -0.0472  0.1865
10293W        W25424   0.486  10.676  15.429  0.0841  0.1080 -0.4053
10294W        W25425   7.458   0.767   2.895  0.0117 -0.1086 -0.1774
10295W        W25426   7.377  13.074  11.750  0.0377  0.1724  0.0681
10296W        W25427   6.757  11.962   1.412  0.1221  0.3130  0.0042
10297W        W25428  14.943  13.693  15.705  0.1159 -0.0267 -0.0773
10298W        W25429  17.649  17.082  13.024 -0.2770 -0.1201  0.2028
10299W        W25430  13.402   1.041  14.646  0.1083 -0.1798 -0.0794
10300W        W25431  15.098   7.768  15.939  0.0757  0.0875 -0.1818
10301W        W25432   2.264  10.452   5.460 -0.0929 -0.0525  0.1337
10302W        W25433  17.025   5.770   0.954  0.0012  0.0507  0.0189
10303W        W25434  14.872  15.137  13.196  0.2493  0.2970  0.0731
10304W        W25435  13.855   0.179   2.073  0.0729  0.0222  0.0045
10305W        W25436   1.644   5.613   2.796 -0.2070  0.0447  0.1449
10306W        W25437  11.362   4.773   1.248 -0.1213  0.1389 -0.1218
10307W        W25438  12.915  18.374  14.943  0.1588 -0.0910  0.0873
10308W        W25439  15.321   8.231   4.772  0.0236  0.0513 -0.1194
10309W        W25440  11.822  10.735  15.632 -0.0932  0.0240  0.1338
10310W        W25441   2.880   7.874  15.070 -0.1953 -0.0727  0.2982
10311W        W25442   8.217  17.066   1.434 -0.1627  0.0157  0.0590
10312W        W25443   0.464  16.634   0.348  0.6397 -0.0783  0.3170
10313W        W25444   4.700  10.571   4.405 -0.0914  0.1482 -0.1782
10314W        W25445   6.215  16.022  13.589  0.2569 -0.0534 -0.2078
10315W        W25446  15.321   3.751  14.512  0.1827 -0.2226 -0.0951
10316W        W25447   9.938  15.755  13.596 -0.1656 -0.1403 -0.2588
10317W        W25448   9.881  11.142  13.742  0.0776 -0.0013 -0.2317
10318W        W25449  10.076  10.695   3.253 -0.1122  0.1556  0.2495
10319W        W25450   3.795  13.001   2.815  0.3380 -0.1647  0.0800
10320W        W25451   7.381   7.227   0.800 -0.1753 -0.2153  0.1051
10321W        W25452   0.894  14.353   5.629  0.2252  0.0134  0.0718
10322W        W25453   9.752   7.594   1.338  0.0780  0.1057  0.2367
10323W        W25454  10.257   4.938  14.572  0.0923 -0.1524 -0.3164
10324W        W25455  13.921   8.730   1.394  0.0888  0.0826  0.1312
10325W        W25456   3.297  14.286   3.718  0.0626 -0.0023 -0.3683
10326W        W25457  16.420   7.719   0.315 -0.1689 -0.1806 -0.0746
10327W        W25458   8.914   0.626   3.779 -0.2413 -0.0640  0.2262
10328W        W25459   1.490   7.617   2.096 -0.1334  0.1829 -0.2445
10329W        W25460   4.040   0.373  10.491 -0.1930  0.0612 -0.1693
10330W        W25461   2.682   4.783   4.827  0.0954 -0.0594 -0.1045
10331W        W25462  12.228   8.443   0.831 -0.1721  0.2518  0.3059
10332W        W25463   8.059   4.258   4.126 -0.2845 -0.1178  0.1498
10333W        W25464   9.120   2.416  14.767  0.0606  0.1048 -0.1435
10334W        W25465   7.329   0.530   0.062 -0.3488 -0.0224  0.1139
10335W        W25466   0.801  17.914  11.798  0.1274  0.0866 -0.1402
10336W        W25467  12.450  16.265  14.004  0.1442 -0.0611 -0.1628
10337W        W25468   5.080  14.411  12.958  0.1797 -0.3593 -0.0320
10338W        W25469  14.621  16.694   5.047 -0.0288 -0.1570 -0.3252
10339W        W25470  12.887   9.306  12.454 -0.1108 -0.1660  0.0144
10340W        W25471  14.553  13.109   0.048 -0.1876  0.0159  0.0601
10341W        W25472   0.137   0.661   2.507 -0.0919  0.2781 -0.1451
10342W        W25473  17.377   5.647  13.728  0.0072  0.2571 -0.0332
10343W        W25474   1.586  11.350   3.122 -0.1102 -0.0301  0.1461
10344W        W25475  11.329   1.434  12.493 -0.1204 -0.2144 -0.5259
10345W        W25476   8.250   9.299   3.262  0.0894  0.0155  0.0561
10346W        W25477   3.673   4.172   4.260 -0.0312  0.0305  0.2305
10347W        W25478  16.440  14.353  13.933  0.3277  0.0623  0.1373
10348W        W25479  16.311  13.701  14.487 -0.0039  0.1052  0.3233
10349W        W25480  16.973   2.475   4.445  0.0657  0.1092 -0.0835
10350W        W25481   6.749  16.893   1.835  0.0666 -0.3828 -0.1406
10351W        W25482   5.131   3.581  12.395 -0.0535 -0.0732 -0.2479
10352W        W25483  15.671   3.768   1.754 -0.2900  0.1826 -0.0808
10353W        W25484   9.411  12.490   5.014 -0.3235  0.2018 -0.0328
10354W        W25485   7.978  15.904   1.201 -0.1798  0.1672 -0.1551
10355W        W25486  14.728   9.189   3.414  0.3071  0.0296  0.3507
10356W        W25487  13.306  13.834   5.352  0.3405 -0.1543  0.0736
10357W        W25488   7.654  12.379   1.786  0.2385 -0.1313  0.0683
10358W        W25489   4.574  14.026   3.506 -0.0541 -0.3600  0.0382
10359W        W25490  10.668  16.717  15.491  0.5356 -0.0159 -0.0874
10360W        W25491  11.283  12.715   2.269  0.2220  0.0286  0.0245
10361W        W25492   6.356   6.215  11.227  0.2972  0.0733  0.0113
10362W        W25493  10.137   5.965  12.469 -0.0378 -0.1310 -0.0472
10363W        W25494  11.111   2.717  14.583  0.1825  0.0850 -0.1836
10364W        W25495   6.875  15.253   5.199  0.3274  0.0372 -0.0441
10365W        W25496  17.790  10.597  12.231  0.3509 -0.0045 -0.0132
10366W        W25497  13.373  12.952  13.265  0.1101 -0.1291  0.4581
10367W        W25498  10.227   2.793  12.680  0.3089 -0.1836 -0.3247
10368W        W25499  16.503  14.621  14.934  0.1320  0.0168 -0.0243
10369W        W25500   0.984  14.339   5.154 -0.1221 -0.0884  0.1515
10370W        W25501  14.201   4.389   5.192 -0.0595  0.2948  0.2249
10371W        W25502  17.129  15.037  12.476 -0.1403 -0.1572  0.2547
10372W        W25503   5.323   6.770  13.571  0.0675  0.0847 -0.1449
10373W        W25504   2.794  10.712  10.785 -0.5467  0.2992 -0.1119
10374W        W25505   9.383  16.321  10.674 -0.0485  0.1669  0.1935
10375W        W25506   6.069   8.674  14.053  0.2324  0.0227  0.1385
10376W        W25507   6.721  14.444  15.445  0.0672 -0.2072  0.2342
10377W        W25508  17.472  10.582   2.147 -0.2495  0.1454  0.2522
10378W        W25509   4.387   9.847   5.447 -0.1366 -0.2111  0.2335
10379W        W25510   3.449   9.547   1.738 -0.0899 -0.0312  0.1449
10380W        W25511  18.562   4.585   3.822  0.2127  0.0650 -0.1930
10381W        W25512  13.424  13.784  12.696 -0.4482 -0.1517  0.0825
10382W        W25513  12.243  11.969  12.047 -0.4551  0.3732 -0.0755
10383W        W25514  16.991   7.638   0.339  0.0054 -0.0613  0.0669
10384W        W25515   8.086  14.537   5.056 -0.2364  0.1495 -0.0637
10385W        W25516   9.662   9.881   5.319 -0.2168  0.2076 -0.1727
10386W        W25517   0.481   8.407   5.742  0.2142  0.1359  0.0353
10387W        W25518   2.423   8.786  15.524 -0.0458  0.1307  0.3513
10388W        W25519  14.183  12.647   2.518  0.4053 -0.0558  0.0912
10389W        W25520   4.522  12.888   3.183  0.0070  0.0889 -0.2279
10390W        W25521  15.981   8.337  13.789  0.1257 -0.0367  0.1873
10391W        W25522   0.698  12.586   5.077  0.1367 -0.3471  0.0982
10392W        W25523  11.432  10.241  14.670  0.5070  0.0845 -0.0721
10393W        W25524   2.164  14.655  14.226  0.0087 -0.1033 -0.1732
10394W        W25525  14.996  17.809   4.501 -0.2159 -0.0184 -0.0634
10395W        W25526  12.487  17.015  12.206 -0.2451 -0.1896 -0.2926
10396W        W25527  16.418   2.250   3.993  0.0948  0.3856  0.2701
10397W        W25528  17.383   8.878  15.797 -0.1559  0.0511  0.1329
10398W        W25529  15.548   9.231   5.333  0.4623 -0.2657 -0.0273
10399W        W25530   9.704   3.298  11.758  0.4970  0.3236  0.1750
10400W        W25531  14.463  11.329   1.096  0.0393 -0.2445  0.1804
10401W        W25532  15.073  11.865   3.084  0.0322  0.3254  0.0287
10402W        W25533  16.401   8.262   0.406  0.4131  0.1553  0.2815
10403W        W25534   1.064   8.059  15.301 -0.0625  0.0229 -0.0551
10404W        W25535  15.171   0.992  12.721 -0.1274  0.0742 -0.1072
10405W        W25536  12.918   2.210  14.059 -0.1259  0.1565 -0.1545
10406W        W25537  10.920   5.388   5.092  0.1110  0.3259  0.2391
10407W        W25538   9.593   8.268   2.648  0.1686 -0.0585 -0.1152
10408W        W25539  10.432   5.312   1.169  0.1341  0.1527  0.1869
10409W        W25540  18.168   5.772   4.580  0.1558  0.0491 -0.0336
10410W        W25541  13.326   5.739  10.328 -0.2069 -0.0870  0.2729
10411W        W25542   3.830  13.969   2.889  0.0147  0.0169  0.0686
10412W        W25543  16.832  15.058  15.214 -0.0749 -0.0512 -0.2180
10413W        W25544  11.349   1.511   2.425 -0.2173  0.1079  0.1610
10414W        W25545  12.706  11.251  12.917  0.1353 -0.0039  0.2558
10415W        W25546  10.248  15.937   3.679  0.1877  0.3329 -0.0063
10416W        W25547  14.672   8.470   1.978  0.1460  0.0042  0.0189
10417W        W25548   3.807  10.309   5.353 -0.1036 -0.1510  0.0500
10418W        W25549  15.805   9.039   2.093 -0.0382  0.2031  0.0714
10419W        W25550  11.936  14.276   0.710 -0.3022  0.1218  0.3827
10420W        W25551   3.335   5.773   2.815  0.1810 -0.0895  0.1199
10421W        W25552   5.884   0.246   5.175 -0.0345 -0.0349  0.0626
10422W        W25553   6.893  18.100  13.880 -0.2509 -0.0092 -0.0154
10423W        W25554   9.294   5.331  15.350 -0.1025 -0.0034 -0.0655
10424W        W25555   5.268  16.028   4.607  0.6006  0.1507  0.1359
10425W        W25556  12.205  15.899  15.613 -0.1104 -0.1786  0.3128
10426W        W25557  15.615   1.704  13.675 -0.1515  0.0106  0.2584
10427W        W25558  13.612  17.481   1.714 -0.1249 -0.0242  0.0827
10428W        W25559   9.221   8.500  14.682 -0.1834 -0.0888  0.0858
10429W        W25560  11.721   7.126  15.885 -0.0526  0.0711  0.1309
10430W        W25561   6.236   3.408  15.261 -0.2331 -0.0858 -0.1481
10431W        W25562  10.549   2.416  12.562 -0.2486 -0.0008  0.2050
10432W        W25563  12.276  15.903  11.216 -0.2108 -0.2735  0.2527
10433W        W25564   2.637  15.632   3.906 -0.0693  0.2622  0.0506
10434W        W25565  15.737  13.866  11.815 -0.3661  0.0233 -0.4563
10435W        W25566  14.490  18.319   2.446  0.0127 -0.1347  0.3305
10436W        W25567  12.180   3.554  13.058  0.2454 -0.1329 -0.2595
10437W        W25568  15.520  14.355   3.375  0.1183  0.1583  0.0447
10438W        W25569   1.185   9.654  14.666  0.0422  0.1489 -0.1129
10439W        W25570  18.461   6.733  14.862 -0.0186  0.0498 -0.2463
10440W        W25571   0.597  11.908   4.325  0.1199  0.1523 -0.0480
10441W        W25572   7.663  11.116   2.718  0.0752 -0.4513 -0.2282
10442W        W25573   9.372  13.299  15.156 -0.1799 -0.0295 -0.1267
10443W        W25574  15.636   2.708   3.105  0.1230  0.5500  0.0772
10444W        W25575   9.835  14.219   4.359 -0.0929  0.4380  0.0266
10445W        W25576   2.840   0.639  10.687  0.0730 -0.0533  0.0802
10446W        W25577   3.989   2.811  12.110  0.2310  0.2166 -0.0976
10447W        W25578   5.642   4.428  13.318  0.0326  0.1760 -0.1062
10448W        W25579  14.079   2.409  13.915 -0.0672  0.1499 -0.0682
10449W        W25580  15.373   3.359  14.853  0.0983 -0.1542 -0.0727
10450W        W25581  12.790   2.306  15.763 -0.1901  0.0523  0.2096
10451W        W25582   4.122  11.894   2.492  0.1333 -0.4901 -0.1578
10452W        W25583  17.381   7.946  13.935  0.0589  0.0395  0.1830
10453W        W25584  11.172   1.310   1.053  0.2330  0.2329  0.1538
10454W        W25585   7.741  15.882  14.646 -0.2123  0.1584 -0.4174
10455W        W25586  15.721   1.272  15.054 -0.1830  0.2720  0.2238
10456W        W25587  16.644   7.646  15.323 -0.2303 -0.1275  0.3480
10457W        W25588   3.173  14.359   0.643  0.0314  0.2676  0.3126
10458W        W25589  13.067   3.523  15.083  0.0994 -0.4120 -0.1461
10459W        W25590   9.075  13.815  15.199  0.0358  0.1357  0.1739
10460W        W25591  14.594   3.976   3.332 -0.0685 -0.2133  0.1237
10461W        W25592  15.925   0.650  12.257 -0.1769  0.0139  0.1501
10462W        W25593  11.001  13.773  12.817 -0.0241  0.0644  0.3290
10463W        W25594   3.787  11.669  11.609  0.4033  0.4297  0.1257
10464W        W25595  13.556   7.936   4.500  0.2553 -0.1567 -0.4675
10465W        W25596  13.632  15.493   4.366  0.0525  0.0429  0.1524
10466W        W25597   6.054   4.350   2.074 -0.3737  0.2527  0.1490
10467W        W25598  14.803  16.316   5.399  0.0023  0.1642 -0.6641
10468W        W25599   7.545  11.105  12.250 -0.0561  0.0703 -0.0108
10469W        W25600  16.846   0.686  13.055 -0.1682  0.1464  0.2348
10470W        W25601   1.662   3.764  13.392 -0.2032  0.1731 -0.2185
10471W        W25602   3.493   7.660  14.548 -0.2924 -0.0629 -0.1614
10472W        W25603   2.918   8.426   4.378  0.0196  0.2810 -0.1655
10473W        W25604  15.168   6.978   3.143  0.1511  0.0721  0.0382
10474W        W25605  15.921   9.097  14.221  0.0172  0.1978  0.3418
10475W        W25606  14.163   9.701  12.061  0.2125 -0.1311 -0.0478
10476W        W25607   2.200   2.309  12.354  0.2413 -0.2209  0.3591
10477W        W25608   9.549  12.572  15.686  0.0696  0.3729  0.1917
10478W        W25609  17.489  18.522   1.755 -0.2368 -0.3677 -0.1573
10479W        W25610   3.398  11.887  13.236  0.3673 -0.0922 -0.3075
10480W        W25611   2.472   4.435   3.097 -0.1798  0.1281 -0.4771
10481W        W25612   6.213   8.940  13.079 -0.1774  0.1598  0.3865
10482W        W25613   1.513   3.968   1.477 -0.0274 -0.3797 -0.0430
10483W        W25614  18.425   5.046   1.894  0.4186 -0.0051  0.3144
10484W        W25615   9.335   7.722   2.567 -0.0403  0.1234  0.1130
10485W        W25616  11.488  15.966  12.648  0.0365  0.0324 -0.2150
10486W        W25617   5.536   8.509   0.213 -0.2581  0.2453 -0.0103
10487W        W25618   2.934  13.026   2.536 -0.5589  0.2076 -0.2821
10488W        W25619  10.647  14.345   4.620 -0.3006 -0.0234  0.3183
10489W        W25620   0.427  10.810  13.753  0.0708  0.1665 -0.0740
10490W        W25621   6.839   8.551  15.727 -0.1018 -0.1220 -0.1850
10491W        W25622  12.650   7.189   4.617  0.0986  0.1115 -0.0624
10492W        W25623  16.933   4.542   0.468 -0.0918 -0.4798 -0.0631
10493W        W25624   8.088   8.721   1.300 -0.0104  0.2201  0.0367
10494W        W25625   2.456  11.573   4.449  0.0865 -0.0830  0.2031
10495W        W25626   9.851  10.989   0.653  0.2281 -0.0113  0.0966
10496W        W25627   9.337   3.755  11.885  0.2734  0.0501  0.2131
10497W        W25628   4.270  13.334  13.885  0.0208 -0.0941 -0.0495
10498W        W25629  16.380   7.825  13.060 -0.2530  0.2888  0.2150
10499W        W25630  15.673   8.972   1.531  0.0054  0.0833 -0.1780
10500W        W25631  13.421   8.314   2.684 -0.0099  0.2286 -0.1865
10501W        W25632   9.136   9.874   5.038 -0.1068  0.0381 -0.2792
10502W        W25633   5.579  15.843   1.194  0.3454  0.0980 -0.0509
10503W        W25634   4.382   1.027   2.154  0.0996 -0.1298  0.0479
10504W        W25635   5.981  15.219  15.842 -0.2991  0.0631  0.1908
10505W        W25636   7.474   8.192  14.230  0.2114 -0.1598  0.1851
10506W        W25637   6.766   9.104  14.576  0.2271  0.0583 -0.1831
10507W        W25638  12.076   0.718   4.659  0.1279 -0.2041  0.3483
10508W        W25639   0.326  15.748   2.461 -0.0002  0.0280  0.0707
10509W        W25640  16.615  14.348  12.967  0.0635 -0.0239  0.4509
10510W        W25641  13.774  14.468  13.255  0.0880  0.0916  0.2037
10511W        W25642  11.817   9.732  15.503  0.1825  0.0154 -0.2686
10512W        W25643   5.441   9.937  14.756  0.0011 -0.0517 -0.1904
10513W        W25644  16.166   3.791  14.388 -0.0992 -0.1707  0.3398
10514W        W25645  18.115  11.775  15.122  0.3415 -0.0580  0.3823
10515W        W25646  15.858   2.550  13.138  0.3406 -0.0870 -0.0416
10516W        W25647  11.573  14.577   1.983 -0.1985 -0.0233  0.0696
10517W        W25648   6.863   3.303   2.519 -0.1509 -0.4057 -0.0086
10518W        W25649   0.708   9.378   3.264 -0.1941  0.1697  0.4012
10519W        W25650   1.854   4.762  15.213  0.2615  0.0346 -0.0539
10520W        W25651   6.852   1.374  10.724  0.0912  0.0091  0.0979
10521W        W25652   2.539  10.377   4.513  0.0175 -0.1805  0.2336
10522W        W25653  14.456  11.589   5.511  0.0361  0.2224  0.1091
10523W        W25654   9.687  16.247   2.948  0.2412 -0.1319  0.0245
10524W        W25655  14.031   4.765   4.901  0.4012 -0.0721 -0.0503
10525W        W25656   4.936   5.302   2.609  0.0300 -0.3166 -0.0969
10526W        W25657  11.117  11.947   1.762  0.1460 -0.2762 -0.1392
10527W        W25658  13.290   3.090  14.794  0.2032  0.1934 -0.2668
10528W        W25659   2.591   0.585  14.295  0.2952  0.1640  0.2302
10529W        W25660   9.062  10.499  10.962 -0.4767  0.3893 -0.2528
10530W        W25661  16.741   7.129  14.160  0.1332  0.0148 -0.1005
10531W        W25662  18.387   2.992   4.428  0.2220 -0.0129 -0.0199
10532W        W25663   6.654  17.643   1.416 -0.1346 -0.1354  0.3303
10533W        W25664   5.189   1.938   5.059 -0.1996  0.1943 -0.0607
10534W        W25665   6.485   0.404   1.020  0.1969  0.1447  0.1368
10535W        W25666  12.412  15.396  12.024 -0.0904  0.2896  0.0582
10536W        W25667  11.306  15.770   1.457 -0.1508 -0.2807 -0.1068
10537W        W25668  17.423  16.930   1.330  0.0453 -0.3020  0.3380
10538W        W25669  11.667  13.606  14.133  0.1403 -0.1058  0.2380
10539W        W25670   3.287  13.867  11.867  0.0103 -0.2523 -0.2867
10540W        W25671   9.512   5.485   3.684  0.1602 -0.1937  0.0769
10541W        W25672  10.595   8.234  13.592  0.1786 -0.0179  0.1567
10542W        W25673   8.244  12.109   4.750  0.1587 -0.0125 -0.0622
10543W        W25674  17.650  18.120  15.475 -0.0122 -0.3207  0.1471
10544W        W25675  10.553   1.566   1.508  0.3983  0.0890 -0.3472
10545W        W25676   0.036  11.198  13.273  0.0321  0.2664 -0.1588
10546W        W25677   2.130   9.724   0.244  0.4606  0.1578  0.2034
10547W        W25678  13.217  13.154  15.043  0.1187  0.0380 -0.2359
10548W        W25679   8.814  12.945   0.591  0.2196  0.3462  0.3326
10549W        W25680   3.395  18.432   3.144  0.3794  0.0326  0.1758
10550W        W25681  13.243   4.849  12.026 -0.0061  0.0483 -0.2141
10551W        W25682   4.456  12.034  13.609  0.0881  0.2536 -0.1780
10552W        W25683   1.634  11.529  11.227 -0.3214 -0.1593 -0.1760
10553W        W25684   1.312  12.903   6.155  0.0645  0.2558  0.1281
10554W        W25685  11.902   9.056  13.686  0.0519  0.0578  0.1042
10555W        W25686  13.587   4.654  11.034  0.2882  0.1971 -0.1193
10556W        W25687   1.344  11.666   3.643  0.1672  0.2877  0.1392
10557W        W25688  14.656   8.670   0.108  0.2355 -0.1033 -0.0565
10558W        W25689  11.958  17.390  10.211  0.3027 -0.2419  0.2470
10559W        W25690  18.141   4.553   1.056  0.0529  0.1132 -0.0641
10560W        W25691   9.491  13.519  10.053  0.1694  0.2121 -0.1276
10561W        W25692  12.052  15.454  15.016 -0.1757 -0.3075  0.0724
10562W        W25693   2.304   9.731  13.985  0.0943 -0.0926  0.1989
10563W        W25694   3.032   2.915   1.957  0.4638 -0.0636 -0.0869
10564W        W25695   2.902  14.822   0.604 -0.0049 -0.2206  0.0436
10565W        W25696  13.052   7.633  11.968 -0.4115 -0.1826  0.1758
10566W        W25697   4.433   5.733   1.250  0.0940 -0.1626 -0.0077
10567W        W25698   2.909  13.228   2.086  0.0806 -0.1155 -0.1470
10568W        W25699  11.721   3.762  15.567  0.2609  0.0758  0.1980
10569W        W25700  15.430   5.015   2.767 -0.0335 -0.1083  0.3162
10570W        W25701   2.533   6.060  13.042 -0.1055  0.0939 -0.1361
10571W        W25702  15.812   4.325  15.540  0.0678  0.1237 -0.0698
10572W        W25703   2.555  16.491  13.345  0.4673 -0.0353  0.2139
10573W        W25704   5.855   4.127   4.980  0.0336  0.0762  0.1595
10574W        W25705  14.935   5.911   0.368  0.1034  0.2178  0.2986
10575W        W25706  17.840   2.657  10.594 -0.0391  0.1236  0.3282
10576W        W25707   3.402   2.978   3.077  0.1279 -0.0173 -0.1206
10577W        W25708   4.611  10.728   2.546 -0.1697  0.0776 -0.2779
10578W        W25709   1.414   0.084  14.333 -0.3131 -0.4451  0.4561
10579W        W25710  14.632  12.267   2.468  0.1263  0.0548  0.1826
10580W        W25711   2.078  16.611   4.418 -0.0886 -0.3703  0.0156
10581W        W25712  11.396   0.978  15.783  0.2450 -0.2847  0.1895
10582W        W25713   3.016   6.813   5.239  0.1017 -0.1577  0.0631
10583W        W25714  15.037   5.063   3.700 -0.0366  0.0469 -0.0626
10584W        W25715   6.292  17.134  12.866 -0.1775  0.0632 -0.2238
10585W        W25716   5.878   2.790   4.651  0.0886  0.1146 -0.0564
10586W        W25717   1.176   4.476  13.936 -0.1595  0.0691  0.0940
10587W        W25718   9.024   6.008   2.459  0.1285 -0.0765 -0.1072
10588W        W25719   1.206  10.155  14.622 -0.4267 -0.1145  0.2368
10589W        W25720  12.480   4.564   3.587  0.1412  0.1629 -0.2605
10590W        W25721   3.970   5.719   4.289 -0.4516 -0.2512 -0.0019
10591W        W25722   6.190   5.181   3.689  0.0132  0.0232  0.2902
10592W        W25723  11.999  12.501  10.912  0.1036 -0.0646 -0.0375
10593W        W25724  11.387  15.287   3.038 -0.1248 -0.0399  0.0780
10594W        W25725  18.505   7.137   5.167  0.2211  0.2191 -0.1552
10595W        W25726   4.802  16.235   1.142  0.1145 -0.1801  0.0245
10596W        W25727  12.554  10.508  15.030 -0.1068  0.1765  0.2881
10597W        W25728  14.248  12.769   3.304  0.0019  0.0086 -0.3539
10598W        W25729  13.554   8.355  12.603 -0.0180  0.3108 -0.0896
10599W        W25730  10.609   2.369   3.322  0.0060  0.1713 -0.0851
10600W        W25731   8.193  13.582   0.584 -0.1604  0.0997  0.2914
10601W        W25732  15.641   8.311  14.827 -0.1126  0.0331  0.1837
10602W        W25733  14.627   9.607   2.633 -0.2855 -0.1716 -0.1705
10603W        W25734   9.341   3.439  11.432  0.1401  0.2477  0.2511
10604W        W25735   1.276  15.772  15.906  0.0050  0.2414 -0.2035
10605W        W25736   2.233  14.289  13.316  0.0507  0.1942 -0.0078
10606W        W25737  13.249  13.473   2.654 -0.1727 -0.0500 -0.1476
10607W        W25738   1.128   9.006  12.247 -0.1487  0.0280  0.0205
10608W        W25739  16.490   1.731   4.886  0.1035  0.0109  0.3011
10609W        W25740   9.948  10.622  11.110 -0.1207  0.1268  0.0863
10610W        W25741  15.141  13.766  11.793 -0.1667 -0.2748 -0.0421
10611W        W25742  16.190   6.689   5.911 -0.1232 -0.1286  0.0700
10612W        W25743   0.865   2.361  15.013  0.0766  0.0542 -0.1146
10613W        W25744  16.233  17.425   3.386 -0.0234  0.0512 -0.2176
10614W        W25745   6.170  17.047   3.303 -0.2609  0.0066 -0.2434
10615W        W25746   1.829  16.368  11.985  0.0946  0.1391  0.1907
10616W        W25747   4.320  13.592   2.174 -0.0827  0.1130 -0.0092
10617W        W25748   5.971   2.590   0.520  0.1225 -0.3569  0.0734
10618W        W25749  10.445  15.492  12.889  0.0048 -0.0897  0.1905
10619W        W25750  17.816   8.024  14.219 -0.0175 -0.3322 -0.1713
10620W        W25751   0.626   1.026  15.043 -0.1215 -0.1808 -0.1813
10621W        W25752   9.155  10.076   3.981 -0.3160  0.0467 -0.0467
10622W        W25753   8.081  13.206   1.922 -0.1269  0.2443  0.0872
10623W        W25754   6.579   2.964  14.686  0.2259 -0.0005  0.2460
10624W        W25755  16.474   4.127  14.618  0.0008  0.1817  0.1214
10625W        W25756  16.644  10.881  11.717  0.0463  0.3437  0.0309
10626W        W25757  10.960   1.365   0.215  0.1119  0.1017 -0.0033
10627W        W25758   4.787   0.917   4.084 -0.0010 -0.1182  0.1946
10628W        W25759   8.234  13.461  14.054 -0.1096  0.0016 -0.0183
10629W        W25760  11.586   6.618   5.416 -0.0206  0.0768 -0.1409
10630W        W25761  10.195   1.814  11.125 -0.2041 -0.0721  0.0969
10631W        W25762   3.789   9.504  14.653 -0.2447 -0.0531  0.0749
10632W        W25763   3.690   1.091   5.178  0.1544  0.2855 -0.2641
10633W        W25764   2.761   4.178   2.350 -0.1821 -0.2065 -0.1528
10634W        W25765  15.648   8.956   2.645  0.1085  0.0931 -0.1192
10635W        W25766   5.749   7.550  14.134 -0.1238 -0.1527 -0.0903
10636W        W25767   4.295  13.441   1.368 -0.0547  0.0210 -0.1625
10637W        W25768   3.107  12.114   3.464 -0.0442  0.2468 -0.1157
10638W        W25769  12.416  11.417   0.826 -0.0692  0.0409  0.0559
10639W        W25770   2.164   9.745  14.652 -0.3092  0.1098 -0.0310
10640W        W25771  13.779   6.102   0.599 -0.2173  0.0824 -0.1032
10641W        W25772   2.197  15.288   0.418 -0.1079  0.2587 -0.0134
10642W        W25773  12.058  16.675  13.283  0.1988  0.0947  0.2821
10643W        W25774   2.766  10.627   2.405 -0.1532  0.2887  0.1406
10644W        W25775   3.003   5.138  15.252  0.2876 -0.4272  0.0545
10645W        W25776  16.836  10.007  11.898  0.0536  0.1171 -0.2372
10646W        W25777  17.236   9.879   0.020  0.2120  0.3474 -0.3158
10647W        W25778   7.066   0.934   4.185  0.0682  0.3036 -0.1820
10648W        W25779   4.812   4.675  13.657  0.1169 -0.0467  0.1176
10649W        W25780   4.763   2.999   2.287 -0.2356  0.1915 -0.1381
10650W        W25781   4.326  16.791  15.888  0.3239  0.1003  0.2332
10651W        W25782   2.095  14.155   1.296  0.1269 -0.1737 -0.1478
10652W        W25783   3.793  13.342   0.630 -0.0797 -0.0889 -0.0289
10653W        W25784   5.787  17.866  11.885 -0.1670 -0.0958  0.3347
10654W        W25785  17.152  18.229  15.603  0.2176  0.1278  0.1573
10655W        W25786   5.239   7.448   1.459  0.2007  0.0662  0.0340
10656W        W25787  10.222  10.995   2.818 -0.2771  0.2795 -0.0858
10657W        W25788   4.701  14.904  13.524 -0.3941  0.1388  0.1907
10658W        W25789  10.121  16.850   1.410  0.2287  0.2048  0.2029
10659W        W25790   1.662  13.811   0.437  0.0752  0.3231  0.0221
10660W        W25791   7.315  18.103  11.163 -0.1250 -0.0212 -0.2067
10661W        W25792   6.114   2.025  10.798 -0.0568  0.1658  0.1119
10662W        W25793  14.789   3.793   0.794  0.3658  0.3349  0.0161
10663W        W25794   2.733   9.997   3.501 -0.5138 -0.0953  0.2895
10664W        W25795  11.270   5.248   3.859  0.2412  0.1151  0.1048
10665W        W25796   3.923  16.111   2.261 -0.0179  0.3649  0.4821
10666W        W25797   1.165  13.449   4.008 -0.0517 -0.0766  0.0430
10667W        W25798   4.706  15.450   2.250  0.1526  0.1993  0.2185
10668W        W25799  11.222   1.298  14.373  0.1404  0.1109 -0.2310
10669W        W25800   3.660   1.900   3.869 -0.1322  0.0401  0.3397
10670W        W25801   2.676  16.967  11.005 -0.0930 -0.0047 -0.1150
10671W        W25802   9.735   7.611   0.812  0.0258 -0.0573  0.1599
10672W        W25803   2.752   1.022  14.422  0.0483 -0.0693  0.0131
10673W        W25804   6.406  13.532  14.641  0.2232  0.1339 -0.2361
10674W        W25805   3.529   2.997  14.306 -0.0172 -0.3079 -0.0587
10675W        W25806   3.158  15.388   1.177  0.2943  0.0581  0.2712
10676W        W25807   0.763  17.171  10.744  0.1438  0.1007 -0.2505
10677W        W25808  13.494   5.710   0.375 -0.0369 -0.0414 -0.0952
10678W        W25809  14.094   0.805   4.060  0.1950 -0.2762  0.1869
10679W        W25810  16.473   6.857   3.498 -0.0011  0.0541  0.0406
10680W        W25811   9.782  13.544   3.035 -0.0151  0.1354 -0.1161
10681W        W25812   3.467   0.454  12.067 -0.1185  0.3291 -0.1083
10682W        W25813   3.098   1.398  13.408  0.1767 -0.0840  0.2782
10683W        W25814   9.207   9.785   1.986  0.0026 -0.2491 -0.1720
10684W        W25815   8.886  18.298   2.837  0.0212 -0.1778  0.1942
10685W        W25816  16.169   6.383  14.886  0.1842 -0.1504  0.2472
10686W        W25817   2.610  16.889  12.994 -0.0990 -0.0920  0.0487
10687W        W25818   3.673   8.795  12.061  0.0662  0.0774 -0.0562
10688W        W25819   5.759  15.793  12.194  0.1526 -0.3579 -0.2832
10689W        W25820  17.467  12.285  12.570  0.3240  0.1254  0.1708
10690W        W25821   4.426   7.955  14.400  0.1946 -0.1117 -0.0093
10691W        W25822  10.920   1.698  12.308  0.1068  0.1880 -0.0064
10692W        W25823   1.520   8.267  12.732  0.1445  0.4040 -0.1698
10693W        W25824   6.619   1.150  14.297 -0.0916 -0.0983 -0.0522
10694W        W25825   9.237  10.005  10.194 -0.2320 -0.3298 -0.3246
10695W        W25826   4.490  10.747  12.755  0.0436 -0.1790 -0.1514
10696W        W25827  14.717   6.827  12.181 -0.3543 -0.2347 -0.0454
10697W        W25828   8.562   6.840  12.165 -0.1534  0.2246  0.2303
10698W        W25829  13.912   6.654   0.472 -0.3226  0.0606 -0.1303
10699W        W25830   4.798  15.923  15.575 -0.0603 -0.0933 -0.2387
10700W        W25831   3.724  10.914  10.951  0.1037 -0.0976 -0.0743
10701W        W25832  10.234   9.793   2.564  0.1108 -0.1942  0.1522
10702W        W25833  10.501  14.913  12.106  0.0135  0.4683  0.0419
10703W        W25834  15.901   9.508  13.870  0.1145  0.0089 -0.1074
10704W        W25835   3.632  16.950   2.884  0.1548  0.0955  0.4883
10705W        W25836   4.266  10.847   5.587 -0.0325 -0.1387  0.2496
10706W        W25837  15.788   9.409   3.802  0.0040 -0.0810  0.0559
10707W        W25838  11.838   2.997   5.915  0.0153  0.0653  0.3677
10708W        W25839  12.114   7.816   5.759 -0.0473 -0.0476 -0.1253
10709W        W25840  14.503  17.578   4.341 -0.1721  0.1959 -0.1975
10710W        W25841  18.123  15.560  11.469 -0.0236 -0.0718  0.3150
10711W        W25842  18.334   2.522   4.696 -0.0944 -0.0254 -0.2488
10712W        W25843  12.185   7.294  13.546  0.2764 -0.0581 -0.0572
10713W        W25844  15.333  13.504  12.787 -0.1908 -0.2722  0.1163
10714W        W25845  17.403   3.613  13.686  0.0845 -0.0117  0.0258
10715W        W25846  17.299   1.084  11.539 -0.0263 -0.3798  0.0557
10716W        W25847   3.437   0.626   0.313  0.2741 -0.0856  0.1856
10717W        W25848  16.479  16.992   4.924  0.2540  0.3205 -0.1702
10718W        W25849   7.430  17.269  14.904 -0.0183  0.0386  0.2122
10719W        W25850   1.326  16.081   1.437 -0.2866 -0.0300 -0.3331
10720W        W25851  12.315   9.032   4.853  0.0806  0.3821 -0.0811
10721W        W25852  18.210   5.574  14.251 -0.0277  0.3974 -0.0605
10722W        W25853   0.124   0.850   3.203 -0.0721 -0.0283 -0.0002
10723W        W25854  10.147  17.958   9.867  0.1526 -0.1388 -0.2330
10724W        W25855   0.495  11.080   2.711 -0.2038 -0.3520 -0.1668
10725W        W25856   8.431   8.284  11.252  0.1933 -0.1904  0.3966
10726W        W25857   1.259   7.691  11.940 -0.1333  0.1132  0.1666
10727W        W25858   0.668   5.735   1.481  0.1699  0.0049  0.1015
10728W        W25859  12.860   6.303  13.768 -0.2051  0.3898 -0.0949
10729W        W25860  15.069   0.700   3.668 -0.0725  0.0042  0.1948
10730W        W25861  17.287   8.097  12.832  0.0832  0.0247  0.0547
10731W        W25862   9.886  16.314   2.400  0.1278  0.1273 -0.6148
10732W        W25863  13.029  16.883  10.879  0.0858  0.0865  0.3014
10733W        W25864  18.336  13.563  14.569  0.2377  0.0543  0.0143
10734W        W25865  16.882  13.658   2.446  0.1604  0.4239  0.1492
10735W        W25866   5.281  12.188   0.350  0.1908 -0.1161 -0.1983
10736W        W25867  11.716   2.874  13.593 -0.1110  0.0149  0.0435
10737W        W25868  16.688   5.444   2.303 -0.1101 -0.2644 -0.0520
10738W        W25869  16.425   5.610  13.877 -0.0519 -0.4767  0.1705
10739W        W25870   2.669  17.773   2.595  0.2375 -0.1281 -0.2044
10740W        W25871  11.722  13.355  15.725  0.0661 -0.2589 -0.2525
10741W        W25872  14.880  13.048  11.081 -0.1520 -0.0551 -0.1382
10742W        W25873  15.216  17.646  12.176 -0.1666 -0.1063  0.4521
10743W        W25874  14.435   6.663   0.373  0.0818 -0.2642 -0.4219
10744W        W25875   3.233   4.202   3.935  0.0715 -0.1979  0.0957
10745W        W25876  18.422   8.516  13.434  0.4367  0.1216 -0.0023
10746W        W25877  18.467  17.984  13.764 -0.0980  0.3060  0.0543
10747W        W25878   7.458   4.906  12.675 -0.0336 -0.2235 -0.2369
10748W        W25879   9.266   2.452   0.363 -0.0860  0.2776  0.3668
10749W        W25880  15.976   6.916  12.696  0.0585 -0.4076  0.1488
10750W        W25881  15.547   5.474  13.828 -0.0912 -0.1798  0.2737
10751W        W25882   1.365   2.831   1.811  0.0968  0.0380 -0.0259
10752W        W25883   8.654  15.268  13.788  0.1781 -0.0052  0.2141
10753W        W25884   6.754  10.633   5.892  0.0372 -0.0320  0.2560
10754W        W25885   8.810   3.669   5.729  0.1071  0.0889  0.1058
10755W        W25886  11.770   4.045  14.681  0.0439  0.1936  0.1449
10756W        W25887   3.119   5.589  10.976 -0.2632  0.1510 -0.1589
10757W        W25888   6.431   6.139   0.706  0.1764 -0.0400  0.2514
10758W        W25889  10.837  14.966   2.029  0.0547  0.0072  0.1904
10759W        W25890   6.516   0.345  11.080  0.1880 -0.1799  0.1433
10760W        W25891   7.429   0.039  11.205  0.0307  0.0477  0.0373
10761W        W25892  10.108   9.667  12.028  0.1446  0.1230  0.2798
10762W        W25893   4.664   5.113  12.828  0.2633 -0.1476 -0.3486
10763W        W25894  15.325  14.348   5.507  0.0338  0.0159 -0.2570
10764W        W25895   9.447   3.927   1.208 -0.1165  0.3347 -0.0780
10765W        W25896   1.791   4.669  15.772  0.1026 -0.0227  0.3172
10766W        W25897   6.874  18.007   4.023  0.2217 -0.2444 -0.2017
10767W        W25898   4.231   7.003   4.853  0.1067  0.1959 -0.1978
10768W        W25899   7.213  17.180  14.411  0.1195  0.3944  0.0120
10769W        W25900  14.178  18.064  15.329  0.1204  0.1037  0.2715
10770W        W25901  15.760   3.918  11.354 -0.2824  0.1408 -0.1657
10771W        W25902  16.831   2.901   5.310 -0.0925  0.1845 -0.2285
10772W        W25903  11.427  17.733   0.289  0.0336  0.2386  0.2120
10773W        W25904   6.884  17.550  14.899  0.1635 -0.2699  0.3233
10774W        W25905   8.797   0.523   4.210 -0.1365  0.0478 -0.0465
10775W        W25906   5.465   9.797  12.824  0.2654 -0.3355  0.3625
10776W        W25907  16.486  12.962   2.815  0.3006  0.1135 -0.0003
10777W        W25908  12.014   3.382  11.042  0.0493  0.2625  0.1013
10778W        W25909   2.897   2.576  12.879  0.1301 -0.0235  0.2495
10779W        W25910   4.498   3.171   1.858  0.1460 -0.1605 -0.0784
10780W        W25911   9.951  11.047   3.832 -0.5806 -0.0425  0.0442
10781W        W25912  11.375   7.016  12.304 -0.0390  0.2340 -0.2522
10782W        W25913   5.569   5.917  11.403  0.0569 -0.0213 -0.1672
10783W        W25914   2.999   5.374  14.782  0.2726 -0.2655  0.2943
10784W        W25915  12.901  17.213   2.680  0.1603 -0.0155 -0.2336
10785W        W25916   1.408  12.348   1.206 -0.0195 -0.0408  0.0777
10786W        W25917  16.967   6.818   2.352 -0.2463 -0.0919  0.4914
10787W        W25918  14.342   2.945   5.463 -0.0802 -0.3270  0.1795
10788W        W25919  12.700   0.691   5.685  0.1014  0.1437  0.1233
10789W        W25920  13.323   8.206   2.194 -0.0401 -0.1535 -0.1178
10790W        W25921  15.566   7.810   3.382  0.0040 -0.0155  0.1221
10791W        W25922   3.702  10.230   0.420 -0.2193  0.0440  0.1336
10792W        W25923   4.885   5.644   4.874 -0.1090 -0.3331  0.2840
10793W        W25924   4.827  18.233  14.852  0.3941  0.1206  0.1262
10794W        W25925  11.469   8.055  14.469  0.1977  0.3089  0.0638
10795W        W25926   2.966  17.529  13.242 -0.1593 -0.0452 -0.4577
10796W        W25927   5.813   8.594   5.337  0.0817 -0.1299 -0.0344
10797W        W25928   0.144   8.022   4.976 -0.1736 -0.1776  0.4483
10798W        W25929   8.326  18.562  12.136  0.2044 -0.4299 -0.2064
10799W        W25930   5.112  11.701   4.234 -0.1091 -0.0126 -0.2477
10800W        W25931   6.251  11.898   9.841  0.1757  0.1573  0.0623
10801W        W25932  10.766   4.144   0.862 -0.0331  0.2559  0.2787
10802W        W25933  13.778  18.249   1.787 -0.0129 -0.1615 -0.2971
10803W        W25934  12.867  15.316  11.181 -0.1461  0.0390  0.3386
10804W        W25935  17.382  17.200   2.183 -0.0130  0.0166 -0.3929
10805W        W25936   5.381   5.348   3.918 -0.1187 -0.1285  0.1822
10806W        W25937   8.439   9.177   2.553  0.5407  0.1163 -0.1021
10807W        W25938  12.737   8.325   0.977 -0.3920  0.0361 -0.0908
10808W        W25939   7.953   5.738   3.259  0.1574  0.0910  0.1896
10809W        W25940   1.959   8.685  15.140  0.2873 -0.0819  0.3520
10810W        W25941  10.322  14.464   0.642  0.2163 -0.3663 -0.4377
10811W        W25942   5.256  16.460   1.252  0.0496  0.2611 -0.1292
10812W        W25943   8.391   0.499   2.005 -0.1524  0.2257  0.4442
10813W        W25944   9.339   7.056  14.405 -0.0310  0.3796 -0.2533
10814W        W25945   8.276   2.991   2.483  0.0800  0.0089 -0.0655
10815W        W25946   0.417  15.057   4.447 -0.2931 -0.4217  0.0447
10816W        W25947   4.248   7.337   5.312  0.0880  0.1766  0.0720
10817W        W25948  16.405  12.250  11.288  0.1726  0.0107 -0.0276
10818W        W25949   5.626  12.518   3.766  0.0667 -0.0475  0.0315
10819W        W25950  17.664  16.357   0.064 -0.3210 -0.0568  0.1728
10820W        W25951   3.133   4.348  11.643 -0.0970 -0.1313 -0.3814
10821W        W25952   7.129   2.466  11.520 -0.0011  0.0167  0.2242
10822W        W25953  15.349  15.507   5.241 -0.0923  0.0876 -0.3652
10823W        W25954   7.144   3.569   4.155  0.1004  0.1772 -0.0186
10824W        W25955  15.512  12.902   3.573 -0.4437  0.0435 -0.1587
10825W        W25956   4.909   6.988   4.682 -0.0679 -0.0573  0.0003
10826W        W25957   8.203   2.919   4.697 -0.0689  0.3713  0.0870
10827W        W25958   1.951  16.761   0.424  0.0305  0.0914  0.0160
10828W        W25959   6.161   7.277  14.125  0.0485  0.0346  0.0922
10829W        W25960  11.153   3.420  11.807  0.1849  0.0127  0.3597
10830W        W25961  12.723   1.303   1.759 -0.0054  0.0989  0.0806
10831W        W25962  13.191   2.583   1.138 -0.1882  0.1192 -0.1120
10832W        W25963  15.159   5.602   0.685 -0.0268 -0.2303  0.0045
10833W        W25964   2.770  13.303   4.537 -0.0928  0.1241 -0.0787
10834W        W25965   7.461   5.621  11.295  0.0169 -0.0989 -0.0996
10835W        W25966  14.799   3.106   3.874  0.0446 -0.0213 -0.2285
10836W        W25967   3.819  11.687  10.228  0.4221  0.3087  0.3119
10837W        W25968   1.579   8.711  11.760  0.0013 -0.2173 -0.0648
10838W        W25969  16.690   4.386   5.156  0.1153  0.2274  0.4345
10839W        W25970   6.411   0.469  11.753  0.1454 -0.0489  0.3440
10840W        W25971   1.628  14.755  14.105 -0.2418  0.2954  0.1073
10841W        W25972   0.441   1.673   4.583 -0.0671 -0.3797 -0.1998
10842W        W25973  11.813  10.844   1.795 -0.1788  0.3777  0.3309
10843W        W25974   9.743   9.863   2.946 -0.1745  0.1357 -0.3481
10844W        W25975  17.258  15.697  12.153 -0.0619 -0.0442 -0.2188
10845W        W25976   5.782  12.365   0.730  0.0483  0.1860 -0.0523
10846W        W25977   7.275   5.907  15.369  0.0053  0.2222  0.1751
10847W        W25978   9.548  17.520   4.828  0.2726 -0.1639 -0.1215
10848W        W25979  10.873   0.348  13.548  0.2566  0.0497  0.0212
10849W        W25980   3.929   0.861   4.261 -0.0537 -0.0753  0.1626
10850W        W25981   9.990  14.094  11.296 -0.1512  0.2416  0.1085
10851W        W25982  11.813  12.993  12.742  0.0111 -0.1346  0.2154
10852W        W25983  14.693  17.619  15.059 -0.1123  0.2134 -0.1332
10853W        W25984  13.023   4.377  12.031  0.1903  0.1460  0.2399
10854W        W25985  11.317  11.826  15.759 -0.2082 -0.0071  0.0115
10855W        W25986  14.867  18.146  15.610  0.1692  0.0938 -0.0907
10856W        W25987  11.801  14.423   1.250  0.2055 -0.1446 -0.0961
10857W        W25988  10.783   0.400   0.352  0.3336 -0.1488 -0.2656
10858W        W25989  18.487   6.409  14.431  0.5349  0.1797 -0.1598
10859W        W25990   9.109  16.319  14.956 -0.1671  0.0154 -0.2881
10860W        W25991   5.456   5.004  15.623 -0.2061 -0.0766  0.1133
10861W        W25992  18.292   4.867   4.574 -0.0430 -0.1175  0.1438
10862W        W25993   6.936   7.306   4.608 -0.1558 -0.1258  0.1209
10863W        W25994   3.163  13.059  11.031 -0.2561  0.0592  0.0557
10864W        W25995   2.719  15.250   3.583  0.0350  0.0035 -0.0728
10865W        W25996   0.451  14.637  11.281 -0.0090  0.3727  0.2371
10866W        W25997   8.245   0.063  15.484  0.2642  0.0968 -0.0325
10867W        W25998   3.670   7.091   0.889  0.2781 -0.0191  0.1408
10868W        W25999  13.684   1.903  10.930  0.0199 -0.2297  0.2432
10869W        W26000  10.262   2.041  15.158 -0.1180 -0.3399  0.0154
10870W        W26001   3.621   4.415   2.064 -0.0592  0.1197 -0.0015
10871W        W26002  13.906   7.679   5.879  0.0644  0.2026  0.0666
10872W        W26003  16.453   3.755  11.624  0.0183  0.0537  0.0322
10873W        W26004  12.120  13.358   0.064 -0.1596  0.0628 -0.2077
10874W        W26005  10.547   1.842   2.378  0.2388 -0.0996 -0.1334
10875W        W26006   1.425   7.458   5.048 -0.1414 -0.1451 -0.3368
10876W        W26007  13.731   0.324  13.844  0.0896  0.1111  0.1479
10877W        W26008  18.071  14.890   2.545  0.0485  0.0210  0.0240
10878W        W26009  13.127  12.951   2.445  0.2116  0.1839 -0.0631
10879W        W26010  18.196  12.232   3.381  0.1162 -0.0701 -0.0854
10880W        W26011  17.081  10.686  14.162 -0.3229 -0.0694  0.1192
10881W        W26012  11.058   9.404  14.970 -0.0246  0.1056 -0.1660
10882W        W26013  14.746   8.028  12.977  0.0034 -0.2110 -0.2924
10883W        W26014   7.162  15.081   0.012 -0.0092 -0.4234  0.0419
10884W        W26015   4.789   9.707   0.294  0.0215  0.0763  0.1268
10885W        W26016   6.923   3.327   1.494 -0.0643 -0.0844  0.1072
10886W        W26017  10.736  10.929   4.323 -0.1075  0.1469  0.2195
10887W        W26018   0.639  15.779   5.977 -0.1938 -0.2915 -0.3860
10888W        W26019   0.114  17.409   1.612  0.0198 -0.0157 -0.0571
10889W        W26020   4.945   8.014   2.152 -0.1466 -0.0739 -0.1653
10890W        W26021  10.924  14.131   2.478 -0.0435  0.0483 -0.1173
10891W        W26022  10.995   0.643  14.676 -0.1935 -0.1039  0.0001
10892W        W26023  12.105  15.776  10.735 -0.1155 -0.5231  0.1503
10893W        W26024   6.667   4.230  12.337  0.1880  0.0215  0.0116
10894W        W26025   5.594  12.417  12.204 -0.1585  0.0117  0.0132
10895W        W26026  16.961   7.351   5.766 -0.1682  0.0183 -0.1224
10896W        W26027   2.328  14.346  12.778 -0.3466  0.1731  0.0814
10897W        W26028   1.780  12.320  13.722  0.3284  0.1869 -0.2595
10898W        W26029   8.957  11.704  11.714  0.0588 -0.0786  0.0069
10899W        W26030   9.790  13.507   1.349 -0.2821 -0.1070  0.1444
10900W        W26031   1.312  13.380   1.190 -0.0763  0.2907  0.0885
10901W        W26032   7.907   1.351  15.870 -0.1596  0.0196 -0.1449
10902W        W26033   0.636   3.926  15.856  0.1372  0.0583  0.0881
10903W        W26034   3.901   6.771   0.581  0.3311  0.0965  0.1994
10904W        W26035   9.964  18.079  14.182  0.0704 -0.2086  0.0165
10905W        W26036   5.250   8.346   1.539  0.0690  0.1110 -0.0631
10906W        W26037  14.489  14.238  11.253  0.1431  0.1384  0.0505
10907W        W26038  13.409  18.434  13.691 -0.0594  0.1445 -0.3695
10908W        W26039   6.819  12.100  14.012  0.2883 -0.0159 -0.3422
10909W        W26040   9.490   5.347   9.954 -0.0584  0.0849  0.0012
10910W        W26041  17.437   3.107  13.444  0.0077 -0.0888  0.1747
10911W        W26042   0.907   8.566  12.975 -0.0209 -0.0654 -0.0382
10912W        W26043  16.133   5.789  13.011  0.0940 -0.0018  0.1422
10913W        W26044  16.791  14.559  11.149  0.0302 -0.1181  0.0716
10914W        W26045   4.393  13.771  12.213  0.2881  0.0177  0.0897
10915W        W26046   6.101   5.902  10.819 -0.0561 -0.3496  0.0729
10916W        W26047  14.347   9.031   1.456  0.3530  0.2411 -0.1589
10917W        W26048   9.614   9.460  14.686 -0.3061 -0.0608  0.2170
10918W        W26049   6.538  16.378   4.895  0.0574 -0.1184 -0.0046
10919W        W26050  12.990   4.909   4.372  0.0483  0.2242  0.2285
10920W        W26051  12.297  14.561   0.511  0.0969 -0.1141 -0.1145
10921W        W26052   9.223  15.827  10.165  0.2044  0.3082 -0.1642
10922W        W26053  17.585  16.435   2.101 -0.2084  0.0514  0.2180
10923W        W26054   3.841   5.843  13.835  0.0731  0.0530 -0.0811
10924W        W26055   8.606   3.589  14.738  0.1389  0.2640  0.2072
10925W        W26056  10.014  18.190  12.652  0.2114 -0.2006 -0.1969
10926W        W26057   5.257  17.909   0.691  0.0241 -0.3174 -0.1108
10927W        W26058   7.779  10.004   3.421  0.1026 -0.2737 -0.1529
10928W        W26059  13.891   9.245   0.758  0.3509  0.1980  0.4039
10929W        W26060  17.572   2.489  15.689 -0.1415 -0.1926 -0.2163
10930W        W26061   0.377   9.764   3.504 -0.2600 -0.3336 -0.1877
10931W        W26062  15.661  12.710   2.945  0.1867 -0.3024  0.0216
10932W        W26063  17.061   7.729   3.384  0.0523  0.0292  0.3971
10933W        W26064  17.146  15.940  12.759  0.1430 -0.1289 -0.1160
10934W        W26065   6.466  13.753   0.508  0.0313 -0.1136  0.5464
10935W        W26066   2.737   7.471   5.363  0.3250  0.0292 -0.1420
10936W        W26067  16.562  18.280   5.514  0.0071  0.0624  0.0312
10937W        W26068   8.445   5.487  11.173 -0.1903 -0.2011  0.1942
10938W        W26069   3.264  14.123  10.884 -0.0797  0.1223 -0.0827
10939W        W26070   4.176   8.670  12.040 -0.0608 -0.1326 -0.3172
10940W        W26071   5.604  16.491   4.460 -0.0029  0.0219 -0.0748
10941W        W26072  10.454  11.145   3.903 -0.3486 -0.0933 -0.1454
10942W        W26073  10.303   9.705  13.513 -0.2317  0.1602 -0.2067
10943W        W26074   2.575   3.458  13.236 -0.0141 -0.1505  0.0540
10944W        W26075  15.480  12.237  14.610  0.0048  0.0888  0.2032
10945W        W26076  13.887  15.786   2.118 -0.1207 -0.0660 -0.0052
10946W        W26077  13.295   9.055  13.223 -0.0327 -0.1140 -0.1828
10947W        W26078   2.099   3.462  10.543  0.4477  0.2138 -0.1063
10948W        W26079   5.912  10.053  15.025  0.0990 -0.0819  0.0095
10949W        W26080  14.507   1.784  14.561  0.0906  0.0836  0.2638
10950W        W26081   6.799   6.944   4.269  0.1142 -0.3496 -0.1031
10951W        W26082   4.022  15.241  14.348 -0.1364 -0.1068 -0.4171
10952W        W26083  12.712   7.348  15.183  0.1959 -0.1811  0.3135
10953W        W26084   3.168  12.003   3.986 -0.1876 -0.0715 -0.2445
10954W        W26085   4.328  17.934   5.205 -0.1888 -0.0250 -0.0099
10955W        W26086   2.012   8.112   1.386 -0.1091 -0.1458  0.0484
10956W        W26087  11.527  17.093   4.358  0.1347 -0.0795  0.1108
10957W        W26088   1.521   4.963   5.074 -0.0182 -0.0178  0.2801
10958W        W26089  15.003  12.209  12.535  0.3718  0.1907 -0.1350
10959W        W26090   6.411  17.797   3.906  0.2047 -0.2389 -0.0828
10960W        W26091   2.302  14.080  14.368 -0.1200 -0.0838 -0.2235
10961W        W26092  15.580  15.033  14.393 -0.1773 -0.0748 -0.0704
10962W        W26093   8.552   1.263   1.461  0.1753  0.2163  0.1936
10963W        W26094   6.594   4.338   3.844 -0.2290  0.2154 -0.1466
10964W        W26095  15.158   8.507   5.741 -0.0202 -0.2297 -0.3151
10965W        W26096   8.405  17.856  11.317  0.1431  0.2401 -0.2550
10966W        W26097  11.429   3.767  11.604 -0.0122 -0.1468  0.0138
10967W        W26098   0.800   9.082   1.097 -0.0210 -0.2509  0.0355
10968W        W26099  16.834  17.604  13.786 -0.0490 -0.1178  0.0604
10969W        W26100  17.324   3.167   6.584 -0.3839 -0.0641 -0.2282
10970W        W26101   7.946   1.723  12.203 -0.0154  0.1003  0.0210
10971W        W26102  13.505  15.774   0.910  0.1950  0.1858 -0.0660
10972W        W26103   9.546  11.067  11.409  0.0524  0.1596  0.2189
10973W        W26104  15.446   6.962   1.803  0.0650  0.0677 -0.3049
10974W        W26105   0.820  17.375  12.476 -0.0635  0.1951 -0.2975
10975W        W26106   7.090  14.161  11.997 -0.1100 -0.0265 -0.2384
10976W        W26107   1.898  14.744   5.278  0.1205 -0.0844  0.0592
10977W        W26108  18.045   9.331  11.689 -0.1365  0.0480  0.3232
10978W        W26109  17.963  11.211   4.880 -0.2734 -0.3202 -0.1063
10979W        W26110   2.412   2.745   4.105 -0.0265  0.1306 -0.1778
10980W        W26111   6.042   1.917   0.361 -0.0609 -0.2447  0.3038
10981W        W26112  10.477  15.823  14.386 -0.0072 -0.1984 -0.1401
10982W        W26113   1.290  13.352   3.014  0.1907  0.1665 -0.2967
10983W        W26114   4.293  17.088   4.343 -0.1038 -0.1235 -0.0160
10984W        W26115  18.537   6.001   4.991  0.1437 -0.0261  0.2082
10985W        W26116  15.345   0.343   4.206  0.1172  0.0765 -0.0890
10986W        W26117   4.531   2.170   4.374  0.0023 -0.0272 -0.3436
10987W        W26118  11.804   3.989   4.968 -0.0498 -0.0638 -0.1153
10988W        W26119   6.621  12.620  11.454  0.1384  0.2514 -0.0841
10989W        W26120   9.353  10.216  15.502 -0.2416  0.0181  0.0779
10990W        W26121  10.785  14.273   1.930  0.0684  0.3042 -0.1112
10991W        W26122  10.499   1.387   0.005  0.0724 -0.0036 -0.1567
10992W        W26123   8.102   2.822   0.130 -0.2919 -0.0730 -0.2296
10993W        W26124  10.074  17.307   2.586  0.0513  0.0831  0.1794
10994W        W26125  10.444   1.681  12.441  0.0202 -0.0384  0.1167
10995W        W26126   9.839  15.592   1.645  0.1512  0.1029  0.0072
10996W        W26127   5.236   2.155  15.425  0.2380  0.0813 -0.0730
10997W        W26128   0.787   3.501  13.850 -0.0840 -0.0347 -0.0020
10998W        W26129   0.549   7.863   4.191  0.0452  0.0633 -0.2605
10999W        W26130   0.490  14.182  10.481 -0.1035  0.4335  0.2074
11000W        W26131  15.766  16.626   1.018 -0.0267 -0.1938 -0.2088
11001W        W26132   2.248   3.767  11.838 -0.1060  0.0928 -0.0112
11002W        W26133  16.923  14.265  13.495  0.1370  0.1272 -0.1395
11003W        W26134  12.477   0.573   1.072  0.0073  0.0509 -0.1520
11004W        W26135  16.674   3.757  14.155  0.0297 -0.3078  0.1888
11005W        W26136   2.001  18.188  12.366  0.2456  0.0201  0.0745
11006W        W26137   2.779  13.674   4.213 -0.2110 -0.2569  0.2480
11007W        W26138  17.860  11.408   5.295 -0.2225  0.3000  0.3312
11008W        W26139   4.698  10.305  11.096  0.0692  0.0178 -0.1480
11009W        W26140   0.150   4.744   3.397  0.0498 -0.1144  0.0542
11010W        W26141   4.368   7.772  15.450 -0.2143  0.0380 -0.0794
11011W        W26142  17.359  15.847  15.663 -0.1398 -0.0349 -0.1640
11012W        W26143   3.328  11.149   2.806  0.0946 -0.0002 -0.1879
11013W        W26144  13.145   1.219  12.834 -0.0623 -0.1469  0.2384
11014W        W26145  14.437   3.553  14.518 -0.2432  0.0058 -0.2990
11015W        W26146  16.811   9.234  11.959 -0.2209 -0.1412 -0.1235
11016W        W26147   1.791  10.973   3.352  0.0310  0.0456  0.0384
11017W        W26148  17.721   0.394  15.015 -0.3104  0.1988 -0.0809
11018W        W26149  13.605   2.990  12.740  0.2208  0.0786  0.0418
11019W        W26150   6.303  13.426  11.712  0.3712 -0.0255 -0.0909
11020W        W26151  15.106  13.860  13.784  0.0982 -0.3945 -0.1100
11021W        W26152  14.049  15.400   0.138 -0.1321 -0.1927  0.0402
11022W        W26153  17.702  12.402   5.152  0.0178 -0.0058 -0.0459
11023W        W26154  10.451  12.560   4.809 -0.0800  0.1404  0.1028
11024W        W26155   0.253  14.478  14.366  0.1172 -0.0084  0.0381
11025W        W26156  13.833  11.898   6.232 -0.1406  0.0947  0.0560
11026W        W26157  13.219  14.442   3.754  0.1476 -0.0501  0.1754
11027W        W26158   0.056  18.555  13.877  0.0441  0.1158 -0.3510
11028W        W26159  16.823   4.496   3.478 -0.2050  0.3071 -0.1976
11029W        W26160  12.453  12.069   2.206  0.1093  0.2664  0.0779
11030W        W26161   5.902   1.627   1.830  0.0989 -0.1873 -0.3900
11031W        W26162   0.501  10.513  10.684  0.0704  0.0391 -0.4059
11032W        W26163   5.634   8.026   6.024 -0.0508 -0.1078 -0.1567
11033W        W26164  15.552   4.099   2.803 -0.1712  0.0162  0.1484
11034W        W26165   3.990   9.521   0.330 -0.1666 -0.1620  0.2318
11035W        W26166  11.359  14.560  10.684 -0.1067 -0.1407  0.1008
11036W        W26167   4.785   5.281   4.484 -0.2683 -0.2067 -0.3250
11037W        W26168  10.845  11.746  11.812  0.0857 -0.1760  0.0797
11038W        W26169   4.839  15.810   3.124 -0.2861 -0.0846 -0.3094
11039W        W26170   8.662  16.579  15.102 -0.0416  0.0944 -0.2241
11040W        W26171   3.820  10.955   3.278 -0.1725  0.2931  0.0084
11041W        W26172   4.916   4.022   4.714 -0.3933  0.0036  0.4182
11042W        W26173  12.052   0.214   1.320  0.1123 -0.1885 -0.1090
11043W        W26174   8.382   2.018   5.670 -0.0610  0.2368  0.0545
11044W        W26175  13.181   9.309   3.756 -0.0147  0.2175  0.0572
11045W        W26176   8.080  15.802  11.137  0.0074  0.3027  0.1624
11046W        W26177   9.379  17.786   5.301  0.0808  0.0889  0.1939
11047W        W26178  12.268   4.715  12.091 -0.1422 -0.1682 -0.3208
11048W        W26179  17.040   4.943   2.272 -0.2037 -0.0334  0.0889
11049W        W26180   4.018  15.185  12.225  0.2456  0.1458  0.1342
11050W        W26181  13.360  14.113   3.140 -0.2046  0.0005  0.0429
11051W        W26182  17.265   7.729   2.926  0.3007  0.1251  0.0411
11052W        W26183  11.234   5.666  14.838 -0.1474  0.0240  0.0113
11053W        W26184  14.859   9.928   2.243  0.2913 -0.1115 -0.2966
11054W        W26185  12.017   1.224   0.553 -0.0057 -0.0678 -0.0578
11055W        W26186   7.596  11.801   1.077  0.0290  0.0111  0.1684
11056W        W26187   0.515   9.034   1.501  0.0900  0.0752  0.0759
11057W        W26188  14.930  17.718  14.494 -0.2009 -0.1210 -0.0256
11058W        W26189  17.229   5.113   2.953 -0.2325  0.0932 -0.0565
11059W        W26190  15.139  18.550  15.469  0.0625  0.0463  0.1676
11060W        W26191   4.661  17.592   2.427  0.1305  0.1292 -0.0271
11061W        W26192  12.518   1.294  12.823 -0.0057  0.2418 -0.1285
11062W        W26193  16.289   8.754  14.897  0.4206 -0.0023  0.0796
11063W        W26194  10.206  15.541   3.165  0.1020  0.1999  0.3422
11064W        W26195   5.338  16.952   0.505 -0.0874 -0.0312  0.2452
11065W        W26196  15.227  10.941  14.719 -0.0365 -0.0086  0.1647
11066W        W26197   0.086   4.642  15.245  0.0689  0.1883  0.2059
11067W        W26198  13.563  16.815  13.365 -0.0206  0.1599 -0.0963
11068W        W26199   3.491  15.150   5.508 -0.2128  0.2227 -0.2859
11069W        W26200  10.606   2.166   0.303 -0.1968  0.1905  0.1791
11070W        W26201  14.033   2.127   2.361 -0.2980  0.0506 -0.0100
11071W        W26202  10.121   6.784  12.582 -0.0886 -0.1991  0.0607
11072W        W26203  16.911   4.193  15.536  0.1891  0.0244 -0.1159
11073W        W26204  18.507  14.679  12.983  0.0201  0.2166 -0.3636
11074W        W26205  14.385  16.305   0.230 -0.1445  0.2527 -0.0667
11075W        W26206   2.580  15.761   4.761  0.3620 -0.0108  0.2344
11076W        W26207   3.554   5.425  13.830 -0.1751 -0.0186  0.0351
11077W        W26208   7.144   8.321   3.839  0.0768  0.0181  0.0328
11078W        W26209   9.986  18.077  15.546 -0.2750 -0.0463  0.3146
11079W        W26210  18.286  12.666  11.391 -0.0431 -0.1009  0.1605
11080W        W26211  17.150   4.136   5.071 -0.0855  0.0701  0.1951
11081W        W26212  17.248   2.138  11.963  0.0454  0.0701  0.1196
11082W        W26213   5.303   6.871  14.798 -0.2978 -0.1784 -0.1805
11083W        W26214   9.947  17.745  12.328  0.0175  0.0954  0.0614
11084W        W26215   5.129  16.268   3.679  0.0117 -0.1069 -0.2366
11085W        W26216  12.087  12.084   2.606 -0.0478  0.0242  0.0241
11086W        W26217  18.106   5.119   0.268  0.0366  0.0128 -0.3782
11087W        W26218   5.557  13.569  11.037 -0.0191  0.1230  0.1398
11088W        W26219   9.925   0.214   3.677 -0.1513 -0.1092 -0.2288
11089W        W26220  17.028  18.408   1.965 -0.1949  0.3458 -0.1233
11090W        W26221   3.221  14.747  13.735  0.1341 -0.3031  0.1071
11091W        W26222  18.566   7.142  11.704  0.2420  0.0225 -0.1599
11092W        W26223   9.278  11.608   2.427  0.0063  0.0814 -0.1504
11093W        W26224   5.102   9.352   1.782 -0.1380 -0.3199  0.2251
11094W        W26225   1.601   2.458   0.948 -0.0400  0.5639  0.1577
11095W        W26226   3.267   0.537   3.350 -0.1161 -0.2175 -0.2084
11096W        W26227   2.903   6.094   0.166 -0.1764  0.1160  0.3324
11097W        W26228   0.848  16.525   3.222 -0.0738  0.1691 -0.2988
11098W        W26229   0.699   5.059  12.676  0.1112 -0.1725  0.1519
11099W        W26230  13.213   5.814   4.559  0.2025  0.4224  0.1193
11100W        W26231   5.083  12.036  15.581  0.1059 -0.0900  0.0402
11101W        W26232   4.290   3.838   3.680 -0.0490  0.1345 -0.2352
11102W        W26233  15.108  10.911  12.367  0.0677 -0.2184 -0.0909
11103W        W26234  11.632   8.178  10.258 -0.2465  0.1974 -0.1420
11104W        W26235   6.689   9.116   6.007 -0.0682  0.2605  0.0737
11105W        W26236   0.396   8.688   1.832 -0.3863  0.1978 -0.0303
11106W        W26237   5.214  18.517  12.587 -0.2484  0.2042  0.0469
11107W        W26238   0.150   7.118  15.670 -0.1894 -0.1885  0.0476
11108W        W26239   0.477   5.710  12.226  0.1614  0.2082  0.0708
11109W        W26240   7.413   3.529  12.547  0.2643  0.0982 -0.2982
11110W        W26241  12.582   6.285  14.307  0.3156  0.0394  0.2587
11111W        W26242   3.979   5.045  15.692 -0.3077 -0.1519 -0.0828
11112W        W26243   5.990   6.453   0.798  0.1407  0.1333  0.0608
11113W        W26244   2.658  15.691   1.093 -0.0618  0.2605  0.1381
11114W        W26245   9.454  13.801   4.280 -0.0542  0.1574  0.2490
11115W        W26246  11.164  14.176   1.608 -0.0399 -0.0380 -0.0925
11116W        W26247  12.539   8.650   5.060 -0.0675 -0.1941  0.1721
11117W        W26248  15.645  12.490  12.666  0.0713 -0.1485 -0.0245
11118W        W26249  12.755   4.461  14.052  0.2859  0.4816  0.2732
11119W        W26250  15.078   7.910  15.027 -0.0729  0.0062 -0.1133
11120W        W26251  13.203  17.923  12.522 -0.0940 -0.2841  0.2899
11121W        W26252   6.212   9.156  12.204  0.1717 -0.3947 -0.2330
11122W        W26253   2.951  18.305   3.980  0.0121  0.0466  0.2992
11123W        W26254  17.196   8.902  13.510 -0.1829  0.2747 -0.0320
11124W        W26255   3.432   9.809  12.754 -0.0343 -0.3204 -0.0171
11125W        W26256   2.565   9.456  13.126 -0.1664  0.1443 -0.1084
11126W        W26257  12.272   3.844  10.951  0.2068  0.1885  0.2776
11127W        W26258  13.029  10.506   3.035  0.0831  0.1064  0.0054
11128W        W26259  17.440   5.145  14.828  0.0909 -0.2638  0.0018
11129W        W26260  11.258  17.215  11.159  0.0271 -0.0559  0.0111
11130W        W26261   1.322   2.492   0.160  0.0547  0.0199 -0.0266
11131W        W26262   7.644   3.320  11.431  0.0715 -0.2076  0.0982
11132W        W26263   3.005  14.749   2.336  0.2904  0.3428  0.1024
11133W        W26264  12.938   0.915  11.762 -0.4657 -0.0794  0.0215
11134W        W26265   9.336   8.218  15.161  0.1673  0.0714  0.1101
11135W        W26266  16.411   0.628  10.349 -0.3750  0.0201  0.2049
11136W        W26267   1.298  13.040   3.410  0.2097 -0.0425 -0.0291
11137W        W26268  12.319   5.819  12.461  0.0394 -0.0950 -0.2056
11138W        W26269   0.668   3.469  11.805  0.1509 -0.0619 -0.0902
11139W        W26270   7.521  14.120   1.612  0.0654 -0.2948 -0.2372
11140W        W26271  16.960  13.193  12.333  0.3078  0.1697 -0.2769
11141W        W26272  15.027   2.298  11.515 -0.0168 -0.1963  0.3440
11142W        W26273  16.586   6.788   0.930 -0.3785 -0.0225 -0.1601
11143W        W26274   3.626  17.487   4.422  0.1486  0.1597  0.0408
11144W        W26275   3.709  16.474  12.189  0.0650 -0.0915  0.1263
11145W        W26276   0.102   1.227  12.155 -0.0974  0.0560 -0.0567
11146W        W26277   9.500   4.916  14.403 -0.2087 -0.0212  0.0116
11147W        W26278  16.830  14.184   2.049 -0.3647 -0.4550 -0.3629
11148W        W26279   2.278   1.229  13.103 -0.0514 -0.3344  0.2444
11149W        W26280  15.448  10.448  12.170 -0.2849  0.0995  0.1310
11150W        W26281   0.371   9.369   4.884  0.3324  0.2797 -0.1893
11151W        W26282  10.845   6.168  14.783  0.2950 -0.0950  0.2037
11152W        W26283   7.425   4.077  13.776  0.3110  0.3908  0.5460
11153W        W26284  10.973   2.171   4.529 -0.2064 -0.0910  0.0575
11154W        W26285   4.722   1.830   5.757  0.0258 -0.1186  0.1323
11155W        W26286   0.520  14.111   2.358 -0.2072  0.7141 -0.1022
11156W        W26287   4.834  11.132  14.096 -0.1886 -0.1863  0.0824
11157W        W26288   9.443   5.560   0.725 -0.0614  0.1065 -0.0517
11158W        W26289  16.564  16.522   2.209 -0.1275  0.0404  0.1278
11159W        W26290  10.267   2.371   1.062  0.1264  0.1909  0.0424
11160W        W26291  12.065  16.012   3.075 -0.0301  0.2605 -0.1613
11161W        W26292   3.529   6.247  14.789  0.1506  0.0434 -0.1403
11162W        W26293  11.949  16.464   3.534  0.0689 -0.3608  0.1868
11163W        W26294  16.075  17.697   5.501  0.0466 -0.0029 -0.3104
11164W        W26295   7.478   0.159  10.693 -0.3345 -0.1789 -0.0011
11165W        W26296   7.085   6.535   0.183  0.0427 -0.0464 -0.3157
11166W        W26297  14.806   6.326  14.071 -0.0106 -0.0290  0.0925
11167W        W26298   0.470   4.641  12.763  0.4089 -0.1417 -0.0048
11168W        W26299   8.875  16.438  10.976 -0.0915 -0.1996 -0.2724
11169W        W26300   4.394  17.908  10.793 -0.4868 -0.1948 -0.3332
11170W        W26301  10.804  16.751   2.154 -0.1540 -0.1179  0.3297
11171W        W26302  11.155   6.633   3.185  0.0594 -0.1315 -0.2370
11172W        W26303   8.795   2.171   0.197  0.0138 -0.2123 -0.0953
11173W        W26304   4.842   6.956  14.264  0.1669 -0.1340  0.2079
11174W        W26305  10.656  12.887   9.749 -0.0346 -0.0808  0.4973
11175W        W26306  14.653   7.209   0.451  0.2528  0.2626 -0.0044
11176W        W26307  17.169  14.982  13.976 -0.1076  0.1858  0.1059
11177W        W26308  10.858  16.262  13.049  0.0590 -0.1439  0.2704
11178W        W26309   8.905  14.461  14.231 -0.0029 -0.3464  0.0661
11179W        W26310  16.214   1.964   1.168  0.3839  0.0220 -0.1099
11180W        W26311  10.974   2.019   2.128 -0.2413 -0.4509 -0.1564
11181W        W26312   8.914   3.990   3.814 -0.4945  0.0521 -0.1771
11182W        W26313   2.595  14.745  10.461 -0.0763  0.2323  0.1050
11183W        W26314   1.409   8.027  13.667  0.3524 -0.0302 -0.0148
11184W        W26315   9.855  16.736   1.860  0.2477 -0.1536  0.0383
11185W        W26316   7.867  15.581   2.645  0.0877  0.2156 -0.3082
11186W        W26317  17.741   4.330   3.079 -0.2874 -0.1792  0.0329
11187W        W26318   4.101   6.135   2.082 -0.0275  0.2316 -0.4407
11188W        W26319  16.356   6.372   0.723  0.2599 -0.0003 -0.1676
11189W        W26320  15.494   8.421   0.072  0.3777  0.0824 -0.2353
11190W        W26321  14.235  15.026  11.042  0.0792  0.1465  0.1726
11191W        W26322   7.346  13.472   0.352  0.0005  0.0507  0.0364
11192W        W26323   3.566  12.178   2.534  0.0907  0.0047  0.0902
11193W        W26324   6.715  17.534   2.540 -0.1892  0.1953  0.4092
11194W        W26325   7.314   2.458   2.290 -0.0765 -0.1608 -0.2841
11195W        W26326   6.228   7.093   1.554 -0.2336  0.2702 -0.2343
11196W        W26327   9.992   3.946   2.753  0.2945 -0.1005 -0.0478
11197W        W26328  12.823   9.618  15.768  0.0065 -0.0486 -0.2093
11198W        W26329   4.621  15.704  14.900  0.0788 -0.2195  0.0127
11199W        W26330  13.650  11.888  13.269  0.3210  0.1561 -0.0189
11200W        W26331  18.517   1.506   4.715 -0.1930 -0.1364  0.2270
11201W        W26332   4.496  12.423  15.191  0.0142  0.1346 -0.0715
11202W        W26333  17.026  18.266  11.670 -0.1066 -0.0892 -0.2430
11203W        W26334  17.778   5.768  14.081  0.5136  0.2345 -0.0027
11204W        W26335  15.163   4.026  11.407 -0.2062 -0.3163 -0.1952
11205W        W26336  13.859  10.204  14.229 -0.3350 -0.1247  0.3612
11206W        W26337  14.336  11.587   3.748 -0.0986 -0.1432  0.0533
11207W        W26338   6.927  11.567  14.029  0.0936 -0.0849  0.2544
11208W        W26339   8.207  13.276  12.917 -0.2533  0.0884 -0.0643
11209W        W26340   9.850   4.613  14.497  0.3053  0.2144  0.1530
11210W        W26341  14.948   4.111   1.830 -0.0946 -0.1555 -0.0900
11211W        W26342  11.068   9.428  14.434 -0.0665 -0.1596 -0.5608
11212W        W26343   9.473   9.003  11.816 -0.0937 -0.0702 -0.0940
11213W        W26344   2.159  12.427   1.247  0.0299 -0.4603  0.0151
11214W        W26345   9.100   8.312  13.931 -0.1511  0.4024  0.0770
11215W        W26346   7.704   6.295  15.329  0.1537 -0.0847  0.0130
11216W        W26347   2.537   5.892   1.996  0.1713 -0.1909  0.0678
11217W        W26348   3.548  10.374  10.682  0.2134 -0.1931 -0.2787
11218W        W26349   4.193  14.263   2.636  0.2639 -0.0072 -0.0394
11219W        W26350   2.288  13.021  15.921 -0.1157  0.2340  0.1663
11220W        W26351  16.640   1.979   1.756 -0.3687 -0.1848 -0.0865
11221W        W26352   4.294   3.561  14.982 -0.2233 -0.0381 -0.1630
11222W        W26353  13.617   0.218  14.435 -0.5310 -0.0053  0.2007
11223W        W26354  14.185  15.086   1.536  0.0670  0.1053  0.0813
11224W        W26355  16.794   3.410  13.839  0.3074  0.1452 -0.0014
11225W        W26356   9.250  12.830   0.765 -0.1694 -0.1197 -0.2343
11226W        W26357  11.188   7.724   1.617 -0.0480 -0.0713 -0.0241
11227W        W26358   5.552  11.616  10.421 -0.0075 -0.0727 -0.0978
11228W        W26359   2.368   6.166   5.893  0.1659 -0.0261 -0.1687
11229W        W26360   5.610  12.977  14.860  0.1119  0.1177 -0.2631
11230W        W26361   2.090  10.804   1.059  0.1497 -0.3532 -0.3067
11231W        W26362   2.263   9.255  14.743  0.0590 -0.3167  0.0477
11232W        W26363  11.423  15.675   2.159 -0.2617  0.2106  0.1487
11233W        W26364   1.009   6.102  14.842  0.2959 -0.0620  0.2126
11234W        W26365   9.748   8.897  12.248 -0.0744 -0.1735  0.2029
11235W        W26366   4.361   3.829   3.092 -0.1088  0.1069  0.0341
11236W        W26367   0.405   7.467   2.697 -0.2046  0.1679  0.0076
11237W        W26368   1.952   2.590   4.909 -0.0394 -0.0539  0.0613
11238W        W26369   9.512  15.912  13.911  0.4031  0.3947 -0.0475
11239W        W26370  17.987  18.158  10.608 -0.4189 -0.0022 -0.0473
11240W        W26371   4.264  16.892   3.858 -0.0066  0.0357  0.3380
11241W        W26372  14.311  18.495   2.943 -0.3186  0.5030  0.0574
11242W        W26373  17.748  12.084  13.866 -0.0460 -0.0280 -0.0844
11243W        W26374   1.360   3.470  10.670  0.0317  0.2056 -0.1262
11244W        W26375   4.304   5.080  12.489 -0.0564  0.0272  0.3009
11245W        W26376  12.657   8.338   3.917  0.1523 -0.1279 -0.1443
11246W        W26377   1.515  11.045   4.248 -0.1270 -0.1362  0.4889
11247W        W26378  16.610  13.574  11.637 -0.1924  0.2579 -0.1676
11248W        W26379  18.270  15.108   3.020 -0.1764 -0.0410  0.2165
11249W        W26380   4.912  11.857  13.488 -0.2391 -0.1909 -0.0333
11250W        W26381   3.748  15.210   5.074 -0.1294 -0.1725 -0.2500
11251W        W26382   9.280   9.587  12.458 -0.2325  0.3597 -0.1948
11252W        W26383   5.024   3.988   0.248 -0.0346 -0.1242 -0.0494
11253W        W26384  11.974  13.337   2.123  0.4089 -0.1060  0.1068
11254W        W26385  18.365   9.106   5.379  0.0924  0.0085 -0.3538
11255W        W26386   7.861  16.117   4.331 -0.0893 -0.2705  0.1668
11256W        W26387   7.554   2.939  14.751  0.0484 -0.2548  0.2345
11257W        W26388  17.718  17.871  13.096  0.1101 -0.0033  0.2535
11258W        W26389   5.743  17.282  12.175  0.0087 -0.1225 -0.1057
11259W        W26390  11.952  15.016  12.094 -0.1928  0.2717 -0.2953
11260W        W26391   2.949  17.819   3.553 -0.1988  0.0448  0.0243
11261W        W26392   1.684   8.856   3.839 -0.2438 -0.1115  0.1622
11262W        W26393   8.368   9.676  12.609 -0.2421  0.1864 -0.0194
11263W        W26394   9.204   1.991  14.987 -0.0147 -0.0838 -0.1393
11264W        W26395  15.956   0.230   5.451  0.0625 -0.0667  0.5878
11265W        W26396  13.504   3.316   1.235  0.1842  0.1293 -0.2315
11266W        W26397  13.253  18.238   2.947  0.0999 -0.2155 -0.2081
11267W        W26398  12.337   5.600   3.863 -0.1797  0.0691 -0.3509
11268W        W26399   2.938   3.550   4.327 -0.0339 -0.1938 -0.0083
11269W        W26400   0.331  12.951   0.575  0.1558  0.0210  0.1886
11270W        W26401   8.089  11.074  15.356  0.2375  0.2226  0.1537
11271W        W26402  17.295  13.376   1.879  0.1386 -0.2508  0.0671
11272W        W26403  16.967   8.038  12.413  0.1528 -0.3277 -0.3497
11273W        W26404  17.073   3.956  13.388  0.0072  0.0769  0.0320
11274W        W26405  11.215  18.495  11.495 -0.1355  0.0118  0.0864
11275W        W26406  16.066  10.184  15.486  0.1401 -0.0749  0.4253
11276W        W26407   0.177   2.385  11.144 -0.0990  0.0220 -0.0886
11277W        W26408  16.024  17.400   2.048  0.2915  0.3074  0.2136
11278W        W26409  11.495  18.021   3.230 -0.0162  0.2099  0.1614
11279W        W26410  15.241  15.248  14.028 -0.0999 -0.0052 -0.2072
11280W        W26411   0.390   7.543  10.847  0.0891  0.1945 -0.3187
11281W        W26412   3.696   8.136  15.040  0.0033  0.0789 -0.0535
11282W        W26413   3.461  12.684  15.885 -0.0263 -0.0853  0.4913
11283W        W26414  16.410  12.942   4.067  0.3358 -0.5486 -0.0144
11284W        W26415   4.520  10.048   4.463 -0.1664  0.1171  0.2270
11285W        W26416  12.251  14.466   3.770 -0.0370 -0.0854  0.0053
11286W        W26417  17.364  16.552   4.491 -0.1080  0.3674 -0.0774
11287W        W26418  15.636   2.310  15.011  0.1102  0.4952  0.3799
11288W        W26419   1.997   0.767   1.772  0.0883 -0.1184 -0.2898
11289W        W26420  12.957   1.404  14.732 -0.0565  0.0613 -0.0107
11290W        W26421   8.511   7.139   1.948 -0.3949  0.3701  0.1531
11291W        W26422   3.341   7.280  13.418  0.0496 -0.0957  0.5665
11292W        W26423   6.479   5.061  12.341  0.3762  0.3774  0.1702
11293W        W26424  12.520   4.817   2.715  0.2505  0.1517  0.0384
11294W        W26425   1.236  12.195   4.403  0.2566  0.3436  0.0307
11295W        W26426   2.000   0.363   9.687  0.1048 -0.4177 -0.0928
11296W        W26427  18.324   1.038   2.839  0.1771 -0.3933 -0.0002
11297W        W26428   4.929   4.479   1.677  0.0905  0.3092  0.0679
11298W        W26429   3.078   5.515   0.842  0.1721 -0.3433 -0.0874
11299W        W26430  12.792   7.647   3.150  0.2680  0.2599 -0.6460
11300W        W26431  18.159   2.909   0.316 -0.1101  0.0009  0.0574
11301W        W26432  18.179  10.660  11.357  0.0942 -0.5119 -0.1320
11302W        W26433  12.774   2.578  12.808  0.0354  0.1532 -0.1164
11303W        W26434  16.027   4.332   2.934 -0.2559  0.1416 -0.1007
11304W        W26435  10.299  12.875  15.287  0.2927 -0.1735 -0.1713
11305W        W26436   9.644  14.832   0.029  0.0551 -0.0615 -0.2159
11306W        W26437  17.800   0.042   2.472  0.5483  0.0470 -0.0101
11307W        W26438  11.176  15.931  10.702 -0.1803 -0.0993  0.1270
11308W        W26439  13.983  10.939  13.064  0.1140 -0.0230  0.1769
11309W        W26440   1.412  13.180  13.533  0.1430 -0.2797  0.0686
11310W        W26441   4.108   4.243  12.661 -0.0089  0.0059  0.1422
11311W        W26442  13.969  18.408   4.452 -0.1422  0.2916 -0.0601
11312W        W26443  17.525   6.929  13.014 -0.0471 -0.1753  0.1733
11313W        W26444   6.435   4.509  12.792  0.0245  0.2897  0.2891
11314W        W26445  13.769  15.719  15.209  0.0172  0.0622 -0.0337
11315W        W26446   1.238  11.744   3.148 -0.2219  0.3423 -0.1285
11316W        W26447  14.593   2.473   4.444 -0.2792 -0.0602 -0.3577
11317W        W26448   2.583   2.479   1.477 -0.1363  0.2244 -0.0563
11318W        W26449  17.714   3.364   0.947 -0.0516  0.0145  0.2871
11319W        W26450  12.367   6.137   2.986 -0.1025 -0.1971 -0.1683
11320W        W26451   8.979  18.487   6.078 -0.3215 -0.5120 -0.1610
11321W        W26452   3.149  10.140   5.350  0.3791  0.4666 -0.0202
11322W        W26453  12.756   7.135  11.539 -0.1815  0.2676  0.1292
11323W        W26454   1.574  12.540   5.950 -0.0528 -0.0140 -0.0264
11324W        W26455  15.094  11.951   0.855 -0.1369  0.0647 -0.0659
11325W        W26456   2.296   1.590   0.132 -0.1710  0.3792 -0.0221
11326W        W26457  13.081   2.463   3.619  0.2918  0.0512  0.0425
11327W        W26458  16.295   0.377  14.803  0.0142 -0.1306 -0.1271
11328W        W26459  12.408   6.578  14.761  0.0544  0.2659 -0.0299
11329W        W26460  18.005   9.390  13.769 -0.3015  0.1401 -0.0330
11330W        W26461   8.355  15.330  12.032  0.1029 -0.2066  0.5204
11331W        W26462   4.715   8.557  13.729  0.0094  0.3540 -0.1785
11332W        W26463   9.120  11.344   0.307 -0.0845 -0.1077 -0.0756
11333W        W26464  16.856  17.999  10.494 -0.2269  0.1049  0.2273
11334W        W26465   9.186   0.715   3.405  0.2138  0.3411  0.2975
11335W        W26466   1.865  15.134  10.939  0.0266 -0.2343 -0.0506
11336W        W26467   2.558   3.444   3.025 -0.2983  0.2453  0.2059
11337W        W26468   9.931   2.984  12.023  0.2753 -0.0594  0.1269
11338W        W26469  17.321   2.781   0.840 -0.1902 -0.0258 -0.1178
11339W        W26470  17.282  12.902   5.479 -0.3879 -0.0221  0.2959
11340W        W26471  12.190  14.475  13.204 -0.0070 -0.1691  0.0433
11341W        W26472   8.791  16.047  10.050 -0.0765 -0.2621  0.0539
11342W        W26473   9.480   8.961  13.836  0.1359 -0.1430  0.1140
11343W        W26474  16.607   6.593   3.064  0.0750 -0.1133 -0.2067
11344W        W26475   4.021  13.751  13.247 -0.3088 -0.0265 -0.1051
11345W        W26476  10.079  11.798  12.921 -0.1389 -0.2360  0.2110
11346W        W26477  14.760  10.761  15.011 -0.3750 -0.1272 -0.2212
11347W        W26478   3.661   6.786   6.622  0.0161 -0.0103  0.3505
11348W        W26479   0.191  12.818   2.332 -0.1232  0.0393  0.2429
11349W        W26480   6.700   8.864   0.893  0.3443  0.2149  0.4349
11350W        W26481   9.954   8.993   5.243 -0.3772 -0.2733  0.1364
11351W        W26482  15.414   8.371  14.392 -0.2421  0.0722  0.1833
11352W        W26483   1.880   5.139   4.717 -0.1003  0.0445 -0.2455
11353W        W26484   5.707   0.451   1.419  0.1698  0.1834 -0.2877
11354W        W26485   7.100   8.385   6.133 -0.1338  0.2248  0.0234
11355W        W26486  11.112  17.896  10.476 -0.0180  0.1051  0.1270
11356W        W26487   3.965   4.436   9.904  0.4422 -0.1963  0.0018
11357W        W26488  10.755   6.623  14.528  0.2477  0.0140  0.5349
11358W        W26489   4.251  10.133  15.539 -0.0353  0.0725 -0.3652
11359W        W26490   2.689  16.526  10.801  0.1335 -0.0820  0.1683
11360W        W26491   4.500   3.813   4.438  0.3477  0.1932  0.1492
11361W        W26492  12.839   2.991   0.025 -0.2920  0.2457 -0.1576
11362W        W26493  13.410   0.531  10.491 -0.2525  0.3122 -0.0685
11363W        W26494  15.056  14.764   1.304  0.0027 -0.3132 -0.1155
11364W        W26495  15.382   0.122  15.036  0.0022  0.1086 -0.0274
11365W        W26496  12.339   5.919  15.304 -0.2136  0.0615 -0.3272
11366W        W26497  18.317  14.203   6.302 -0.3192 -0.2883  0.0982
11367W        W26498   2.790   8.670   2.358  0.0067 -0.1954 -0.1311
11368W        W26499  10.892  17.936   2.979 -0.0293  0.0247 -0.1725
11369W        W26500   6.769   6.468  11.249  0.1302 -0.3648  0.0543
11370W        W26501  14.292  17.700   3.366 -0.6531  0.1550  0.1422
11371W        W26502   2.939  13.649  10.720 -0.1135  0.1176 -0.0227
11372W        W26503   5.807   7.774  15.767 -0.0277  0.0146  0.2157
11373W        W26504  17.942   5.435  15.205  0.0721  0.1649  0.1372
11374W        W26505   4.262   1.025  14.790 -0.0652  0.0449  0.2530
11375W        W26506   1.766  12.343   1.718  0.1966 -0.1597 -0.2156
11376W        W26507  15.877  15.291   1.456  0.1331  0.3184  0.1267
11377W        W26508   5.749   2.200  15.308  0.5138 -0.0361  0.0062
11378W        W26509   7.825   8.694   2.183 -0.0404  0.3457 -0.1236
11379W        W26510  18.296   1.756  13.634  0.1855 -0.1159 -0.0000
11380W        W26511   2.259  14.406   5.175  0.0255  0.4365  0.3084
11381W        W26512  16.807  13.469  14.625  0.0933 -0.1240  0.1138
11382W        W26513  11.436   3.467  13.602 -0.0174 -0.3181  0.2101
11383W        W26514  15.450  11.981   5.133  0.0414  0.2527 -0.0349
11384W        W26515  14.291   9.733  12.796  0.3553 -0.1450 -0.0266
11385W        W26516   0.216  11.184  12.800 -0.2635  0.4059 -0.1541
11386W        W26517   6.355   8.684  11.702  0.3300 -0.0352  0.1590
11387W        W26518  15.290   6.052   4.819  0.0908 -0.0322  0.1172
11388W        W26519  15.147   5.024  10.767  0.0044 -0.0704 -0.1677
11389W        W26520  13.851  14.538  13.730 -0.2057  0.2474  0.1416
11390W        W26521  16.562  10.841   2.415 -0.1814  0.1363  0.3405
11391W        W26522  11.952  12.236  12.362 -0.1597 -0.1884 -0.2285
11392W        W26523   5.476  10.996   0.195 -0.0204  0.0540 -0.0567
11393W        W26524  12.359  15.668   4.411  0.2388  0.0492  0.1810
11394W        W26525  13.333  13.424  11.859  0.4020 -0.0718  0.1105
11395W        W26526   7.284   1.640   3.687 -0.1334 -0.0652 -0.0927
11396W        W26527  12.056   9.627   1.281 -0.2280 -0.2069 -0.0435
11397W        W26528  13.934  13.927  12.021  0.2410  0.0513 -0.0375
11398W        W26529   6.651  11.412  11.839 -0.0837 -0.0279  0.1474
11399W        W26530  15.530   3.617  13.646 -0.1557  0.2253 -0.3734
11400W        W26531   2.811  11.995   2.746 -0.2084 -0.2815 -0.0418
11401W        W26532  10.084  14.884  14.525 -0.2315  0.3350 -0.2314
11402W        W26533   8.150   6.766   1.239 -0.1122  0.1443 -0.0759
11403W        W26534   3.757  15.342   1.127 -0.0134 -0.1437 -0.0329
11404W        W26535  12.850   0.729  12.287 -0.2966 -0.1293 -0.0424
11405W        W26536  13.724   7.885  14.404 -0.0637  0.1839 -0.4249
11406W        W26537  11.118  12.101  12.009  0.3110  0.0135  0.2207
11407W        W26538  13.355   6.245  11.355 -0.0455 -0.0853 -0.2564
11408W        W26539  15.559   1.454  15.692 -0.1710  0.1397 -0.5372
11409W        W26540   4.128   8.126   5.584 -0.1265 -0.2184  0.1814
11410W        W26541  18.050   4.174   5.307  0.0554  0.2128 -0.2619
11411W        W26542  10.156   2.846   1.847 -0.1290 -0.0105  0.3125
11412W        W26543  13.904   9.373  12.741  0.2535 -0.0039 -0.3817
11413W        W26544   5.899  18.229  12.187 -0.1143 -0.0677  0.0124
11414W        W26545   3.027   0.416  14.444  0.0164  0.1615  0.3296
11415W        W26546  11.418   8.283   2.388  0.2843 -0.1278 -0.1006
11416W        W26547   4.533   6.210   2.967 -0.1422  0.1698  0.1495
11417W        W26548   4.358  12.296   2.752 -0.0965 -0.4434 -0.0597
11418W        W26549   1.055  11.433   0.335 -0.0021  0.1021  0.2996
11419W        W26550  14.692   8.850  13.965  0.0812  0.2721  0.0625
11420W        W26551   3.109   4.344  12.146  0.0826 -0.2219  0.5988
11421W        W26552  18.090  11.994  13.150  0.0073 -0.2404 -0.0451
11422W        W26553   5.071   3.325   2.806 -0.1176  0.2800  0.4924
11423W        W26554   2.007   2.056   2.741 -0.1503 -0.0625 -0.3693
11424W        W26555   7.479  17.631  11.447 -0.0736 -0.1929  0.2884
11425W        W26556  14.158  16.661  12.991  0.2464  0.2588 -0.1471
11426W        W26557   9.615   8.170  12.092 -0.3051  0.1121  0.0775
11427W        W26558  16.539   2.560  14.836 -0.1222  0.1574 -0.1236
11428W        W26559  18.242   9.454   4.233 -0.0696  0.2015  0.1784
11429W        W26560  14.751  18.286   5.554  0.3143 -0.1092  0.1200
11430W        W26561  10.633   3.198  10.757 -0.0153 -0.0115  0.3078
11431W        W26562  12.068   8.827   5.984  0.0340  0.1749 -0.3164
11432W        W26563  14.757  15.327  12.271  0.2291  0.0239 -0.4579
11433W        W26564   7.028   4.204  14.979  0.2102 -0.1941  0.0259
11434W        W26565   3.375  17.931  13.132  0.0338  0.4775  0.0140
11435W        W26566   8.842  14.418   3.293 -0.0875 -0.2146  0.1483
11436W        W26567   8.943   9.329  14.063 -0.4043  0.0397  0.2382
11437W        W26568   5.277   9.438   1.299 -0.2969  0.5365  0.0688
11438W        W26569   3.288  16.444   4.251 -0.0644  0.0213 -0.0475
11439W        W26570   1.417  17.165  10.102  0.1640 -0.2820 -0.0156
11440W        W26571   8.745   4.344   2.562 -0.2627  0.1534  0.0336
11441W        W26572   5.944  12.360   3.109  0.2798 -0.2334  0.2979
11442W        W26573   3.531  11.313   9.945 -0.0381 -0.1569 -0.1288
11443W        W26574   9.099  12.426   3.545 -0.3389 -0.0693 -0.1534
11444W        W26575   3.803   0.570   2.905  0.2134  0.4396  0.0285
11445W        W26576  10.620   4.916   4.228  0.1798 -0.0053 -0.0277
11446W        W26577   7.872   9.112   1.572 -0.3467  0.0290 -0.0059
11447W        W26578  13.087   7.156  12.247 -0.0426 -0.1446  0.1443
11448W        W26579  13.070  11.136   2.754 -0.0015  0.1277 -0.2221
11449W        W26580  10.428   0.085   1.865  0.2689  0.0623 -0.1199
11450W        W26581   2.321  17.943  12.683 -0.3226 -0.0628  0.0275
11451W        W26582   2.773  13.025   3.087  0.1826 -0.3200  0.2082
11452W        W26583   6.184  16.967  10.294 -0.0547 -0.1040  0.3357
11453W        W26584   9.698   3.051   2.558 -0.2208  0.3471 -0.0383
11454W        W26585   0.584   0.089   2.749 -0.2279  0.1085 -0.1256
11455W        W26586   5.100  11.937   3.249  0.1243  0.0969  0.2002
11456W        W26587   0.563  18.488  10.954 -0.0493 -0.0286 -0.3699
11457W        W26588   0.288  11.942   6.171  0.1235 -0.5755 -0.1247
11458W        W26589  16.298   1.841  14.393  0.3726 -0.0749 -0.2633
11459W        W26590   0.711   2.734  14.637  0.0574  0.0280 -0.2206
11460W        W26591   7.405   7.805   1.061 -0.0942  0.1685 -0.1014
11461W        W26592   3.253   8.883   1.209 -0.1406 -0.3812  0.0509
11462W        W26593  15.486  12.443  13.203  0.0090 -0.0611 -0.2934
11463W        W26594   8.015  18.003  12.851 -0.0853 -0.1343 -0.2015
11464W        W26595   7.416  11.915   4.669 -0.0173 -0.0253 -0.2726
11465W        W26596  16.309   6.893  15.689 -0.1810 -0.2061  0.1250
11466W        W26597   8.834   4.293  13.702  0.0009  0.3024  0.0094
11467W        W26598  15.649   1.906   0.164 -0.0304  0.2392 -0.1513
11468W        W26599  13.488   9.843   4.539 -0.2797  0.1899 -0.0753
11469W        W26600  16.565   2.759   4.686 -0.0825  0.1163 -0.1442
11470W        W26601  12.810  15.027  12.712  0.1613 -0.0154  0.2582
11471W        W26602   1.316  11.189  10.880  0.2693  0.1038  0.0790
11472W        W26603  11.573  16.027  13.894 -0.1443  0.2532  0.2093
11473W        W26604  18.059  15.901   0.550 -0.1857 -0.3873 -0.0016
11474W        W26605  13.257   6.950   2.352 -0.1593  0.0160  0.0247
11475W        W26606  13.310  10.162  14.936  0.0185  0.0321  0.3219
11476W        W26607   1.537   4.202   0.664  0.0408 -0.1005 -0.2400
11477W        W26608  14.146  14.458  11.891 -0.0268 -0.3020  0.2138
11478W        W26609   1.837   7.261   3.089 -0.1661 -0.0909  0.2952
11479W        W26610  11.245   9.746  13.151  0.2426  0.2242  0.2349
11480W        W26611  10.259   4.722   0.470  0.1101 -0.0289 -0.0586
11481W        W26612   7.941   0.062  14.184 -0.0368  0.2053 -0.1286
11482W        W26613   0.174  17.770   1.977 -0.3662 -0.1010  0.0781
11483W        W26614   2.082   5.929   2.840 -0.0997  0.0111  0.3312
11484W        W26615   7.883  14.889  11.021 -0.0861  0.1510  0.1652
11485W        W26616   5.894  17.390   1.731  0.2338 -0.1247  0.2285
11486W        W26617   2.855  10.583  11.482  0.1413  0.0796  0.1235
11487W        W26618  12.438  15.467  10.913  0.0237  0.5142 -0.1067
11488W        W26619  15.086   9.676   1.280 -0.2288  0.0547 -0.0648
11489W        W26620   3.824   4.607   5.223 -0.1115 -0.1721 -0.0735
11490W        W26621  14.565  10.689   5.173  0.2193 -0.0620 -0.0549
11491W        W26622  16.221  18.119  14.431  0.2972  0.0118  0.4741
11492W        W26623   8.624   8.163   0.950  0.3507  0.5471  0.1463
11493W        W26624   8.433  15.696  12.848 -0.1937  0.2394  0.1180
11494W        W26625   1.998   4.620  14.656  0.1898  0.0666 -0.0053
11495W        W26626   6.045   0.142  10.451  0.2060 -0.0762 -0.0631
11496W        W26627   5.275  14.315  13.851 -0.1056 -0.1122 -0.0991
11497W        W26628  15.403  10.405  11.284 -0.2701  0.0558  0.1695
11498W        W26629   3.111   1.425  11.809  0.2271 -0.1564  0.0608
11499W        W26630   2.388   6.336  12.566  0.1789 -0.2046  0.0134
11500W        W26631  15.938   2.889   2.711  0.0384  0.0884 -0.0324
11501W        W26632   0.439   6.039   2.811  0.0683  0.1141 -0.0579
11502W        W26633  12.511   0.392   1.606  0.1339  0.2802 -0.2450
11503W        W26634  11.192   0.198   3.507  0.0209  0.1672 -0.0164
11504W        W26635   1.276   8.244   5.715  0.1083 -0.2431 -0.3377
11505W        W26636   2.662   5.048  12.659 -0.2997  0.1131 -0.2421
11506W        W26637   3.248   6.777  12.235 -0.3858  0.0205  0.0971
11507W        W26638  15.930  10.651   1.158  0.1551 -0.0602  0.2695
11508W        W26639   6.855   7.981   1.659 -0.2937 -0.3203  0.1428
11509W        W26640  13.797   8.340   5.049 -0.0380 -0.0365  0.2326
11510W        W26641   3.854  13.457   0.128 -0.0110  0.1643 -0.1510
11511W        W26642  13.534  18.055   5.255  0.2406  0.3467  0.0801
11512W        W26643  13.804  11.439  10.854 -0.2564  0.0860 -0.1938
11513W        W26644  15.358  11.376  11.982  0.4406  0.2976 -0.2262
11514W        W26645   8.029  12.301  14.362 -0.1255  0.1772  0.0823
11515W        W26646  11.299  10.168   1.592 -0.1512 -0.0458  0.0074
11516W        W26647   2.266  17.267   3.327  0.3403 -0.2890  0.3398
11517W        W26648   4.911   0.332   3.896 -0.1035 -0.1354 -0.0796
11518W        W26649   6.246   1.804   0.899  0.2198 -0.2574 -0.0331
11519W        W26650   9.986   3.203   0.545  0.1140 -0.3083  0.1625
11520W        W26651  14.904   0.342  13.922 -0.1330  0.1997  0.0933
11521W        W26652  11.837  18.398   5.497 -0.2272 -0.0028  0.0146
11522W        W26653   5.506   4.359  15.863 -0.0838  0.0899 -0.2686
11523W        W26654  15.824   7.003  13.593 -0.0745 -0.2641  0.0668
11524W        W26655  16.631   6.661  14.086 -0.1398 -0.1174 -0.0106
11525W        W26656  18.292  16.321   0.619 -0.1230  0.1854  0.0749
11526W        W26657  13.945  12.963   2.122  0.2762  0.0607  0.2467
11527W        W26658   3.121  11.547   3.078 -0.0287  0.1650  0.2648
11528W        W26659  13.192  11.699  12.516  0.2243 -0.1289 -0.0379
11529W        W26660  17.329  11.338   0.218 -0.2769 -0.2196 -0.0483
11530W        W26661   7.759   9.152  13.735 -0.0106  0.0515  0.1772
11531W        W26662   8.439   1.588  14.047  0.0957  0.0979  0.0588
11532W        W26663  12.221  13.268  12.719  0.4807 -0.2024 -0.3253
11533W        W26664  12.611  18.527   3.805 -0.3629 -0.2277 -0.0321
11534W        W26665   0.488  16.781   5.854 -0.0799  0.1675 -0.1773
11535W        W26666   1.214  14.518  14.186  0.1488 -0.5981  0.0014
11536W        W26667  15.501   1.768  11.998  0.0108 -0.0791 -0.1802
11537W        W26668   8.895   4.046  14.588 -0.2032 -0.2070  0.2044
11538W        W26669  13.458  18.421   1.349  0.4386 -0.2027 -0.1974
11539W        W26670   0.075  13.005  11.187 -0.1411  0.1345  0.2678
11540W        W26671   1.253   3.937  13.037 -0.0640  0.3280  0.1467
11541W        W26672  17.543   8.865  15.271  0.2966 -0.1034  0.0265
11542W        W26673   7.430   4.981  14.514  0.1258 -0.3898 -0.0231
11543W        W26674   8.782  12.750   4.428 -0.0369 -0.4454 -0.0100
11544W        W26675  15.678  10.957   6.192 -0.1989 -0.3507 -0.2853
11545W        W26676  15.745   6.706  13.106  0.3034 -0.1980 -0.1284
11546W        W26677  13.600   6.834  13.530 -0.2312  0.1598  0.2313
11547W        W26678   4.642   0.659  14.863 -0.0877 -0.0480 -0.0624
11548W        W26679   8.734  13.506   1.375 -0.2007 -0.0424 -0.1741
11549W        W26680   5.842   6.178  11.979  0.0011  0.1688 -0.1638
11550W        W26681  10.444  16.911   1.782  0.1252 -0.1701  0.1176
11551W        W26682   8.704   1.188  14.001  0.1013  0.1573  0.0190
11552W        W26683  17.792   5.428  14.470 -0.2612  0.0906 -0.0717
11553W        W26684  15.699  14.410  12.510 -0.4242  0.0390  0.0127
11554W        W26685   7.532  13.309   2.615 -0.0417 -0.0390  0.0353
11555W        W26686  17.296  17.450   4.575  0.0586 -0.0834 -0.0128
11556W        W26687   1.796   4.689  13.211 -0.0482 -0.2975 -0.0843
11557W        W26688   3.631  13.924   4.857  0.1739  0.1617 -0.0802
11558W        W26689   7.746  15.740  15.608  0.1042 -0.1248 -0.1475
11559W        W26690   4.214  11.590  13.286  0.0736  0.3807  0.0704
11560W        W26691  13.429  17.586   4.967  0.3369 -0.0160 -0.4053
11561W        W26692  12.567  11.336  15.301  0.3232 -0.1009 -0.0345
11562W        W26693   8.864  12.884  13.995 -0.2199 -0.4464  0.2774
11563W        W26694   7.174  14.080   3.651  0.1685 -0.1705 -0.0273
11564W        W26695   9.459   8.066   0.681 -0.0664  0.0073  0.0409
11565W        W26696   5.037  10.180   0.381  0.3047  0.1218 -0.2069
11566W        W26697  17.163   8.332  14.846  0.1677  0.1723 -0.2648
11567W        W26698  12.536   4.281  11.904 -0.0771  0.1634  0.0647
11568W        W26699   9.512  15.054  13.442  0.0034  0.0231 -0.0361
11569W        W26700  17.227   8.417   0.670 -0.4115  0.0518  0.2309
11570W        W26701  15.676   6.847  15.010  0.1366 -0.1417 -0.2104
11571W        W26702  14.223   1.143   1.506  0.1055  0.0460 -0.0579
11572W        W26703  10.820   2.159  13.433  0.2086 -0.1288  0.2810
11573W        W26704  14.903  12.703  13.193 -0.0631  0.1736  0.4579
11574W        W26705   5.605   5.890  15.205 -0.1053 -0.0720  0.0104
11575W        W26706  11.858   4.538  14.454 -0.0417 -0.2516  0.2880
11576W        W26707  12.038  13.809  15.619 -0.1498 -0.1152 -0.0070
11577W        W26708   0.615  11.593   3.888 -0.0089 -0.3832 -0.3125
11578W        W26709  13.690   7.339   3.632 -0.0057 -0.2188 -0.1360
11579W        W26710   1.195  14.639  14.855  0.1277  0.0519 -0.0670
11580W        W26711   8.612  17.504   5.074 -0.0722  0.0183 -0.0051
11581W        W26712   4.851  18.333  13.892  0.1062  0.1885  0.1745
11582W        W26713   0.863  12.306  12.305  0.0599 -0.1367  0.0420
11583W        W26714  16.027  13.705   5.090 -0.2510  0.1522 -0.1194
11584W        W26715   6.377  12.115  14.378  0.2671 -0.2648  0.1909
11585W        W26716   5.756  12.606  11.207 -0.0084 -0.0714  0.0723
11586W        W26717  11.790  10.577  13.298  0.0469  0.2186  0.1711
11587W        W26718   2.158  12.608  10.897 -0.0983  0.0405 -0.0003
11588W        W26719  13.733  14.910  15.258  0.1607 -0.0378 -0.0897
11589W        W26720  12.625   3.806  12.748 -0.2191 -0.0428 -0.3005
11590W        W26721  11.725  16.111   2.100  0.2725  0.1055  0.1951
11591W        W26722   5.329   8.642   2.134  0.0072  0.1522  0.3732
11592W        W26723  16.593   0.353  11.521  0.1989 -0.2694 -0.0291
11593W        W26724   1.716  13.588  14.860  0.1020 -0.0238 -0.1499
11594W        W26725   4.673  14.747   4.561 -0.1590 -0.2474  0.2249
11595W        W26726   9.357  15.151   2.871  0.2292 -0.1182  0.2991
11596W        W26727  17.254  16.126  11.950  0.2761  0.0019 -0.0273
11597W        W26728   9.558   3.522   1.809  0.0767 -0.1318  0.1895
11598W        W26729   0.615  16.922   4.018 -0.3663 -0.1669 -0.0682
11599W        W26730  10.376  14.441   0.030  0.2315 -0.2827  0.1176
11600W        W26731  10.543  18.001   3.820 -0.3329 -0.1143 -0.0952
11601W        W26732   5.920  10.693  15.816 -0.0462 -0.0136  0.1477
11602W        W26733   7.558   5.969   4.458  0.0721  0.2826  0.1329
11603W        W26734  12.814   0.561   3.065  0.0208 -0.1031  0.1800
11604W        W26735   7.229  10.939   2.477  0.1233  0.0201  0.0971
11605W        W26736  14.342  17.529  11.737  0.1224 -0.2118  0.3740
11606W        W26737   5.081  15.594   4.807  0.0475 -0.3909 -0.0823
11607W        W26738  13.034   7.427   0.144 -0.1512 -0.1473 -0.0221
11608W        W26739  15.398   7.355   2.669  0.1442  0.0529  0.0067
11609W        W26740   8.458   0.808   3.964  0.2341  0.2182  0.0773
11610W        W26741  10.156   6.280   4.212  0.0832  0.3034  0.0735
11611W        W26742   4.022   0.774  14.242  0.0090 -0.3477 -0.1995
11612W        W26743  14.666  11.700   1.595  0.4886 -0.1176  0.1187
11613W        W26744  13.094   0.321  15.197  0.0722  0.2401 -0.0393
11614W        W26745  10.503  17.483   0.066  0.0286 -0.1992  0.1093
11615W        W26746   0.964   3.747  14.324 -0.0408 -0.1337  0.3264
11616W        W26747  11.821  17.017  14.102  0.2762 -0.0565 -0.3645
11617W        W26748  10.333  10.977   5.169  0.2348  0.0307  0.0482
11618W        W26749  15.850   2.560   1.753 -0.0613 -0.1252 -0.1664
11619W        W26750  13.778  11.526   3.854  0.1064  0.1509 -0.2049
11620W        W26751  10.468  17.930   2.545 -0.1440 -0.1071 -0.2102
11621W        W26752  16.411  11.023   3.574  0.0944  0.2432 -0.2291
11622W        W26753  14.461   3.611  15.533 -0.0551  0.2292 -0.0819
11623W        W26754   1.975  14.950  13.096 -0.1466  0.2785 -0.0232
11624W        W26755  14.821   7.476   0.875  0.0409  0.2701  0.0040
11625W        W26756   7.987  12.896   1.540  0.2000  0.2444  0.1723
11626W        W26757  10.847  18.382   3.227  0.2267 -0.1391  0.0180
11627W        W26758  10.986  12.900   3.987 -0.0553 -0.0348 -0.2460
11628W        W26759   9.610  16.923  15.532  0.0046 -0.1260 -0.1135
11629W        W26760   7.701  17.765  13.805 -0.2333 -0.3507 -0.2823
11630W        W26761   9.143   4.443   1.126  0.1769 -0.1378  0.1346
11631W        W26762  14.921   8.035   2.225  0.5303  0.3200  0.0994
11632W        W26763  12.036  15.841   0.180  0.2429 -0.0425 -0.0632
11633W        W26764  11.726  13.404   1.554 -0.1496 -0.2041 -0.3286
11634W        W26765   1.342  18.119   0.866  0.3482  0.4136 -0.1637
11635W        W26766  12.006   6.569  14.460 -0.1613  0.1031 -0.0215
11636W        W26767   2.578   8.123   1.046 -0.1124 -0.0491 -0.0600
11637W        W26768  17.618   8.926  13.216 -0.1798 -0.0411  0.0807
11638W        W26769   3.305   8.188   4.545  0.0032  0.0915  0.1527
11639W        W26770  13.237   0.928   0.084 -0.1363  0.1019 -0.1430
11640W        W26771  18.233   9.604  10.530  0.0439 -0.0119  0.0198
11641W        W26772  11.108  16.857   1.230  0.0195  0.1060 -0.0372
11642W        W26773   1.586  18.150  12.702 -0.2368  0.0809  0.0087
11643W        W26774   3.616  10.701   5.154  0.3788  0.4009 -0.0425
11644W        W26775  18.112  13.468  12.651  0.3797 -0.0709 -0.2686
11645W        W26776  11.440   0.417  14.867  0.0797 -0.2264 -0.1045
11646W        W26777   9.544   7.875  13.042 -0.1701 -0.0170 -0.0835
11647W        W26778  16.485  11.280   4.047 -0.0457  0.1370  0.0976
11648W        W26779   5.661   7.380   5.087  0.0831 -0.2062  0.0663
11649W        W26780   3.265  18.375  13.015 -0.1590 -0.1905 -0.0671
11650W        W26781  18.473  15.103  14.591 -0.0478 -0.1664 -0.1982
11651W        W26782  13.381  14.697   0.411 -0.1838  0.1188 -0.1034
11652W        W26783   6.928  16.097   2.691 -0.4009 -0.0290  0.1096
11653W        W26784  13.714   7.064   0.148  0.0751 -0.0690 -0.0851
11654W        W26785   1.961  10.253   0.160 -0.1474  0.1203  0.0271
11655W        W26786   3.008  11.043   0.310  0.3394 -0.1763 -0.3610
11656W        W26787  13.725   2.012  14.783 -0.2057  0.0589 -0.2210
11657W        W26788   2.830  11.546  10.121  0.3964  0.0403  0.0190
11658W        W26789  15.019  16.135   0.868  0.1761  0.0691 -0.4232
11659W        W26790   6.907   5.497   0.181 -0.3885 -0.1259 -0.1206
11660W        W26791  13.915  11.710   0.379 -0.1022  0.0354 -0.0836
11661W        W26792  15.908   7.962  12.518  0.0963  0.1253 -0.2544
11662W        W26793  15.622   9.989   4.671  0.2131  0.2287 -0.0836
11663W        W26794   4.474   2.764  15.388 -0.2648 -0.2248  0.3613
11664W        W26795  10.831  11.461   4.264 -0.1907 -0.1621 -0.3694
11665W        W26796  14.370  17.071   2.835 -0.0182  0.1367 -0.0042
11666W        W26797   3.157   6.419  15.749  0.1400  0.1259 -0.0183
11667W        W26798   8.381   9.033  11.617  0.2948  0.1033  0.0689
11668W        W26799   8.305  12.414  11.946  0.0827 -0.1246 -0.0375
11669W        W26800   4.697   6.969   0.073 -0.0880 -0.0774 -0.0970
11670W        W26801   5.007  16.563  10.974 -0.1847  0.1117 -0.0424
11671W        W26802  12.100   7.723   2.097  0.0859 -0.0908 -0.1375
11672W        W26803   9.424   3.121   3.630  0.0063 -0.0356 -0.4021
11673W        W26804   8.781   2.677   1.830 -0.0778 -0.1932 -0.2130
11674W        W26805  17.912   2.038  15.903 -0.0036 -0.0030  0.0400
11675W        W26806   2.737   6.879   2.163 -0.0910 -0.0552 -0.1856
11676W        W26807   9.517  17.398  15.612 -0.2348  0.1184 -0.1669
11677W        W26808  13.638  16.315  14.303  0.2448  0.2227  0.1788
11678W        W26809   7.008   9.715  13.803 -0.0607  0.0067 -0.1949
11679W        W26810   9.795   6.057  11.464 -0.2939  0.2284  0.1095
11680W        W26811  17.083  11.117  13.207  0.2140  0.0512  0.1861
11681W        W26812   2.299  12.027  15.367 -0.3436  0.2021 -0.2610
11682W        W26813   1.977   5.146   5.218 -0.0256 -0.1078 -0.0413
11683W        W26814   9.636  17.389  12.002 -0.0107  0.2244  0.0794
11684W        W26815  12.623  13.132   0.132 -0.1894  0.1802 -0.0151
11685W        W26816   4.998   6.135  14.195  0.1102 -0.2382  0.3908
11686W        W26817   9.690   8.602   0.883  0.0637  0.2081 -0.1309
11687W        W26818   7.641   2.561  12.577  0.2133  0.1627  0.1771
11688W        W26819  15.683   9.520  10.922  0.0094  0.1578 -0.0183
11689W        W26820   4.039   8.972   2.006  0.1772 -0.1512  0.1704
11690W        W26821   4.416   4.553   1.367 -0.2442  0.0475  0.0139
11691W        W26822   0.149   8.360  13.802  0.1304  0.0572  0.0437
11692W        W26823  12.205   0.866  13.642 -0.0464  0.2181  0.1145
11693W        W26824   4.443  14.996  14.301  0.1701  0.3609 -0.2730
11694W        W26825   6.167   1.993   4.901 -0.1470  0.1630 -0.0929
11695W        W26826  11.992   6.347  15.718 -0.2190 -0.3593  0.0733
11696W        W26827   2.391  18.254   3.057  0.0094  0.1687 -0.2406
11697W        W26828   8.810  17.486   0.496 -0.0791 -0.2142 -0.1922
11698W        W26829  11.781   8.953   3.521  0.2045 -0.1892  0.2928
11699W        W26830   8.287  14.657   0.439  0.0041 -0.0191  0.1452
11700W        W26831   4.340   2.907   2.621  0.3762  0.0108 -0.1173
11701W        W26832  17.745  11.681   1.206  0.2307  0.0285  0.0117
11702W        W26833   2.537   4.354  10.437  0.0756  0.3703  0.0517
11703W        W26834   8.104  11.194   2.070 -0.1190 -0.0871  0.1717
11704W        W26835  14.323   0.330  13.817  0.0371 -0.1649  0.1437
11705W        W26836   5.118   1.882   2.497  0.2842  0.1666  0.3253
11706W        W26837   0.191   8.882   2.667 -0.4461  0.0968 -0.2270
11707W        W26838  11.160   5.236  10.722  0.0027 -0.0843 -0.1522
11708W        W26839   0.427  18.038  14.592  0.0094 -0.1257  0.2259
11709W        W26840   3.028  10.413   4.392  0.4527  0.2653 -0.1096
11710W        W26841   7.147   7.568  14.593  0.0412 -0.0000 -0.0023
11711W        W26842   0.943   6.574  13.649  0.2343  0.0379  0.0336
11712W        W26843   2.032  11.489  14.162 -0.0652  0.0861  0.2634
11713W        W26844  10.240   4.815   3.601 -0.0148  0.1559 -0.0028
11714W        W26845   5.490   1.335  12.703  0.0423 -0.0460 -0.3154
11715W        W26846  15.881  17.915  15.729  0.1811  0.0587  0.1580
11716W        W26847   9.105   0.162  12.884  0.1886 -0.2163  0.0449
11717W        W26848  16.451  14.637  10.317 -0.0841  0.1690  0.1592
11718W        W26849   7.432  16.003   5.066 -0.2904 -0.1819  0.2468
11719W        W26850  11.720  15.660   1.137 -0.2643 -0.0845  0.1438
11720W        W26851   1.325   4.505  15.832  0.0094 -0.0788  0.2132
11721W        W26852  17.547  18.099   2.693 -0.0556  0.0005 -0.0707
11722W        W26853   2.125  15.258  15.615  0.3983  0.2140  0.1000
11723W        W26854   0.958   9.028  15.869 -0.6497  0.1404 -0.0974
11724W        W26855   4.956   7.153  11.497 -0.3333 -0.1727 -0.0075
11725W        W26856   5.281  15.039   2.730  0.0321 -0.2190  0.1783
11726W        W26857   2.291   3.624  14.550  0.3569  0.1965 -0.5544
11727W        W26858  17.071   8.437  12.106 -0.2182 -0.3158  0.1842
11728W        W26859  10.546   2.105   1.908  0.0101 -0.0547 -0.3188
11729W        W26860  13.057   1.765   4.317 -0.3452  0.1017  0.1169
11730W        W26861  14.783   7.939  12.192 -0.0954  0.0344 -0.0547
11731W        W26862   1.967   7.182  12.952  0.1328 -0.0011  0.1901
11732W        W26863  16.625  12.638   0.307 -0.0197  0.0408  0.2257
11733W        W26864   7.398   3.102   3.968 -0.0230  0.0459  0.0944
11734W        W26865  17.559  11.187  13.533  0.2034 -0.1407  0.1645
11735W        W26866   5.143   4.076   6.363 -0.4540 -0.0237  0.2280
11736W        W26867   3.012   3.349   2.778  0.1184  0.0074  0.0957
11737W        W26868  17.304  16.692  15.928 -0.1327  0.0293 -0.2661
11738W        W26869   2.800  15.728   0.231 -0.3561 -0.0096 -0.1648
11739W        W26870   0.407   3.963  14.922 -0.3101 -0.1939  0.3271
11740W        W26871   6.045   9.582  11.401 -0.1262 -0.2202  0.0369
11741W        W26872  12.248   7.938   3.759 -0.3352 -0.1198  0.2538
11742W        W26873  10.165   9.988   5.999  0.2074 -0.2591  0.1345
11743W        W26874  14.626  15.229   3.109 -0.1254  0.0784  0.4105
11744W        W26875   6.571  10.378  15.710 -0.0848  0.2405 -0.0992
11745W        W26876   8.594   9.224   3.566 -0.1181 -0.0998  0.0179
11746W        W26877  16.319  15.275   3.967 -0.0926 -0.0135 -0.2148
11747W        W26878   2.817   1.527  10.375  0.0832 -0.0161  0.4908
11748W        W26879   9.824  15.193   3.087 -0.0722 -0.1282  0.2434
11749W        W26880  13.774   3.305   4.654 -0.0592  0.2386 -0.0830
11750W        W26881  17.551  16.292   3.019  0.0628 -0.1911 -0.2172
11751W        W26882  15.192   2.045   3.406  0.2388 -0.0407 -0.1026
11752W        W26883  15.851  13.134   1.837  0.0282 -0.3090  0.3186
11753W        W26884  13.117   9.270  11.128 -0.3754  0.0004 -0.0320
11754W        W26885  11.421   5.320  13.168 -0.0513  0.0836 -0.0988
11755W        W26886  14.122   0.737  14.951  0.2717 -0.3010  0.2578
11756W        W26887  16.252   4.260   4.114  0.1405 -0.2977 -0.0123
11757W        W26888   8.910  14.748   3.655  0.1317  0.1526  0.0339
11758W        W26889  14.695  10.185  12.900 -0.1153  0.0768  0.3421
11759W        W26890  15.296  15.929  10.759 -0.0960 -0.0582  0.2914
11760W        W26891  12.936   0.684   0.444 -0.1653  0.0776  0.0230
11761W        W26892  13.010  14.308  14.828  0.0744 -0.2823  0.0028
11762W        W26893   9.334  10.919   3.925 -0.0884  0.0849  0.0707
11763W        W26894   6.057   7.312   3.755  0.2722  0.0420  0.1276
11764W        W26895  12.918  10.389  15.754  0.1424 -0.1464  0.0114
11765W        W26896   9.317   8.492   4.850 -0.0465  0.3347  0.0641
11766W        W26897   9.753  14.329   0.033 -0.1378 -0.1654 -0.1822
11767W        W26898   6.126  16.321   4.455  0.2248  0.0247  0.0156
11768W        W26899   3.064   7.219  12.105  0.0216 -0.2387  0.2889
11769W        W26900   1.194  15.042  14.409  0.1858 -0.3466 -0.0244
11770W        W26901   8.618   5.140   6.167  0.2827 -0.1026  0.2848
11771W        W26902  17.676  14.688   0.754 -0.1114 -0.0499 -0.0138
11772W        W26903   5.102   8.707   3.305  0.4007 -0.0274  0.3502
11773W        W26904   3.410  12.127  12.783  0.1288  0.1635  0.0772
11774W        W26905   9.432   6.552   4.330 -0.2448 -0.2202 -0.0342
11775W        W26906  12.790   8.659   0.549  0.2465  0.4575  0.3472
11776W        W26907   3.966  17.928   0.806 -0.0247 -0.1353  0.3222
11777W        W26908   0.061   6.924   0.446 -0.0775  0.0314 -0.0697
11778W        W26909   8.808  12.425  12.889 -0.1551 -0.0638  0.4574
11779W        W26910  13.004   7.247  12.810  0.3847  0.1202  0.1813
11780W        W26911  18.422   8.885  14.504 -0.3453 -0.0689 -0.0623
11781W        W26912  17.110   7.035   4.153 -0.1316  0.0501 -0.0109
11782W        W26913   1.964   6.867  15.141 -0.1601  0.3671  0.2401
11783W        W26914  10.947  13.775  15.130 -0.1758 -0.0141  0.3356
11784W        W26915  14.977   4.294  13.219  0.0529  0.1331 -0.2045
11785W        W26916  13.065  17.405  14.582  0.2108 -0.1636 -0.0077
11786W        W26917  10.843  16.864  12.639 -0.0143  0.1554 -0.2547
11787W        W26918   3.532  12.351  13.243 -0.3312  0.0707 -0.0898
11788W        W26919  14.112  13.546  15.205 -0.2257 -0.0096  0.2973
11789W        W26920   0.165   0.115   2.422  0.0625  0.1778 -0.0017
11790W        W26921   9.005  13.542  14.506 -0.0096 -0.0280 -0.0948
11791W        W26922   4.644   8.506   0.987 -0.2819 -0.2395 -0.0525
11792W        W26923  11.996  14.483   2.902  0.1288  0.1379 -0.3607
11793W        W26924  17.872  14.241   2.059  0.0350  0.2288 -0.2211
11794W        W26925   0.277  15.441  14.701  0.1459  0.1232  0.2016
11795W        W26926   3.073  16.614  12.914 -0.0661 -0.2227 -0.2147
11796W        W26927   3.166  15.282  13.838  0.1198 -0.3137 -0.2832
11797W        W26928  14.947   5.791   5.321 -0.2044  0.1513 -0.2173
11798W        W26929  10.485   7.977  10.307  0.2134 -0.1137  0.0617
11799W        W26930   6.491   6.856  12.391  0.2299 -0.1439 -0.0192
11800W        W26931  16.295  16.682   3.183  0.2918  0.1868  0.1610
11801W        W26932   0.779  14.329  10.928 -0.0815  0.0257 -0.2771
11802W        W26933   4.590   6.644   1.208 -0.2495 -0.0199  0.0510
11803W        W26934   8.401  14.547  14.450  0.0728 -0.1787  0.0518
11804W        W26935   3.111  11.631   9.710 -0.0956 -0.1099  0.0770
11805W        W26936  10.553   6.001   4.615 -0.0663  0.0242 -0.1868
11806W        W26937  10.828  14.280  15.905  0.1319 -0.0023 -0.3603
11807W        W26938   5.553  11.131  11.824 -0.2527  0.0961 -0.1451
11808W        W26939  13.354   3.994  14.860 -0.1942 -0.3088  0.3234
11809W        W26940   3.870   2.312  13.593  0.1539  0.2777  0.1151
11810W        W26941  16.481   4.279   4.668 -0.2534  0.2795  0.0656
11811W        W26942  10.262   4.810   1.913 -0.4132 -0.0206  0.2033
11812W        W26943   3.177  13.613   4.633  0.2493 -0.0731 -0.2988
11813W        W26944   1.265   5.196   5.495  0.0273 -0.0244 -0.0521
11814W        W26945  12.739  14.380   3.881 -0.1060  0.1736 -0.0461
11815W        W26946   6.270  15.992   1.874 -0.0715 -0.5966 -0.1520
11816W        W26947  14.148   7.100   0.464  0.1511 -0.1607 -0.1513
11817W        W26948  15.737  15.184  14.939 -0.0482  0.1820 -0.0135
11818W        W26949   9.550   2.853   0.657 -0.0116  0.3711 -0.1170
11819W        W26950   8.091   6.682  11.401 -0.0038 -0.0253  0.1250
11820W        W26951   2.368  10.605   1.449 -0.0877 -0.3444  0.0345
11821W        W26952  18.342  11.112   6.632 -0.0122  0.0245  0.1469
11822W        W26953  14.693   5.448  14.052  0.1018 -0.3685  0.0457
11823W        W26954   2.129  10.072   4.570  0.1121 -0.0339 -0.0080
11824W        W26955   5.889   5.414  15.608 -0.1244  0.1401  0.0435
11825W        W26956   8.116  18.397   2.982  0.3603  0.2976 -0.1044
11826W        W26957   8.169  12.572   1.216 -0.0131  0.0870  0.0956
11827W        W26958   3.496  14.940  15.767 -0.0519  0.0739  0.1239
11828W        W26959  13.995  12.738  12.268  0.0859  0.1300 -0.0458
11829W        W26960   8.999   3.449   0.965  0.3441  0.2453  0.3284
11830W        W26961  10.492  16.241   0.763 -0.1843 -0.0615  0.0252
11831W        W26962  15.066  12.872   5.494  0.1301  0.2235 -0.0178
11832W        W26963   2.571   2.650  14.675  0.0403  0.1168  0.0824
11833W        W26964  17.368   3.058   3.551 -0.3137 -0.0533 -0.2597
11834W        W26965   4.102  18.097  11.595  0.0644 -0.1852  0.0421
11835W        W26966  10.184  13.337  15.852 -0.1705 -0.2605  0.3256
11836W        W26967   8.754  13.683   2.706 -0.0972 -0.2289  0.0353
11837W        W26968  12.956   2.275   4.367  0.3488  0.3571  0.0466
11838W        W26969   8.102  13.961  13.927  0.0471 -0.1302 -0.0874
11839W        W26970   2.944   4.434   3.564  0.0837 -0.1365  0.0337
11840W        W26971   4.498  14.379  15.187 -0.2322 -0.2464  0.4023
11841W        W26972   8.774  17.127  15.032  0.0339  0.1680 -0.0250
11842W        W26973  17.924  16.368  11.963  0.2421  0.1872  0.3839
11843W        W26974   2.237  13.096  15.408 -0.2140  0.1782  0.2309
11844W        W26975   5.662  13.139   4.204 -0.1825  0.1619  0.0500
11845W        W26976  16.313   2.656  11.240 -0.2112  0.0634 -0.0814
11846W        W26977  11.562  12.253  15.489 -0.0037 -0.0702  0.0415
11847W        W26978  17.071  10.226  15.078 -0.1079 -0.2399 -0.0927
11848W        W26979  17.703  11.818  10.660  0.1974  0.1842  0.1359
11849W        W26980  16.528  16.306  15.527  0.0066  0.4318  0.2009
11850W        W26981  12.923  14.524  12.702 -0.2702  0.2577  0.0948
11851W        W26982  16.905   0.654   5.655 -0.3616 -0.2633 -0.0762
11852W        W26983  12.727  15.978  10.944  0.0017 -0.0483  0.0403
11853W        W26984   7.754  14.022  13.361  0.0186  0.0630 -0.0526
11854W        W26985   5.571   7.002  13.197 -0.3053  0.1805 -0.0471
11855W        W26986   3.631   6.728  13.465 -0.1176 -0.1413  0.0098
11856W        W26987  16.602  10.482  10.847  0.0194 -0.0705  0.1380
11857W        W26988   0.010  10.555  12.944 -0.2296 -0.1427 -0.0976
11858W        W26989   6.629   8.296  12.474 -0.2750 -0.2324 -0.1157
11859W        W26990  14.297   3.305  14.008  0.1114 -0.0811 -0.1028
11860W        W26991   3.520   2.363   6.214  0.0677  0.1465 -0.1533
11861W        W26992  13.650   6.944   4.023 -0.0469 -0.2761 -0.1198
11862W        W26993  14.319  17.983   0.994  0.0523  0.2251  0.3984
11863W        W26994  12.712  15.758   1.599 -0.0161 -0.3258  0.1182
11864W        W26995   4.924  16.014   4.134  0.1704 -0.0231 -0.2148
11865W        W26996   9.405  16.095   1.512 -0.0158 -0.2943 -0.2359
11866W        W26997  18.038   3.970   2.480  0.1933  0.1003 -0.0700
11867W        W26998  15.563   8.819  11.356 -0.1746 -0.2857  0.2769
11868W        W26999  13.517   3.386   2.960  0.2164  0.0711  0.0480
11869W        W27000  16.843  17.287   0.624 -0.0537 -0.0956 -0.0213
11870W        W27001  12.402   2.016   3.126  0.0622  0.1191 -0.1250
11871W        W27002  15.368   2.119   2.906 -0.1077 -0.1299 -0.0854
11872W        W27003  10.267   6.527   2.346  0.0660 -0.3001  0.1973
11873W        W27004  15.157   4.950  15.401 -0.1517  0.2115  0.3052
11874W        W27005  16.338   3.233  13.198 -0.1738 -0.1719  0.1348
11875W        W27006   7.870   8.833  14.145  0.0841  0.1552  0.1511
11876W        W27007  17.643   5.101  11.391  0.1475  0.0814 -0.2234
11877W        W27008  17.281   0.929   5.484  0.0750  0.0578  0.2186
11878W        W27009   7.764  15.766   4.663  0.1507  0.0482 -0.5158
11879W        W27010  18.455   6.996   0.932  0.1350 -0.2256 -0.0574
11880W        W27011   4.773  16.383   3.239  0.1895 -0.0299 -0.0514
11881W        W27012   2.036   7.373   0.788 -0.1288  0.2721  0.3453
11882W        W27013  13.633  18.441  12.332  0.0304  0.4229 -0.1354
11883W        W27014   0.792   9.380  14.993 -0.1374  0.0201 -0.2475
11884W        W27015  14.978   5.553   0.042  0.0562 -0.1217  0.0132
11885W        W27016   3.176   6.401   5.378  0.2271  0.2105  0.0440
11886W        W27017   7.964  11.282   3.682 -0.1093 -0.2085  0.2677
11887W        W27018   2.588  16.946  11.605 -0.0825  0.2700 -0.1207
11888W        W27019   0.698  14.182   3.241  0.1369  0.1883  0.3016
11889W        W27020   6.761  18.117  11.527  0.0939  0.1729  0.2392
11890W        W27021  13.221   5.410   0.012 -0.2140  0.2277  0.2632
11891W        W27022  15.378   1.028  11.840 -0.2593  0.0834  0.1335
11892W        W27023   3.522  13.538   1.543 -0.1527 -0.0271 -0.1178
11893W        W27024  12.664   9.312   2.065  0.1978  0.0128 -0.2412
11894W        W27025  15.627  11.457   4.539  0.4078  0.3254  0.0464
11895W        W27026   1.528   8.871   4.952  0.0318  0.1274 -0.0615
11896W        W27027  16.987  12.891  11.107 -0.1754  0.0944  0.0655
11897W        W27028  13.070   5.790  10.780 -0.3264  0.2945 -0.0277
11898W        W27029  14.395   9.059   1.955  0.1778  0.0614  0.1784
11899W        W27030   1.053   4.257  11.234  0.2839 -0.1239 -0.2607
11900W        W27031   6.022  14.315   1.937  0.0354 -0.2929  0.1606
11901W        W27032   8.741   6.614   0.146 -0.4398 -0.1019 -0.1249
11902W        W27033  10.665  12.219  12.538 -0.0710 -0.0374  0.2043
11903W        W27034  15.568  16.428  13.789 -0.0561  0.2262  0.1554
11904W        W27035  16.748  13.076   1.641  0.0617  0.0157 -0.2495
11905W        W27036   3.330   1.360   4.960  0.0614 -0.2276  0.2603
11906W        W27037  10.997   5.206  14.360  0.2047  0.0012 -0.1073
11907W        W27038  14.608   1.574   3.796  0.3043 -0.3053 -0.2461
11908W        W27039   4.131  16.060   2.788  0.0902  0.0766 -0.2201
11909W        W27040  11.632   8.529   3.809 -0.1750  0.1569 -0.1184
11910W        W27041  11.889   2.510  12.568  0.0784 -0.2489 -0.0959
11911W        W27042  15.281  16.930   1.780  0.1432 -0.2198  0.4118
11912W        W27043  16.327   9.723  13.798 -0.0141  0.1349 -0.1883
11913W        W27044  17.194   5.595   2.225  0.1218  0.2306  0.0129
11914W        W27045  13.881   8.720  11.211  0.2321 -0.0081 -0.2753
11915W        W27046   1.893  11.169  12.598 -0.1354  0.0966  0.0054
11916W        W27047  10.668   8.875   4.992 -0.0948  0.1944  0.2284
11917W        W27048  12.380  15.269   2.951  0.0790 -0.0985 -0.1593
11918W        W27049  16.730   3.318  15.637  0.2524 -0.1028  0.4321
11919W        W27050   7.500   9.272   2.599 -0.1878  0.1366 -0.0197
11920W        W27051  14.068  17.473  10.341  0.0660  0.0361 -0.2114
11921W        W27052   3.096   0.018   4.717 -0.0734 -0.0567  0.0893
11922W        W27053   4.723   0.668   3.218 -0.2442 -0.1307  0.1331
11923W        W27054   7.226  14.510   1.562 -0.1324 -0.1121 -0.1624
11924W        W27055  12.004  10.958  11.961 -0.1510  0.5785  0.1013
11925W        W27056  15.581  17.886   4.553 -0.1245 -0.0136 -0.3227
11926W        W27057   5.186   5.936   3.876  0.3877 -0.2133  0.1678
11927W        W27058  11.224   7.453   5.930  0.1435 -0.1825 -0.5742
11928W        W27059   9.794   1.573  14.883 -0.0711  0.0399 -0.0081
11929W        W27060   6.050   5.269   6.357  0.1577 -0.1306 -0.2163
11930W        W27061   3.258   1.023  13.722  0.1045 -0.0593 -0.0134
11931W        W27062   0.881   7.903  12.203 -0.1455  0.0928 -0.0390
11932W        W27063   4.075  10.582   1.795 -0.3618  0.5054 -0.2431
11933W        W27064   5.861  13.215  13.280  0.0276 -0.3835 -0.2856
11934W        W27065  13.853  14.158   3.074 -0.5521  0.2902 -0.1732
11935W        W27066  10.124  14.396   9.693  0.1649 -0.0741  0.1058
11936W        W27067   1.078   1.667  13.062 -0.0977 -0.0849 -0.0355
11937W        W27068   3.326   5.840   5.886  0.2418 -0.2486 -0.1126
11938W        W27069   1.871  13.979   3.799  0.2629  0.0736  0.3753
11939W        W27070  10.466  13.435  13.359 -0.2851  0.1578 -0.0639
11940W        W27071  12.308   8.315   5.331  0.0321 -0.1050 -0.2245
11941W        W27072   1.067   8.152   1.098  0.0592 -0.0211 -0.1697
11942W        W27073   5.118  13.780  11.199  0.1533  0.0500  0.1607
11943W        W27074  14.290  18.134  11.160 -0.1507 -0.0917 -0.1603
11944W        W27075   2.149  14.453   0.023 -0.0828 -0.0609 -0.0262
11945W        W27076  10.561  14.019   0.475 -0.1234  0.1663 -0.0514
11946W        W27077   6.830  15.071  10.911 -0.3261  0.0427  0.1379
11947W        W27078   4.852  14.646  13.982 -0.2368 -0.1285 -0.1511
11948W        W27079  10.749  18.348  15.885 -0.1483  0.2186  0.0203
11949W        W27080   5.201  15.248  13.556  0.0309  0.0525 -0.3933
11950W        W27081   2.163  10.698   5.932 -0.0406 -0.0200  0.1278
11951W        W27082  16.054  10.855   9.882  0.0162  0.1038 -0.0472
11952W        W27083   2.937   0.266  15.064  0.0138 -0.2680  0.2295
11953W        W27084  15.212  10.139   2.688  0.3312  0.1981  0.1166
11954W        W27085   6.800  15.234  15.015  0.0144  0.4547  0.0032
11955W        W27086  11.643   7.361  10.560 -0.0240 -0.0004  0.0456
11956W        W27087  17.013   7.193   0.052 -0.4455 -0.0772 -0.0742
11957W        W27088   8.733  10.285   2.650 -0.2899 -0.0494  0.2098
11958W        W27089   6.386   5.655   5.657  0.2937  0.1275 -0.1049
11959W        W27090   6.574   2.542  14.445 -0.2323 -0.1487 -0.3312
11960W        W27091   5.400   5.916  10.179 -0.0966 -0.1405 -0.1486
11961W        W27092   1.260  11.893   4.901  0.2455  0.1711  0.1819
11962W        W27093   9.308   6.297  11.707 -0.0517 -0.1562 -0.1024
11963W        W27094   2.985  11.445  15.278  0.1918  0.2258 -0.0837
11964W        W27095   3.039  18.191   5.090  0.1263  0.2111  0.2076
11965W        W27096   0.060   5.398   4.209  0.0150  0.0677 -0.1916
11966W        W27097   6.253   4.453   5.003  0.0977  0.2919  0.0590
11967W        W27098   0.971  17.985   1.818 -0.1095  0.1178 -0.0122
11968W        W27099   9.660   5.134  13.781  0.0385 -0.5435  0.0774
11969W        W27100   6.246  12.668  11.043 -0.4540 -0.0228 -0.0571
11970W        W27101   1.798  13.432   4.069 -0.0308 -0.2766  0.0637
11971W        W27102   7.862  11.086  14.457 -0.0369 -0.0092  0.2013
11972W        W27103   9.330   3.417   2.622 -0.1072  0.1246  0.1665
11973W        W27104  13.228   4.139   4.846 -0.0340 -0.0608  0.1022
11974W        W27105   3.320   3.452   1.242  0.1775 -0.2945  0.5409
11975W        W27106   5.004   2.067   2.035 -0.3490  0.0096  0.5089
11976W        W27107  17.905   1.688  15.437  0.0244  0.1227  0.1408
11977W        W27108   6.165   0.030  13.991  0.0149 -0.3774 -0.0548
11978W        W27109   1.617   9.805   5.429 -0.0773 -0.0795 -0.1272
11979W        W27110   6.963   0.032  11.098 -0.0113  0.1782  0.0828
11980W        W27111   3.947   9.351   3.272  0.2240 -0.3454  0.0769
11981W        W27112   1.245   9.802   0.102 -0.2250  0.0063 -0.0029
11982W        W27113   8.958  15.474   2.836  0.0859 -0.1330  0.0405
11983W        W27114  17.323  11.597  14.954 -0.0426  0.1713 -0.0985
11984W        W27115  16.169  14.817   4.048  0.1357  0.0844 -0.0332
11985W        W27116  16.476  11.443  14.665 -0.0821  0.2346 -0.2402
11986W        W27117  15.638  10.624   0.638 -0.1537  0.0706  0.0519
11987W        W27118  10.242  14.554  13.537  0.0458  0.0691 -0.2493
11988W        W27119  15.344   8.819   6.739  0.0948  0.0642  0.2349
11989W        W27120  13.612   5.785   4.175 -0.0266  0.3097 -0.0989
11990W        W27121  10.863   1.461   2.461  0.2584  0.1160 -0.1986
11991W        W27122   0.281  17.176   3.311  0.2036  0.1426  0.0101
11992W        W27123  11.734  16.031  15.776  0.0179 -0.1587  0.1960
11993W        W27124   4.618   5.841  14.130 -0.2376  0.1111 -0.1557
11994W        W27125  10.546  10.262   2.746  0.2692 -0.2605  0.1788
11995W        W27126   9.128   0.209  13.933  0.1538  0.1290  0.2749
11996W        W27127  11.385   1.471  10.974 -0.0790  0.0633  0.0726
11997W        W27128   3.720   9.400   4.366  0.2367  0.2235 -0.0794
11998W        W27129   7.869  15.266  15.558 -0.2505 -0.3796  0.0381
11999W        W27130  17.659  17.814   4.177 -0.0239 -0.1586 -0.1967
12000W        W27131   2.015  15.599  12.419 -0.0282 -0.1354  0.1329
12001W        W27132  16.075  12.796   5.378 -0.3018 -0.3693 -0.1347
12002W        W27133  12.610  17.558  12.372  0.0620  0.0157  0.0782
12003W        W27134  17.975  11.564   0.172 -0.1509 -0.3095 -0.0547
12004W        W27135  12.522   0.008   2.845  0.1589 -0.0898  0.1428
12005W        W27136  15.715   1.255  13.496 -0.0693  0.1000 -0.0602
12006W        W27137   5.520   1.229  15.524 -0.2507  0.0359 -0.0010
12007W        W27138  17.318   3.813   5.808  0.0950  0.0846 -0.0437
12008W        W27139  15.736   5.018  14.896 -0.0799  0.1394  0.6182
12009W        W27140   0.459   5.611   3.239  0.0678  0.0823 -0.0404
12010W        W27141   8.495   7.915   5.096  0.0235 -0.3403 -0.0386
12011W        W27142   0.769  13.765  13.430 -0.0081 -0.2710 -0.0790
12012W        W27143  17.219   3.536   2.234  0.3219 -0.1618  0.0225
12013W        W27144  14.536   1.768   4.924 -0.0290  0.0077 -0.1891
12014W        W27145   5.555   5.460  12.578 -0.0615 -0.2846  0.0276
12015W        W27146  13.901  16.416   2.198 -0.2380 -0.4363  0.2157
12016W        W27147   6.250   8.405   3.917 -0.3474  0.1845 -0.0867
12017W        W27148   7.788   0.894   1.358  0.3977  0.0754  0.0015
12018W        W27149   2.383  15.775   0.573 -0.2470  0.0165  0.1380
12019W        W27150   4.644   2.459   2.916 -0.2010 -0.0587 -0.0360
12020W        W27151   6.805   3.672  12.427  0.3908  0.1684  0.0379
12021W        W27152  14.205   4.187   4.076  0.0161  0.2572 -0.2499
12022W        W27153  10.501  17.457   2.464  0.3027 -0.2115 -0.0683
12023W        W27154   0.306  14.532  10.773  0.3535  0.1455 -0.1888
12024W        W27155   7.265   2.707  12.267 -0.0617  0.1639 -0.0486
12025W        W27156  18.009   6.928  13.341  0.0340  0.2193  0.0521
12026W        W27157   1.484  13.924   1.437 -0.0358 -0.0309 -0.0067
12027W        W27158   7.302  10.584   1.056 -0.0877 -0.1592  0.0266
12028W        W27159  10.748  17.298  11.059  0.1530 -0.1633  0.1862
12029W        W27160   6.756   9.519  10.843  0.1471 -0.0756 -0.0998
12030W        W27161   6.815  17.567   0.717 -0.0527 -0.0579 -0.0109
12031W        W27162   1.167  11.286   1.366  0.3519  0.0554 -0.1331
12032W        W27163   6.094  17.396   2.564 -0.1265  0.0719  0.0481
12033W        W27164   2.459   1.609   5.150  0.0364 -0.0158 -0.1066
12034W        W27165   9.267  17.277   2.697 -0.1220  0.1834  0.3643
12035W        W27166  11.263   8.039   5.010 -0.1281 -0.2761  0.0113
12036W        W27167   8.680  17.129  14.387 -0.1093 -0.1886 -0.1102
12037W        W27168   9.222  10.935   3.386 -0.3741  0.1693 -0.2239
12038W        W27169  11.439   3.842   5.865 -0.2571 -0.3353  0.1963
12039W        W27170   8.117   8.471   2.762 -0.0681  0.2218 -0.4354
12040W        W27171   5.860  10.763  11.904  0.2014 -0.1166 -0.0818
12041W        W27172   5.756   0.819   4.099  0.1023 -0.1222 -0.2358
12042W        W27173  12.551   4.533  11.246 -0.1274  0.2627  0.0848
12043W        W27174   9.493   5.381  11.899 -0.0051 -0.1624  0.1390
12044W        W27175  11.058   5.360  13.463 -0.0643  0.0780  0.2951
12045W        W27176   8.120  14.076  12.040  0.1817  0.1574 -0.2977
12046W        W27177  16.867   1.505   0.727  0.1797  0.2781  0.0940
12047W        W27178   8.640  10.672   2.984 -0.3326  0.0840 -0.1421
12048W        W27179   1.825   7.677   1.289  0.4380 -0.3824  0.2074
12049W        W27180  16.681   8.751  13.220 -0.0277  0.1193  0.0375
12050W        W27181  15.980  12.124  15.170 -0.0147  0.1045 -0.0927
12051W        W27182   4.718   1.723   1.370 -0.1517 -0.0491  0.0571
12052W        W27183   3.369   8.531   0.784 -0.3408  0.1265 -0.0709
12053W        W27184   9.674   6.161  15.176 -0.0950  0.1515  0.4057
12054W        W27185   4.682  13.057  14.108  0.1013 -0.3808 -0.1757
12055W        W27186  12.270   5.051   1.142 -0.0513  0.0297  0.0546
12056W        W27187   7.293  17.863  15.005  0.1725 -0.2645  0.1777
12057W        W27188  17.926  13.588   0.206  0.3767 -0.3023  0.1545
12058W        W27189  13.055  16.270   1.948  0.1008 -0.1572  0.1236
12059W        W27190  14.639  12.599  15.129 -0.0649  0.0846 -0.0443
12060W        W27191  14.493  11.188  13.556 -0.1352  0.0734  0.0065
12061W        W27192  14.562   2.591  13.773 -0.3160 -0.1210  0.2388
12062W        W27193   5.911  15.570   2.078  0.0239  0.2186  0.0599
12063W        W27194  14.775  10.599   3.837  0.0486 -0.0191  0.0858
12064W        W27195   8.139  10.617   4.922  0.3491  0.0649 -0.0220
12065W        W27196  14.507  18.461  11.655  0.1864 -0.0940  0.1474
12066W        W27197  14.444   8.365   0.843  0.0376  0.0188 -0.3138
12067W        W27198   9.395  16.068  15.347 -0.0086 -0.1331  0.0500
12068W        W27199  15.808  16.697  10.906 -0.1487 -0.1375  0.0265
12069W        W27200  11.556  12.933  11.887 -0.0715 -0.2081 -0.3878
12070W        W27201   5.742   9.690  13.211 -0.2982  0.0814  0.4731
12071W        W27202  16.599   4.219  13.260 -0.3570  0.1181  0.1082
12072W        W27203  17.074  12.270  12.224 -0.1471 -0.0512 -0.1373
12073W        W27204   4.700   9.877   3.612  0.1966 -0.0510  0.2490
12074W        W27205   7.014   5.334   2.756 -0.0045 -0.5159  0.2049
12075W        W27206   6.796  16.481   3.074  0.2816  0.0395  0.1263
12076W        W27207   7.714  18.162   0.648 -0.0365 -0.0506  0.1222
12077W        W27208  11.439  14.355   2.733  0.1413  0.3704  0.4313
12078W        W27209   1.528   5.912   5.356  0.0449  0.0263  0.0195
12079W        W27210   6.991   8.410  15.034 -0.0442  0.2489  0.3509
12080W        W27211  12.347  14.924   1.667  0.1047 -0.3131 -0.0372
12081W        W27212  12.916   6.421  12.180 -0.1485 -0.1556 -0.0474
12082W        W27213   2.482   3.873  14.053 -0.1255 -0.2618 -0.2349
12083W        W27214   1.798  18.537  10.499  0.4065  0.2988 -0.0411
12084W        W27215   4.100  16.980   2.844  0.2888  0.0025  0.1695
12085W        W27216  16.869   5.059   4.311 -0.0822  0.0676 -0.1701
12086W        W27217   3.796   6.202  11.078  0.0900 -0.0818 -0.0641
12087W        W27218   4.924  17.946   4.508 -0.0406  0.1953  0.1174
12088W        W27219   9.716   1.105  12.562 -0.0760 -0.0243 -0.1596
12089W        W27220  18.237   0.641   0.157  0.0871  0.1439  0.0731
12090W        W27221   6.895   6.110  12.722 -0.1618 -0.0654 -0.1362
12091W        W27222  14.909  15.488   4.173 -0.1816 -0.0524 -0.1633
12092W        W27223   4.791  15.101   4.185  0.5059  0.0813  0.3104
12093W        W27224  10.939   3.204  14.458  0.0219  0.0398 -0.0850
12094W        W27225   7.885  10.001  14.917 -0.0662  0.0979  0.1533
12095W        W27226  16.566   9.428   5.368  0.0363 -0.3826 -0.1642
12096W        W27227   2.391   7.155   6.095  0.0082 -0.1631  0.1952
12097W        W27228  13.537   8.156  13.635  0.0231 -0.0890 -0.0855
12098W        W27229  18.174   8.050  11.648  0.0331 -0.3382  0.1054
12099W        W27230  18.464   6.001   2.034  0.1939  0.1641  0.2480
12100W        W27231   5.755  15.451  14.242 -0.0551  0.0511 -0.2051
12101W        W27232  10.526  13.367   2.959  0.0972  0.2113  0.2367
12102W        W27233  14.186  18.059  12.573 -0.0388  0.0761  0.2893
12103W        W27234  12.393   4.589   4.475  0.1327  0.0836  0.2354
12104W        W27235  13.646  12.160   4.836  0.2357  0.0923 -0.0293
12105W        W27236   5.117   5.555  13.399 -0.1960  0.2332 -0.1561
12106W        W27237  11.191   0.058  15.507 -0.1886 -0.1253 -0.0828
12107W        W27238   0.758  11.297  11.101 -0.0658 -0.1597 -0.0850
12108W        W27239  18.231   4.329  14.499  0.1127  0.0177  0.1796
12109W        W27240  15.260   7.009  11.523  0.1922 -0.1042  0.0416
12110W        W27241  17.177   0.137  15.663 -0.0217 -0.1371  0.0075
12111W        W27242  14.932  13.121   0.477  0.1475 -0.2447 -0.0916
12112W        W27243   0.484   9.090  11.265 -0.1800  0.0063  0.3720
12113W        W27244  13.607   9.872  13.421  0.2300 -0.0597  0.0939
12114W        W27245   1.948   6.764  11.157 -0.1591 -0.0535  0.2033
12115W        W27246  10.195   3.112  13.116 -0.1054 -0.1617 -0.1604
12116W        W27247   1.876  12.909   4.285 -0.0699  0.0344  0.0185
12117W        W27248   0.401   7.484   3.206 -0.3644  0.0782  0.1642
12118W        W27249  15.464   8.479  10.940  0.0725 -0.1768  0.0456
12119W        W27250  14.169   7.635  14.514  0.3591 -0.2142  0.1973
12120W        W27251  14.766  14.421  14.037 -0.1648  0.1232 -0.1686
12121W        W27252   1.694   6.419  14.106 -0.0088  0.1867  0.1143
12122W        W27253  10.833  12.787   2.475  0.0126  0.1342  0.3378
12123W        W27254  16.585  11.681  15.673  0.1528 -0.0899 -0.0281
12124W        W27255   0.323   1.915  13.820 -0.1241 -0.2591 -0.0199
12125W        W27256  16.301   7.245  14.054 -0.2716 -0.1968  0.0940
12126W        W27257  17.794   3.140   6.319  0.1306  0.0185  0.1608
12127W        W27258   7.677  11.566  14.666 -0.0894 -0.2566  0.4279
12128W        W27259   0.465   5.312  13.152 -0.1595 -0.0736  0.4238
12129W        W27260   1.473   9.172  11.947 -0.0722 -0.1964  0.3771
12130W        W27261   5.535   7.059  10.889  0.1447 -0.2397 -0.0922
12131W        W27262  18.227   3.601   2.170  0.0883 -0.3036 -0.0155
12132W        W27263   9.136  17.026  12.686  0.0199 -0.1489 -0.0233
12133W        W27264   2.446  14.797   2.658 -0.0731  0.0094 -0.1663
12134W        W27265   3.599  13.777  13.834  0.1402  0.2027  0.0557
12135W        W27266  18.048  11.105  14.562  0.1377  0.3074  0.0087
12136W        W27267   2.126  14.957   0.045  0.1888  0.1712 -0.2546
12137W        W27268  14.223   1.793  11.024 -0.3423  0.0043 -0.0945
12138W        W27269   8.262   3.775  15.695 -0.2044  0.0651 -0.0843
12139W        W27270   8.264  15.108   0.023 -0.0019 -0.0269 -0.1376
12140W        W27271  10.019  15.018  13.338  0.2627 -0.1648 -0.2635
12141W        W27272   1.614   0.537  14.462 -0.0146 -0.1403 -0.1417
12142W        W27273   5.535  15.926  14.701 -0.2305 -0.1556  0.1340
12143W        W27274  10.560   3.680  13.249  0.1452  0.0785  0.1004
12144W        W27275   4.390  11.289  12.967 -0.0408 -0.2341 -0.1824
12145W        W27276   7.567   8.002   3.546 -0.1856 -0.0281 -0.0615
12146W        W27277  11.112   1.683   5.813  0.1257  0.2669  0.2145
12147W        W27278  11.917   5.276  11.763  0.2463 -0.2901  0.0270
12148W        W27279  16.721  15.710   4.305 -0.3344 -0.0014 -0.0372
12149W        W27280  18.343  11.344  15.005 -0.0812 -0.2963 -0.0345
12150W        W27281   1.643   6.458   4.145  0.2136 -0.3778 -0.0585
12151W        W27282  12.447   8.590  11.281  0.1183  0.0209 -0.3297
12152W        W27283   5.784   6.443   0.219 -0.2323 -0.0046  0.0821
12153W        W27284   5.181   2.255   1.572  0.1184 -0.5518  0.0665
12154W        W27285   3.949  10.721  15.268  0.2229 -0.1105 -0.2749
12155W        W27286  13.477   1.069  13.892 -0.0253 -0.1057 -0.2265
12156W        W27287  13.184  15.747   3.137 -0.1135  0.1251  0.0800
12157W        W27288  16.208   0.773  13.638 -0.3617  0.0278 -0.1227
12158W        W27289   8.128   2.359  13.282  0.0401 -0.1522  0.2531
12159W        W27290   8.342   4.123  15.390 -0.0539  0.4142  0.1500
12160W        W27291  17.477  10.265  13.424  0.0319 -0.1450  0.0716
12161W        W27292  11.116  17.673   1.623  0.3023  0.1883  0.1802
12162W        W27293   2.686  18.325  13.702 -0.1838 -0.0985  0.0041
12163W        W27294   0.773   3.640   3.114 -0.0677  0.2328  0.0738
12164W        W27295   4.921   0.220   2.037 -0.2938 -0.1786 -0.2324
12165W        W27296   5.789   3.764  10.339 -0.0790  0.0437  0.3531
12166W        W27297  14.596  17.786  15.557  0.4097  0.0575 -0.0563
12167W        W27298  14.313   8.095   2.175 -0.1789 -0.0909 -0.3424
12168W        W27299  14.577   0.084   5.238 -0.3223 -0.1673  0.0254
12169W        W27300  11.852   3.929   0.150 -0.4306 -0.1568 -0.0475
12170W        W27301   9.061  13.681  11.933  0.1687  0.0939  0.0748
12171W        W27302  11.427  10.937   4.945  0.4823  0.1115 -0.1277
12172W        W27303   3.874  10.940   2.203  0.2644 -0.3321  0.2432
12173W        W27304   4.998   6.844   3.297  0.1957  0.1144  0.2927
12174W        W27305  13.014  17.607   4.011 -0.1219  0.2289  0.1214
12175W        W27306  16.842  10.674  15.854 -0.2615  0.2165 -0.0709
12176W        W27307   8.096  13.434  10.406 -0.2228 -0.4272 -0.2085
12177W        W27308   1.811  12.081   1.250 -0.0531  0.3247 -0.0415
12178W        W27309   0.294   5.599   5.159 -0.1595 -0.3547 -0.1633
12179W        W27310  14.716   8.383   2.664 -0.3638  0.0609 -0.2225
12180W        W27311   9.906   8.112  11.214  0.1714 -0.2107  0.1788
12181W        W27312  13.943  13.023   0.008 -0.0345 -0.0410  0.1341
12182W        W27313   4.579  11.742   3.322  0.0644 -0.4716 -0.2577
12183W        W27314  14.740  16.534  10.720  0.2665 -0.0292  0.0277
12184W        W27315  17.330  14.721  11.397 -0.3843 -0.1712 -0.1536
12185W        W27316   5.201   2.982  11.016  0.1708  0.0679  0.2667
12186W        W27317   1.650   2.259   0.503 -0.3625 -0.1161 -0.1580
12187W        W27318   4.087   8.506   2.052  0.1687 -0.0149 -0.0540
12188W        W27319   3.170  17.097  10.993  0.1767  0.1524  0.1465
12189W        W27320   2.928   0.172   4.174 -0.1469 -0.2372  0.0345
12190W        W27321  15.820  12.876   5.878  0.0461  0.0942  0.1702
12191W        W27322   4.521   9.076  14.481 -0.2247 -0.0600  0.1110
12192W        W27323   0.412  11.533  13.050 -0.1650 -0.4472 -0.3037
12193W        W27324   8.962   7.854  15.235 -0.0606  0.1638 -0.2075
12194W        W27325  14.480   0.687   0.308  0.1801 -0.0225  0.4071
12195W        W27326   3.668   8.912  13.607  0.1036  0.1798  0.1098
12196W        W27327  11.329  18.444   1.542  0.2803 -0.1704  0.0945
12197W        W27328   7.595   7.056  15.526  0.2847 -0.2551  0.2599
12198W        W27329   9.716   9.635   4.200 -0.2242 -0.0422 -0.0250
12199W        W27330  16.920   1.847  15.935  0.3538 -0.1057  0.3555
12200W        W27331   1.828   4.377   1.648 -0.3044 -0.1269  0.2051
12201W        W27332  12.845   8.134  12.010  0.0518  0.0855  0.2212
12202W        W27333  17.044   1.300  12.008 -0.2158 -0.1744  0.2804
12203W        W27334  16.688   9.865   1.969 -0.1097 -0.0799 -0.1583
12204W        W27335  11.723   5.566   0.924 -0.1018  0.1213 -0.3440
12205W        W27336  10.319  10.261  11.081 -0.0135  0.0319 -0.2147
12206W        W27337   0.090  13.833   1.405  0.0782  0.0444 -0.2869
12207W        W27338   1.176   1.647  11.746 -0.1659 -0.2612 -0.3424
12208W        W27339  18.094  14.965   0.631  0.0083 -0.1486 -0.1481
12209W        W27340  18.317  11.212   5.732 -0.1880  0.3804 -0.3044
12210W        W27341   8.209   2.538  11.770 -0.1464 -0.1032  0.1149
12211W        W27342  12.031   9.191  13.199 -0.1304  0.1132  0.0144
12212W        W27343   1.226   1.941   0.677  0.0717  0.1900  0.1133
12213W        W27344   9.663   5.094   4.079 -0.0392 -0.1830 -0.0139
12214W        W27345  17.066   6.563   1.031  0.2100  0.3427 -0.2410
12215W        W27346  10.930   4.916  15.825 -0.0888 -0.0081 -0.0822
12216W        W27347  15.147  12.772   4.598  0.5012  0.1984  0.0839
12217W        W27348  17.845  12.345  15.145 -0.0567 -0.0010  0.0164
12218W        W27349   2.773  10.389  12.852  0.3030  0.3657  0.2437
12219W        W27350   3.332   8.017   0.058  0.1133  0.2346  0.0572
12220W        W27351  16.899   0.021  11.233 -0.1202  0.2043 -0.2764
12221W        W27352  17.047   7.257   3.530 -0.0484  0.2178  0.0623
12222W        W27353  11.906   1.193   4.604 -0.2590 -0.0095  0.1253
12223W        W27354  15.782  11.304   2.621 -0.1072 -0.0781  0.2374
12224W        W27355   9.359   0.554  15.054  0.4108 -0.0752 -0.0954
12225W        W27356  13.007  11.762   2.891 -0.1704 -0.0766 -0.0120
12226W        W27357  10.814  16.882  10.435  0.2285 -0.1533 -0.0973
12227W        W27358  16.137   2.209   4.898  0.1465 -0.0845 -0.0603
12228W        W27359  10.940   6.603   5.226  0.2147  0.1491  0.1441
12229W        W27360  10.599   2.041  11.370 -0.2294  0.0393  0.0408
12230W        W27361  11.330   3.633   2.153  0.2325  0.1342 -0.1562
12231W        W27362   2.428  16.195  15.405 -0.2340 -0.2463 -0.1639
12232W        W27363  13.662  14.449  11.772  0.0379  0.0792  0.0986
12233W        W27364  10.832   3.080   1.088 -0.1723 -0.0487 -0.3320
12234W        W27365  10.995  13.245  13.016 -0.0610  0.2258  0.1311
12235W        W27366   2.556   9.367  15.632 -0.2463 -0.4138 -0.0045
12236W        W27367   7.517   9.546   5.348  0.0267 -0.2279  0.4737
12237W        W27368  10.030  15.030   1.812 -0.1762 -0.0433  0.0241
12238W        W27369   3.500   3.560  14.387  0.1267  0.1544 -0.0113
12239W        W27370   9.356  15.320   5.026  0.3635 -0.0148 -0.3201
12240W        W27371  15.808  14.534   4.681  0.0416  0.0501 -0.1620
12241W        W27372  10.947   0.067  11.027  0.4366 -0.1446  0.1134
12242W        W27373   7.867  14.987  15.065 -0.0289 -0.0464 -0.1690
12243W        W27374  10.976   2.289   5.053 -0.2068  0.2396  0.0798
12244W        W27375  13.304  14.041  10.985  0.3437  0.1772 -0.1643
12245W        W27376  12.741   5.932  12.165  0.2090 -0.0342  0.0305
12246W        W27377  16.424  17.021  13.015  0.2900  0.0813  0.1042
12247W        W27378   7.351   9.032  12.532 -0.0675  0.2007  0.1148
12248W        W27379   4.599  14.210   4.787  0.0164 -0.2861  0.0929
12249W        W27380   8.511   9.052   4.931 -0.1939  0.2197  0.1542
12250W        W27381   6.792   9.243  15.153 -0.1110 -0.0513  0.2158
12251W        W27382   0.610   4.081   3.015 -0.1039 -0.0800  0.1873
12252W        W27383   1.451   0.900   4.481 -0.3924 -0.3266  0.0151
12253W        W27384   8.747   1.261   3.825 -0.1377 -0.4277  0.3721
12254W        W27385   5.980  13.047   0.128  0.1747  0.2263 -0.0085
12255W        W27386  12.371   5.828   3.419 -0.0675 -0.0363 -0.1103
12256W        W27387  12.753   6.666   4.520 -0.0738  0.0522 -0.2362
12257W        W27388   3.823   9.639  11.918 -0.0759 -0.3601 -0.1717
12258W        W27389   2.222   2.087  11.346  0.3774  0.1742  0.0310
12259W        W27390   5.216   6.050  13.052  0.3534  0.0211 -0.0406
12260W        W27391  16.316  11.101  13.927  0.0925 -0.1196 -0.3282
12261W        W27392   4.306   2.610  13.717 -0.2049  0.0106 -0.0043
12262W        W27393  16.484  14.055   4.807 -0.3016  0.3401 -0.3643
12263W        W27394  16.461   9.638   4.356 -0.0923 -0.2760  0.0317
12264W        W27395   7.790   2.810   3.920  0.2034  0.0815  0.0276
12265W        W27396  14.202   4.102  15.469  0.5335 -0.2085  0.0129
12266W        W27397   7.182   2.089  11.913 -0.1303  0.0958 -0.1417
12267W        W27398  16.617  16.417   1.696  0.1500  0.2307 -0.0673
12268W        W27399  13.926   2.987   5.042 -0.0579  0.1966  0.0676
12269W        W27400   6.385   6.952   2.918  0.0773 -0.0820 -0.0736
12270W        W27401   3.452   8.488  14.785 -0.0896  0.0595 -0.0115
12271W        W27402   6.166  15.303   3.564 -0.1805  0.1025 -0.1986
12272W        W27403   6.035  11.504   1.359 -0.0928 -0.0050  0.2067
12273W        W27404   7.643  16.056  13.991 -0.0921  0.0806 -0.1921
12274W        W27405   2.197  16.519   5.644  0.4133 -0.1873  0.2325
12275W        W27406   7.879   9.501   3.568  0.2200 -0.2256 -0.1950
12276W        W27407   4.702  14.249  15.662  0.1144 -0.1826  0.0655
12277W        W27408  11.866  15.740   4.511 -0.1646 -0.0249 -0.0777
12278W        W27409  14.958   0.408  15.240 -0.2646  0.1333  0.0275
12279W        W27410   8.675  15.495   1.626 -0.0196  0.4253 -0.0118
12280W        W27411   5.670   3.437   3.539 -0.2654  0.1214  0.0597
12281W        W27412   6.859  11.140  13.370  0.1121 -0.0399  0.0492
12282W        W27413   2.190   7.128   3.959 -0.2422 -0.4397 -0.2100
12283W        W27414  10.546  12.121   5.094  0.0902  0.0968  0.2716
12284W        W27415   2.289  12.125  11.111  0.5097  0.2090 -0.2483
12285W        W27416  16.511   8.912  11.210 -0.1937 -0.2548 -0.2083
12286W        W27417   6.833  13.718   1.973  0.1166  0.2389 -0.1772
12287W        W27418  16.610   7.022   2.730 -0.0752  0.0378  0.0254
12288W        W27419   7.320   7.898  13.151  0.2752  0.1521 -0.0790
12289W        W27420   6.379  14.381  10.648  0.1810  0.0530  0.0138
12290W        W27421   8.798  10.075   5.412  0.1897  0.3812  0.1791
12291W        W27422  10.639  15.647  11.774 -0.2794 -0.0824 -0.0030
12292W        W27423  17.624   8.747   5.784 -0.3608  0.0877  0.1364
12293W        W27424  14.457   7.244   2.939 -0.1165 -0.1240  0.3183
12294W        W27425  10.841   7.641  11.203 -0.1089  0.0514 -0.1025
12295W        W27426  11.068   9.990   0.889 -0.0712  0.2988 -0.0674
12296W        W27427  16.843   5.864  11.930  0.1491 -0.3159 -0.3013
12297W        W27428  15.738   0.422  15.695  0.1434  0.2419  0.1604
12298W        W27429   6.004   3.013   1.824  0.1237  0.4339  0.1779
12299W        W27430   7.733  12.357   4.854 -0.0050 -0.1566  0.3339
12300W        W27431   0.021  12.962  14.695 -0.3467 -0.0041 -0.0413
12301W        W27432   9.280  15.705   5.470  0.2096 -0.0949 -0.0110
12302W        W27433  10.774   1.207  10.920 -0.3243  0.4937  0.0644
12303W        W27434  13.614  13.033  13.672 -0.2769 -0.1618  0.2734
12304W        W27435  17.390   8.558   3.142 -0.0422 -0.2034  0.0865
12305W        W27436   8.150  17.560  11.664  0.0806  0.3510 -0.0122
12306W        W27437  13.321  10.939   3.675 -0.1763 -0.0413 -0.2526
12307W        W27438  13.239  13.583  14.044 -0.0911 -0.1390 -0.1008
12308W        W27439   3.734  11.675   9.720 -0.2032 -0.1053  0.0398
12309W        W27440   8.916   7.629   0.158 -0.0091  0.2409  0.3493
12310W        W27441   7.534   4.486   0.849 -0.0197 -0.0802 -0.1434
12311W        W27442   7.940   7.778   1.738  0.2081 -0.1616  0.1443
12312W        W27443  12.272  14.007  11.220 -0.1727  0.2702 -0.1011
12313W        W27444  10.440   5.182   5.259 -0.2832  0.3124 -0.1567
12314W        W27445   1.485   8.105  14.220  0.2212  0.4056 -0.1995
12315W        W27446  11.915   6.229   3.658 -0.1879  0.1190  0.2149
12316W        W27447   7.414   9.492  12.878 -0.0535 -0.0325  0.4110
12317W        W27448   4.799   0.743   2.321 -0.3342 -0.0400  0.0637
12318W        W27449  10.340   8.974   0.221  0.1550 -0.1280 -0.0330
12319W        W27450  10.370   8.208  12.520 -0.1086 -0.0165  0.1194
12320W        W27451   8.500  13.036   2.851 -0.0087  0.1669 -0.3409
12321W        W27452  11.896   0.497   9.773  0.3492 -0.1448 -0.1118
12322W        W27453   7.323   6.788   0.635  0.0428  0.2608  0.0777
12323W        W27454  11.956  18.308  13.193  0.0213 -0.3810 -0.1943
12324W        W27455   0.991  10.401   1.870 -0.3373  0.4339 -0.1715
12325W        W27456  12.908   4.547   2.109 -0.0699 -0.1231  0.0179
12326W        W27457   1.070   1.000   3.686 -0.2937 -0.0959 -0.3141
12327W        W27458  13.057  10.570  13.852  0.3167  0.2026 -0.3065
12328W        W27459  18.091  17.306  12.042  0.0119  0.0107  0.1976
12329W        W27460  14.777  10.744  13.381 -0.1647 -0.5381  0.0318
12330W        W27461   9.515  17.023   4.871 -0.0274 -0.2568  0.2657
12331W        W27462   7.471  10.946  14.148 -0.0100 -0.0924 -0.0158
12332W        W27463   2.398   3.878  15.885 -0.4485 -0.0834  0.1841
12333W        W27464  10.994  16.495   5.233 -0.0982 -0.0298 -0.2037
12334W        W27465   0.743   4.639   4.171  0.1434 -0.2959  0.1502
12335W        W27466  15.331   5.155   3.299  0.3122  0.2724  0.0965
12336W        W27467  13.266  16.377  12.418 -0.2418  0.0508  0.0696
12337W        W27468   6.091   2.405   3.519 -0.3891 -0.1630 -0.0585
12338W        W27469  10.979  10.274  15.026 -0.0199 -0.0594 -0.0530
12339W        W27470  15.428  11.848  15.579 -0.0082 -0.0848  0.1622
12340W        W27471   1.767   5.224  12.038  0.3040 -0.2779  0.0308
12341W        W27472   3.686  15.560   3.851  0.1946 -0.2565 -0.1402
12342W        W27473   9.110  14.145   0.579 -0.0475 -0.1575  0.1205
12343W        W27474  14.103  15.192   2.940  0.1824  0.0204  0.0665
12344W        W27475   1.903  13.526  12.776 -0.5364  0.0607  0.0075
12345W        W27476  18.325  17.009   2.573 -0.2566 -0.0391 -0.0624
12346W        W27477   2.098  11.406   3.149 -0.2709  0.1696  0.1738
12347W        W27478  18.053   7.138   6.427 -0.0683  0.0603  0.2116
12348W        W27479   9.062   0.672   5.485  0.3913 -0.2530  0.0534
12349W        W27480   3.846   8.146  14.489 -0.0694 -0.0556 -0.2527
12350W        W27481  15.649   3.840   0.382  0.0933 -0.0044  0.4199
12351W        W27482   8.184   7.958  13.561  0.2926  0.0054 -0.0166
12352W        W27483   6.932  16.789  13.202 -0.0485 -0.2923  0.3687
12353W        W27484  13.187   7.456  10.972  0.0227 -0.1013 -0.2618
12354W        W27485   0.881  11.657   1.708 -0.0248  0.0785  0.1844
12355W        W27486   0.709   1.723   3.079 -0.2194 -0.2626  0.1511
12356W        W27487  10.727  11.741   4.766 -0.0498 -0.0403  0.0289
12357W        W27488   2.227   5.735   0.450  0.0336 -0.0686  0.0927
12358W        W27489  14.517   2.532   3.936  0.0787 -0.0241 -0.0712
12359W        W27490   4.047   1.555   0.830 -0.1973 -0.2772 -0.1329
12360W        W27491   2.885   7.613   3.211 -0.2146  0.0611  0.1283
12361W        W27492  10.656  14.453   3.403  0.0864 -0.3502  0.0281
12362W        W27493  17.716  13.994  10.900 -0.0090  0.1351  0.0182
12363W        W27494   4.533   7.908   5.833 -0.1699 -0.1434  0.0585
12364W        W27495  11.261  14.076  10.333  0.1538  0.4149 -0.4386
12365W        W27496  12.281   5.251  11.066 -0.0977 -0.0200 -0.3749
12366W        W27497  13.619  15.503  15.762  0.2736  0.0723 -0.3660
12367W        W27498  18.547  12.105   5.740 -0.3128 -0.0296  0.2223
12368W        W27499   5.402  17.213   3.787  0.2417  0.1730  0.0909
12369W        W27500   9.835   8.034   1.722 -0.2764 -0.3703  0.1790
12370W        W27501  12.952   9.208   4.175  0.0085  0.3283 -0.1760
12371W        W27502   5.295  15.258  11.921  0.1692 -0.1929 -0.1997
12372W        W27503   0.967  16.636  14.048  0.3575  0.0776 -0.0258
12373W        W27504  16.997  17.340   3.701 -0.0369  0.1245  0.3504
12374W        W27505   0.303  10.801   0.595 -0.1193  0.0682  0.0509
12375W        W27506   8.909   4.284  11.726 -0.1800 -0.0380 -0.1078
12376W        W27507   8.349   6.927  12.657 -0.3056  0.1937 -0.3322
12377W        W27508  15.744  13.351   1.354 -0.1147  0.0613  0.0087
12378W        W27509   3.010   0.471   3.773  0.3765 -0.3121  0.2917
12379W        W27510  12.643   6.385   1.180  0.1355  0.0449 -0.3808
12380W        W27511  11.328   0.540   9.859  0.3475  0.1374  0.0645
12381W        W27512   3.421   8.855  15.756 -0.1628 -0.2107 -0.2054
12382W        W27513   9.996  16.802  14.264 -0.0160 -0.1925 -0.4408
12383W        W27514   3.383   4.936   4.389  0.4016  0.0026 -0.0272
12384W        W27515  15.626   7.042   2.337  0.1389  0.1614  0.0196
12385W        W27516  11.430  13.222  13.793  0.0585  0.2797 -0.2061
12386W        W27517  15.913  16.262   3.120  0.0672  0.1891  0.3494
12387W        W27518   3.732   3.095   0.599  0.0918 -0.2452 -0.0673
12388W        W27519   2.667  13.540   1.772 -0.2029  0.2311  0.0625
12389W        W27520  12.916   6.400  12.858  0.0532  0.0801  0.0210
12390W        W27521   4.083  11.978   4.317  0.1429  0.0454 -0.1399
12391W        W27522   2.795   2.856   4.538 -0.3140  0.0156 -0.3303
12392W        W27523   7.440   1.904  10.216  0.0458  0.1002  0.0684
12393W        W27524   0.922   9.879  14.282  0.4496  0.1125 -0.1778
12394W        W27525  15.979   3.188   0.583 -0.0157  0.0074  0.1060
12395W        W27526  16.726   3.397  10.901 -0.0762  0.1584  0.0079
12396W        W27527   1.491  14.826   1.806  0.3616  0.0943 -0.0023
12397W        W27528  15.207   1.420  12.185 -0.3287  0.0975 -0.2507
12398W        W27529  17.374   7.405   0.677  0.1643  0.2323 -0.0577
12399W        W27530  18.458  13.515  13.418  0.2654 -0.0872 -0.0783
12400W        W27531  12.488  15.370   3.928 -0.0870  0.1901 -0.0936
12401W        W27532   5.229   0.025  14.093 -0.0155  0.0858 -0.3472
12402W        W27533  16.630  13.911   1.686  0.1361 -0.1553  0.2407
12403W        W27534   3.579   1.362  11.841 -0.1014 -0.2514 -0.3674
12404W        W27535   1.494  14.545  11.998 -0.2048  0.3333 -0.1482
12405W        W27536  15.117   6.234  12.641 -0.0682 -0.2734 -0.0453
12406W        W27537  17.297  11.363   1.196  0.2061  0.1900  0.2042
12407W        W27538   9.887   9.346   3.696  0.0949  0.0627 -0.0746
12408W        W27539   9.830   6.748  12.975  0.2432  0.1192  0.0487
12409W        W27540  18.379   9.482  12.749 -0.1667  0.4913  0.2705
12410W        W27541  11.965  16.765  14.915  0.0919 -0.3127 -0.0534
12411W        W27542   0.308   6.641   3.161 -0.1489 -0.0626  0.2793
12412W        W27543   1.512   7.885  15.444 -0.1714  0.2164 -0.0311
12413W        W27544  13.584   1.574   3.027  0.2212 -0.1129 -0.0334
12414W        W27545  13.607  17.179   0.843 -0.0304  0.1550  0.1502
12415W        W27546   0.286   3.041  13.171 -0.0247  0.1551 -0.1389
12416W        W27547   1.609  12.668   4.625  0.4457  0.0460 -0.2020
12417W        W27548   9.247   5.225   2.093 -0.3226 -0.0794 -0.3837
12418W        W27549  12.927   3.038   0.486  0.2009  0.2472  0.4313
12419W        W27550  15.633   7.870   0.956  0.1187 -0.0692  0.4347
12420W        W27551   2.401   5.870   4.614 -0.1623  0.1554  0.1869
12421W        W27552   6.854   8.761   2.403 -0.0256  0.0212  0.0196
12422W        W27553   1.243   3.782   4.959  0.0232 -0.4300 -0.1144
12423W        W27554   8.912   6.792  14.366 -0.0092 -0.3213  0.0213
12424W        W27555  16.408  17.610   4.729  0.2714  0.2437  0.1246
12425W        W27556  10.657   6.864   4.521  0.1865 -0.1784 -0.4188
12426W        W27557   0.007  15.958  14.363  0.2163  0.0991 -0.1841
12427W        W27558  10.739   3.437   1.380  0.0283 -0.0131 -0.1072
12428W        W27559   6.345   0.081   0.434  0.0473 -0.0856  0.2008
12429W        W27560  11.394  10.669  12.734  0.0247  0.2313 -0.1870
12430W        W27561  15.843  14.468   4.164  0.0836 -0.1903  0.1197
12431W        W27562  15.271  15.395  15.098 -0.2174 -0.4525 -0.2664
12432W        W27563   0.754  10.519   0.737 -0.2884  0.2024 -0.1520
12433W        W27564  15.208   7.890  11.299 -0.1724  0.1608 -0.0503
12434W        W27565  12.311  13.546  11.531  0.1694  0.2485  0.0617
12435W        W27566  10.472  16.335  10.391  0.1914 -0.2141  0.2584
12436W        W27567  18.247   2.818  11.766 -0.1888  0.0013 -0.1075
12437W        W27568  12.575   7.675  12.772  0.1181 -0.1874  0.2734
12438W        W27569   3.060   4.826  14.724 -0.1496 -0.1732 -0.3344
12439W        W27570   6.976  17.143   3.672 -0.1072  0.2585 -0.1149
12440W        W27571  12.699  15.951  13.532 -0.0410  0.4578 -0.2287
12441W        W27572   9.431  13.398  11.999 -0.1003  0.1636 -0.1969
12442W        W27573   9.082  15.174   0.713 -0.0929  0.2542 -0.0991
12443W        W27574   3.116   0.550   4.656 -0.0055 -0.3834  0.0980
12444W        W27575   7.979   8.538  12.692 -0.2807  0.0828 -0.1388
12445W        W27576  15.326  12.091   2.294  0.1344 -0.1388  0.0201
12446W        W27577  12.689   5.737   3.034  0.0886 -0.0880  0.2948
12447W        W27578  15.600   2.798   0.480  0.3434  0.4020 -0.3896
12448W        W27579  11.789  15.528  10.434  0.0946 -0.2270  0.2632
12449W        W27580  17.395  11.928  13.516 -0.0629 -0.0360 -0.1201
12450W        W27581   7.344   4.752   0.490  0.2084  0.4342  0.0996
12451W        W27582  15.257   8.895   0.891 -0.0695  0.0548 -0.0056
12452W        W27583   6.157  11.373  14.046 -0.0328 -0.1307 -0.0548
12453W        W27584  10.031   2.880   2.883 -0.0770 -0.1827  0.2439
12454W        W27585  17.532   6.736   6.088 -0.1278 -0.0798 -0.2723
12455W        W27586   4.272   3.177  12.488 -0.1293  0.2368  0.0982
12456W        W27587   8.583  15.119   0.414 -0.1405  0.3698 -0.0333
12457W        W27588   0.890   0.893  12.790 -0.2002 -0.1608 -0.1547
12458W        W27589   8.938   5.115  15.028  0.2706  0.0342  0.3871
12459W        W27590   4.530   9.664  14.784  0.1474 -0.2407  0.3646
12460W        W27591  10.320  15.370  11.526  0.1631  0.2133 -0.2525
12461W        W27592   2.380   0.660  10.475  0.2333 -0.1640  0.2060
12462W        W27593   1.745   2.828   0.433  0.0218  0.1276 -0.1789
12463W        W27594  13.401   0.810   0.542 -0.0678 -0.1905 -0.1424
12464W        W27595   4.693   4.166  13.670  0.2093 -0.2700  0.0311
12465W        W27596   9.904  10.732  10.529 -0.4049 -0.2016 -0.2860
12466W        W27597   8.084   9.091  15.361 -0.0804 -0.0011  0.1534
12467W        W27598   6.318  17.837   2.601  0.1605  0.2351  0.0282
12468W        W27599   7.005  13.062   1.738  0.4860 -0.0147 -0.0966
12469W        W27600   4.700   5.642   0.189  0.0944 -0.0203  0.1794
12470W        W27601  16.215  11.554  11.912  0.1189 -0.0937 -0.1411
12471W        W27602  14.848   6.902   1.492 -0.3215  0.0219  0.3030
12472W        W27603  11.339   5.181   0.884 -0.0138 -0.1447  0.0437
12473W        W27604  10.238   6.283  10.907  0.3943  0.2202 -0.2704
12474W        W27605  16.728   9.890   5.339  0.1735 -0.2787  0.1464
12475W        W27606  12.530   8.438   0.065 -0.1772  0.1166 -0.1593
12476W        W27607  15.198   7.279   0.578  0.2600 -0.1803 -0.1488
12477W        W27608   7.755  11.071   3.297  0.0794  0.0282  0.2625
12478W        W27609  14.072   1.612   1.288  0.0949 -0.0141 -0.2538
12479W        W27610  13.195  16.009  14.588  0.4647 -0.0198 -0.2214
12480W        W27611   6.367   5.500  15.438 -0.1677 -0.0327 -0.2727
12481W        W27612   0.517  13.498   1.659  0.0989 -0.4101 -0.0711
12482W        W27613   5.971   5.803  13.741  0.1339 -0.1994  0.0248
12483W        W27614  14.021  14.472   4.296  0.1854  0.0752 -0.0139
12484W        W27615   3.172  11.898   1.662  0.0409  0.2359 -0.0751
12485W        W27616   3.390  16.650  13.428 -0.1790  0.1876  0.1950
12486W        W27617  16.311   5.367  11.527 -0.2532 -0.0127  0.0034
12487W        W27618   9.097   3.575  14.485  0.2492  0.1467 -0.0793
12488W        W27619   8.165  12.668  15.222  0.0357  0.0054  0.0951
12489W        W27620   2.272   6.540  13.915 -0.1532 -0.2907  0.2803
12490W        W27621  17.104   0.568  14.995 -0.0875 -0.2151 -0.1771
12491W        W27622  16.180  10.227  14.995 -0.0864  0.2943  0.1811
12492W        W27623   8.568   8.909   1.514  0.1411 -0.0398  0.1453
12493W        W27624   2.952   5.803  14.073 -0.1623 -0.1615 -0.1625
12494W        W27625   4.986   6.601  15.151  0.0310 -0.2394  0.1298
12495W        W27626   8.908  10.014  15.466  0.2425  0.2106 -0.2615
12496W        W27627   6.312   8.985   2.393 -0.0949 -0.0562 -0.0008
12497W        W27628   8.245   8.550  14.375 -0.0595 -0.2431 -0.0307
12498W        W27629  16.776   7.305   6.341 -0.1229 -0.2743 -0.1926
12499W        W27630   7.850   1.983  14.506  0.2755  0.2228  0.0665
12500W        W27631   4.369  11.240  14.133 -0.0402 -0.1391 -0.3118
12501W        W27632   5.147   4.158  13.356  0.0115  0.3336  0.2504
12502W        W27633   6.191   0.084  11.464  0.2176 -0.1934 -0.1420
12503W        W27634   3.354   2.434  13.672 -0.1070 -0.4124  0.0520
12504W        W27635   2.722   3.840  12.850  0.0399 -0.2552  0.1341
12505W        W27636   3.134   9.955  10.513  0.1920 -0.1440  0.1962
12506W        W27637  11.787  17.032   2.794  0.3504  0.0193 -0.1572
12507W        W27638  15.784  16.039   2.699 -0.0361  0.2633 -0.3126
12508W        W27639   4.306  11.474  15.199 -0.0640  0.0783  0.4914
12509W        W27640   9.340   5.824   5.717  0.1189 -0.0780 -0.0703
12510W        W27641   4.216  12.155   5.241 -0.0373 -0.1267  0.1384
12511W        W27642  12.614  15.083   4.700  0.1489 -0.0530 -0.1899
12512W        W27643   5.855   5.742  12.235  0.2749 -0.2507  0.1237
12513W        W27644   4.213   5.851   0.804 -0.2563 -0.0177  0.2827
12514W        W27645  16.230   3.200   5.452  0.1772 -0.5542  0.0274
12515W        W27646   9.770   4.568   5.380  0.0635 -0.3993  0.1074
12516W        W27647   8.425   4.281   4.943  0.3127  0.0121 -0.1277
12517W        W27648  15.966   9.872  14.714 -0.0483  0.0359  0.2602
12518W        W27649  16.830  16.974  13.645  0.0992 -0.1357  0.0065
12519W        W27650   1.846  14.095  14.675  0.2992  0.2882 -0.1106
12520W        W27651  18.562   3.294   0.485  0.1042  0.0043  0.0388
12521W        W27652   7.558  14.840  14.259  0.2702 -0.5396  0.0813
12522W        W27653  11.837  17.606   3.342  0.2957  0.2660 -0.1638
12523W        W27654  15.937  11.080  12.669  0.1462  0.1316 -0.1363
12524W        W27655   4.908   6.312   5.348 -0.2810 -0.2234 -0.0755
12525W        W27656   3.559  13.794  15.848  0.0259  0.0187  0.1439
12526W        W27657  10.310  15.474  13.491  0.1924 -0.1699  0.1769
12527W        W27658   3.855   8.389   0.625 -0.1484 -0.1622  0.1312
12528W        W27659  16.856   1.343  11.566 -0.0369 -0.1315  0.3514
12529W        W27660   4.514  10.925   4.742  0.1100 -0.0196  0.2791
12530W        W27661  14.618  17.382   3.619  0.1635 -0.5873 -0.2921
12531W        W27662  15.998  14.779   1.085  0.1627  0.1811 -0.0285
12532W        W27663   7.321  16.857  12.210 -0.0114  0.1262 -0.0804
12533W        W27664  15.426   8.950   0.146  0.3143  0.2480 -0.0252
12534W        W27665  17.124   7.211   5.262 -0.1579 -0.0372  0.3721
12535W        W27666  10.147  16.511  15.123 -0.0684  0.0231  0.1621
12536W        W27667  17.816  18.014  15.013  0.2493  0.0994  0.0568
12537W        W27668   3.709  13.821  11.477  0.1387 -0.0703  0.0799
12538W        W27669  10.243   3.003   4.754  0.1430  0.0066 -0.2027
12539W        W27670   5.931   3.705  14.412 -0.3831 -0.1403 -0.0891
12540W        W27671   5.866   3.859  12.224  0.3621 -0.2976 -0.0813
12541W        W27672   8.647  17.625  14.758  0.0877  0.0543 -0.0172
12542W        W27673   3.922  13.393  14.692 -0.1934 -0.1330  0.0079
12543W        W27674   4.941   5.774  14.560  0.0066  0.0423  0.2393
12544W        W27675   3.673  11.686   2.710  0.3789  0.1576  0.1472
12545W        W27676   4.590   3.944   2.471 -0.3654  0.2087 -0.1180
12546W        W27677  14.416  14.051   5.483  0.1404 -0.2446  0.4020
12547W        W27678  14.076  15.619  13.272 -0.1457 -0.4376  0.0167
12548W        W27679   9.917   9.435   1.527 -0.1627  0.2338  0.0362
12549W        W27680  12.655  12.863  13.257 -0.0647  0.0076 -0.4998
12550W        W27681  10.554  16.703   4.133  0.0034 -0.2291 -0.0793
12551W        W27682  18.479   9.191   2.367 -0.1608 -0.1954 -0.2107
12552W        W27683  13.677   7.036  11.245  0.0636  0.0192  0.3842
12553W        W27684   2.613   2.214  13.133  0.1194 -0.3326 -0.1695
12554W        W27685  10.197  10.639  15.147  0.0867  0.2232 -0.2539
12555W        W27686   7.831  17.359  10.447  0.0972  0.1169 -0.2020
12556W        W27687  18.385  17.809  15.796  0.2476 -0.0270  0.1614
12557W        W27688  14.551   2.291   1.715  0.1434  0.1227  0.3327
12558W        W27689   2.563  15.674  10.639 -0.0704 -0.4398  0.0831
12559W        W27690   0.446   6.723  15.491 -0.1012  0.4093  0.0074
12560W        W27691   8.551  10.525  14.449 -0.0766  0.2515 -0.0766
12561W        W27692   8.779   6.188  12.732 -0.1829 -0.3575  0.1828
12562W        W27693  17.811  14.370  12.917  0.1773 -0.2172 -0.1979
12563W        W27694  16.650   8.134   0.990  0.0764 -0.0311  0.3402
12564W        W27695  16.134   9.846   1.571  0.0482 -0.0645  0.0788
12565W        W27696  18.545  10.552  11.840 -0.0367  0.0356 -0.2618
12566W        W27697   4.777   0.485  15.707 -0.1494  0.3264 -0.0523
12567W        W27698   3.461   7.853  13.585 -0.1505 -0.1387 -0.0587
12568W        W27699   3.856   4.889   9.720 -0.5235  0.0997  0.0610
12569W        W27700   4.173  13.409  10.591 -0.1580 -0.2907  0.2532
12570W        W27701  16.981   3.173   2.478 -0.1181 -0.1956  0.3966
12571W        W27702  17.850   0.296  12.660 -0.0295 -0.0943  0.0483
12572W        W27703  17.750   2.637  13.643 -0.0201 -0.2692  0.0353
12573W        W27704   2.188  11.158   1.474  0.1344 -0.3035 -0.0044
12574W        W27705   0.423   3.477   0.973  0.0205 -0.3196 -0.0328
12575W        W27706  14.006  15.562   1.689 -0.1600  0.1888  0.1779
12576W        W27707  14.652  12.826   4.582 -0.0157  0.3730 -0.0412
12577W        W27708  10.489   9.071  12.953 -0.1215 -0.0983 -0.1220
12578W        W27709   3.016  16.187  13.338  0.1364 -0.0064  0.1501
12579W        W27710   1.989  14.083   3.271 -0.0347 -0.0126  0.4338
12580W        W27711   2.799  17.958  12.940 -0.1620  0.0916  0.0409
12581W        W27712   6.857  11.425   4.514 -0.0249  0.0093 -0.0491
12582W        W27713   0.031  12.480   1.956  0.0141 -0.1495  0.0640
12583W        W27714   8.425   0.740  15.896  0.0231  0.2014 -0.0293
12584W        W27715   6.017   0.604   2.650 -0.2498 -0.0341 -0.1035
12585W        W27716  13.427   3.806  13.337  0.2058 -0.1043 -0.2515
12586W        W27717   9.278   3.855   3.137  0.1820 -0.2453  0.0171
12587W        W27718   6.070   8.014   1.083 -0.3093 -0.2265  0.2944
12588W        W27719   5.919  12.035  15.269  0.0165  0.1422  0.1885
12589W        W27720  10.030  15.731   9.213  0.2571  0.3516  0.0722
12590W        W27721   1.343   2.865   1.192 -0.0848  0.4707  0.0722
12591W        W27722   2.546  17.205  15.482 -0.0353 -0.0544  0.0193
12592W        W27723   4.676   3.022  12.874 -0.0681  0.3444 -0.1398
12593W        W27724   4.847  10.456  12.038 -0.2741  0.1325 -0.0497
12594W        W27725  14.835   0.969   5.997  0.0983 -0.2202 -0.0326
12595W        W27726   9.933  14.279   5.204 -0.0806  0.1202 -0.1472
12596W        W27727   0.477  11.151   3.396  0.1901 -0.2035  0.1828
12597W        W27728  10.724   9.557  13.341  0.1476  0.1953  0.0660
12598W        W27729   5.104   3.588   6.145 -0.1314  0.2895 -0.3240
12599W        W27730   4.793  13.666   1.159 -0.2213 -0.1829 -0.4536
12600W        W27731  11.795   4.993   1.071  0.0580 -0.0349  0.0741
12601W        W27732  17.651  12.166   4.198  0.0556 -0.1981  0.2658
12602W        W27733   7.947   2.164  13.729  0.1705 -0.2010 -0.2298
12603W        W27734  13.859  18.414  15.138  0.2500 -0.0833 -0.0358
12604W        W27735   4.306  12.155   3.346 -0.0953 -0.0099  0.0203
12605W        W27736   7.262   5.087  10.351 -0.1602  0.1667  0.0116
12606W        W27737  11.632   8.889   1.066 -0.2260 -0.0420  0.0831
12607W        W27738  12.836   0.243   1.058 -0.2192 -0.0143  0.1596
12608W        W27739   1.959  10.618   3.697  0.0028  0.0377 -0.2997
12609W        W27740   7.049  15.997  15.362  0.2435 -0.0978 -0.1393
12610W        W27741  18.011  14.247   4.426 -0.0367 -0.1209  0.2451
12611W        W27742  14.142   5.741   0.713 -0.1426  0.3167 -0.1786
12612W        W27743   6.097   2.653   1.546 -0.1790 -0.0405 -0.0183
12613W        W27744  16.070  16.985  11.824 -0.3387  0.2110  0.2794
12614W        W27745  10.492  17.527  12.253  0.0807  0.0963  0.2834
12615W        W27746  13.594   9.589   2.867 -0.0377 -0.3264  0.1093
12616W        W27747   7.054   5.978  11.008  0.1133 -0.1241 -0.0000
12617W        W27748  15.116  10.057   3.494  0.2070 -0.0154  0.0927
12618W        W27749  14.552  15.912   1.072  0.0954 -0.2374 -0.0618
12619W        W27750  15.193   3.718   0.325 -0.1275 -0.0410 -0.2385
12620W        W27751  14.478   4.408   0.332  0.0886  0.1257 -0.3871
12621W        W27752   1.206   8.039   2.044 -0.2451  0.0382  0.2081
12622W        W27753   8.337  11.724  13.471 -0.1005 -0.1452 -0.0120
12623W        W27754  13.238  15.937   4.954  0.0559  0.2057 -0.2729
12624W        W27755   9.223   7.253   4.595  0.2185  0.2851  0.1847
12625W        W27756  17.264   5.604  14.265  0.0418  0.0445 -0.0626
12626W        W27757   7.340   0.738   5.249 -0.2330  0.2010 -0.1794
12627W        W27758  17.917   8.249   2.330  0.0305 -0.1344  0.1782
12628W        W27759   5.192   3.494  10.905  0.0668  0.1549 -0.0383
12629W        W27760  18.071   3.636   5.110  0.2521  0.2985 -0.0601
12630W        W27761   9.616  15.770   4.931  0.2134  0.1333 -0.0066
12631W        W27762   1.669  14.575  14.610 -0.0742  0.0876 -0.0093
12632W        W27763   9.030  14.061   1.946 -0.0251  0.2148 -0.0983
12633W        W27764   0.531  15.620   5.498  0.1226 -0.2679  0.1088
12634W        W27765  16.258  13.061  13.005 -0.0486 -0.1080  0.2114
12635W        W27766   7.050  17.484  15.355 -0.3338 -0.1465 -0.3376
12636W        W27767   0.855  14.716   4.330 -0.2327 -0.0384  0.0614
12637W        W27768   6.299   0.915   1.933 -0.1184 -0.1173  0.0117
12638W        W27769  18.009   5.845   5.615 -0.1432 -0.2119 -0.2376
12639W        W27770   9.188   9.594   4.124  0.0159 -0.0469  0.0129
12640W        W27771  17.749   8.690   1.564 -0.4456  0.0943 -0.1545
12641W        W27772  13.785   9.753   1.322  0.1003  0.0596 -0.3011
12642W        W27773  11.413   3.728  14.357 -0.0334  0.0350 -0.0299
12643W        W27774   1.322  14.906  13.648 -0.3079 -0.0902  0.0658
12644W        W27775   9.880  10.208   1.168  0.2245  0.0826 -0.0584
12645W        W27776  15.817  15.445  10.993 -0.2030 -0.0186 -0.3575
12646W        W27777  16.100   2.156  15.401  0.3865  0.0611  0.1483
12647W        W27778   5.486   2.894  11.799  0.4423  0.0741 -0.1244
12648W        W27779   9.631   2.492  14.610 -0.1845  0.0494  0.0830
12649W        W27780  10.795   5.203   3.875  0.1536 -0.2254 -0.0424
12650W        W27781   8.456  11.859  14.982 -0.1983 -0.1054  0.2567
12651W        W27782  17.054   8.247  13.224  0.0183 -0.1586 -0.0822
12652W        W27783   1.098   9.560  11.389 -0.3411  0.0565  0.0134
12653W        W27784  15.658  15.922   4.801 -0.0264 -0.1816 -0.1960
12654W        W27785  11.670   2.730  14.456 -0.1500  0.4998 -0.1340
12655W        W27786  11.425   5.618   1.745 -0.0081  0.2593  0.0780
12656W        W27787   1.123   0.729   0.098  0.1919 -0.2124 -0.1564
12657W        W27788  12.686  12.802  15.515  0.0951  0.2321 -0.0157
12658W        W27789  11.007  18.557  12.763 -0.1666  0.1708  0.1447
12659W        W27790   1.001  17.315   0.409  0.0702 -0.0218 -0.1803
12660W        W27791  16.461  15.834  15.115 -0.1551  0.1677 -0.0958
12661W        W27792  16.301   6.440   2.181  0.0019  0.0525  0.2243
12662W        W27793  12.390   2.483   4.980  0.3074  0.3593 -0.1394
12663W        W27794  12.381   9.326  15.676 -0.1025 -0.5884  0.4632
12664W        W27795   3.700  18.159  14.451  0.1521 -0.0050 -0.1378
12665W        W27796  12.483   4.233  10.705 -0.0149  0.0929  0.1729
12666W        W27797  12.294  15.015   4.221  0.3585  0.0412 -0.1469
12667W        W27798   9.032  13.180  12.752  0.0366 -0.0579  0.3256
12668W        W27799   0.686   0.055   3.740 -0.1151  0.1232  0.0459
12669W        W27800  11.854   9.485  14.188  0.0949 -0.1078  0.3658
12670W        W27801   3.636   6.836  12.598  0.0882 -0.1618 -0.0305
12671W        W27802  10.185  11.009  13.173  0.1293  0.0576 -0.2251
12672W        W27803  16.349   9.000  14.448  0.3014 -0.4536  0.2040
12673W        W27804  15.306   6.223   0.502 -0.1392 -0.0944 -0.1517
12674W        W27805  16.145   1.055  11.987  0.0967  0.0655 -0.1808
12675W        W27806   6.724  11.473  15.708 -0.1136  0.2463  0.0176
12676W        W27807   1.110  14.338  11.685 -0.2754 -0.1666 -0.5565
12677W        W27808   3.030   7.340   1.432  0.1257  0.2028  0.2062
12678W        W27809   9.648   7.539  13.611 -0.0093 -0.0084  0.1333
12679W        W27810  18.230  16.673  11.675 -0.1362 -0.4354  0.2251
12680W        W27811   7.829   7.737  15.193 -0.0486  0.0065  0.0806
12681W        W27812  13.584  10.115   3.603  0.3596  0.1826  0.0362
12682W        W27813  16.481  16.319  15.030  0.3981  0.2618  0.2907
12683W        W27814   9.674   4.083   0.786 -0.1966 -0.1913 -0.0928
12684W        W27815   0.168   8.285   3.569  0.0492  0.1475 -0.2713
12685W        W27816   4.303   2.039   1.082 -0.3562  0.2565 -0.1044
12686W        W27817  16.225   6.288  11.189  0.4768 -0.3548 -0.1036
12687W        W27818   5.174   1.380  14.733 -0.0860 -0.0250 -0.0788
12688W        W27819   9.946  17.461  12.750 -0.3353 -0.3101  0.1241
12689W        W27820   7.030  17.111   1.428 -0.0230 -0.1132 -0.4702
12690W        W27821   1.752  17.993   2.974  0.3604  0.0584 -0.2852
12691W        W27822  16.403  11.425   1.403 -0.3622  0.2476  0.3592
12692W        W27823   2.227   3.224  11.318  0.0731 -0.0499 -0.0217
12693W        W27824   0.471  15.828   1.954 -0.3725  0.2825  0.0691
12694W        W27825   5.411  16.633  15.777 -0.0926 -0.1315 -0.1853
12695W        W27826   3.594   3.206   1.609 -0.0208  0.4208  0.1792
12696W        W27827   7.983   9.290   0.746 -0.2166 -0.3285 -0.3417
12697W        W27828   7.162  12.256   9.510 -0.0010  0.0263  0.1426
12698W        W27829   0.787  11.014  12.438  0.3667  0.0812  0.1433
12699W        W27830  17.731   0.783  14.058  0.1538 -0.1269  0.4065
12700W        W27831  11.546  16.306  11.774  0.3775 -0.1222 -0.2433
12701W        W27832   9.716  14.686   1.964  0.3018  0.1054  0.0774
12702W        W27833  17.568  17.919   4.656  0.3000 -0.0403 -0.0496
12703W        W27834  16.543   8.826   2.910  0.0235 -0.0649 -0.0341
12704W        W27835   7.583  18.105  12.699  0.1424 -0.2548  0.1436
12705W        W27836   9.671  12.486   2.153 -0.2869  0.0225  0.1337
12706W        W27837  18.197  13.636   4.585 -0.0480 -0.0349 -0.0389
12707W        W27838  12.078   0.370   0.264 -0.0278 -0.3748 -0.0596
12708W        W27839  12.517  14.215   4.891 -0.2015 -0.1152  0.2611
12709W        W27840  17.310  16.228  14.698  0.1569  0.0882  0.3222
12710W        W27841   3.682  10.342  13.091  0.2869  0.0601  0.0283
12711W        W27842  12.724  10.202  13.757 -0.5253  0.1613  0.0131
12712W        W27843   0.587   4.680  14.801  0.1924  0.0732  0.2093
12713W        W27844  10.616   0.170  14.767  0.0476  0.2177  0.1738
12714W        W27845   3.991  10.335  13.522  0.0202  0.0724  0.0529
12715W        W27846  18.152   7.630  14.045 -0.1298 -0.0804 -0.4285
12716W        W27847   4.504  15.963  14.402 -0.3422  0.0051  0.1291
12717W        W27848   9.835   2.770   4.839 -0.1543 -0.0319  0.4421
12718W        W27849   5.330   3.714   4.601 -0.3353  0.0041  0.0636
12719W        W27850  16.961   0.145   5.471  0.1896 -0.0751  0.0075
12720W        W27851  15.616   5.601   0.511  0.0105  0.0121 -0.1212
12721W        W27852   9.194   2.843  15.020  0.0903  0.1301 -0.0488
12722W        W27853   6.843  14.526   0.182 -0.1199  0.0289  0.1019
12723W        W27854  13.616   9.229   3.632 -0.1813  0.2281 -0.2197
12724W        W27855  13.673  15.966   3.165 -0.0408 -0.0213 -0.0217
12725W        W27856   0.747   5.561  13.515  0.0388 -0.0894  0.1374
12726W        W27857  15.080  17.680  15.551  0.1589  0.0439  0.1719
12727W        W27858  16.087   7.436  11.264 -0.2100 -0.0169  0.0924
12728W        W27859  16.339   0.987  14.070  0.0420  0.0200  0.0293
12729W        W27860   1.753   7.776  14.555 -0.0245  0.1333  0.0986
12730W        W27861  12.654  10.974   2.097  0.2540  0.0193 -0.0725
12731W        W27862  12.509   3.143  12.976  0.3201  0.0957 -0.2595
12732W        W27863  12.964   8.980   3.300 -0.0742 -0.0127  0.0891
12733W        W27864   4.962  13.227   1.974 -0.0452  0.0751 -0.1687
12734W        W27865   3.899   8.536  15.710  0.1700 -0.2216  0.3173
12735W        W27866  17.412  10.000  15.507  0.1980  0.3525  0.1032
12736W        W27867   2.009   7.656  13.084 -0.3932 -0.2710  0.2187
12737W        W27868  14.387  17.199  15.294  0.0698 -0.0107  0.2731
12738W        W27869   9.544  14.623   4.344 -0.2825 -0.2058  0.1333
12739W        W27870  13.595  14.882  13.159  0.1312 -0.0732  0.0388
12740W        W27871  13.619   2.428  10.921 -0.0504  0.1406 -0.3704
12741W        W27872   2.740   0.276  13.918  0.3362 -0.0515  0.1151
12742W        W27873  16.944  12.732   2.699 -0.1784  0.2426  0.1001
12743W        W27874  13.621   4.837  14.221 -0.0577 -0.0544 -0.1805
12744W        W27875   8.218  16.677  11.996 -0.0765  0.0479 -0.0689
12745W        W27876   6.397  15.865   3.490 -0.2745  0.1844 -0.0615
12746W        W27877   2.203   5.643  13.703  0.2936 -0.0608  0.0280
12747W        W27878  10.504  16.978  15.088 -0.2348 -0.0877 -0.3005
12748W        W27879   1.596  12.905   0.818 -0.0377 -0.0695  0.2575
12749W        W27880  12.088   1.725  12.787  0.0938 -0.0590 -0.0087
12750W        W27881  17.522  14.900  14.755  0.0907  0.1094  0.1586
12751W        W27882   5.256  15.264  14.095  0.1814  0.2927  0.2305
12752W        W27883   4.291  13.055  15.010  0.1303 -0.0510  0.1401
12753W        W27884   9.566  14.486   1.455  0.0282  0.1005  0.2328
12754W        W27885   5.611   8.590  14.957 -0.3067  0.1583 -0.0087
12755W        W27886   9.537  15.118  12.485  0.2404  0.1471  0.1249
12756W        W27887  18.220  10.183  11.119  0.1669  0.0840  0.1407
12757W        W27888  13.958   7.666   4.985  0.0322 -0.0185  0.1290
12758W        W27889  17.295  13.555   1.399  0.0987 -0.0182  0.0978
12759W        W27890   6.147   0.577  12.179 -0.0678 -0.2195 -0.0450
12760W        W27891   4.512   8.273   1.675 -0.2148 -0.0699  0.0171
12761W        W27892   3.906  16.095  11.869 -0.0648 -0.0605  0.0466
12762W        W27893  17.176   3.632   2.732 -0.1940 -0.2713 -0.1962
12763W        W27894   4.161   0.712  15.173  0.3729 -0.1705 -0.2692
12764W        W27895   8.859   2.782   4.649  0.1803 -0.2526 -0.3196
12765W        W27896  15.713   2.108  14.510 -0.0626 -0.0736  0.0249
12766W        W27897   7.759  12.506  14.765  0.1109 -0.1999  0.0063
12767W        W27898  13.866   9.422  13.208  0.0814 -0.1040 -0.3717
12768W        W27899   7.879   9.391  11.332  0.0553  0.0874 -0.1050
12769W        W27900   6.505   9.079   0.508 -0.1718  0.1571 -0.5199
12770W        W27901  15.059   9.884  11.690  0.1156 -0.1357  0.0672
12771W        W27902  17.721  12.859  14.977 -0.5572 -0.1866  0.1418
12772W        W27903   9.879   6.946  15.734 -0.1611 -0.1473  0.0588
12773W        W27904   3.222  13.200  13.613  0.0081 -0.0455  0.5552
12774W        W27905  15.372  13.385   3.692 -0.0271  0.0171 -0.3242
12775W        W27906  14.765   8.877  11.957  0.1929 -0.2833  0.0464
12776W        W27907  10.359   0.473  14.307  0.2084 -0.0262 -0.0718
12777W        W27908   8.326  15.348   3.987 -0.2505 -0.1260 -0.0290
12778W        W27909   7.831   0.056  15.115 -0.0599  0.2253 -0.0403
12779W        W27910   3.481  15.542  15.711 -0.1473  0.2481 -0.0912
12780W        W27911   1.284  12.019   1.967 -0.1893 -0.0946 -0.2406
12781W        W27912   8.601  11.737  13.004 -0.3986  0.5091  0.0283
12782W        W27913   3.613   8.414   1.854 -0.1666 -0.1564  0.2021
12783W        W27914   1.491  10.611  11.735  0.2285 -0.1303 -0.4343
12784W        W27915  18.544  14.041   0.708 -0.1829 -0.0326  0.1945
12785W        W27916  11.362  11.969  14.374  0.1268  0.1896 -0.0834
12786W        W27917  12.448  17.131   1.131 -0.3300 -0.0070 -0.2876
12787W        W27918   0.917  10.150  10.527 -0.5218 -0.0996  0.1301
12788W        W27919   8.308  11.693   0.837 -0.0010  0.0854  0.0149
12789W        W27920   4.582  12.277   1.503 -0.1113 -0.0645  0.1405
12790W        W27921  11.550   7.629  15.721 -0.0849 -0.1045 -0.2887
12791W        W27922  17.711  10.735  10.433  0.0759  0.1844  0.1744
12792W        W27923  18.106   1.687   5.275 -0.0924 -0.2487  0.0259
12793W        W27924   2.042  14.868   3.647 -0.1649 -0.1241  0.2615
12794W        W27925  18.367  10.461  14.716 -0.3244 -0.2188  0.2334
12795W        W27926  15.545   1.315  12.889 -0.1233  0.2368  0.1053
12796W        W27927   9.833  11.361   5.782  0.1317 -0.1833  0.1693
12797W        W27928  14.821   6.647   2.331  0.0229  0.0816 -0.0507
12798W        W27929   4.947   5.358  14.910 -0.1154 -0.1035 -0.0841
12799W        W27930   7.449  12.639  12.140 -0.3112 -0.0309 -0.2220
12800W        W27931   1.375  17.653   9.983  0.1445 -0.1416 -0.4337
12801W        W27932  12.105   1.666  11.926 -0.0063  0.0973  0.1788
12802W        W27933   3.473   4.885   5.545  0.1112 -0.1567  0.3936
12803W        W27934  12.608   9.827   3.521  0.5725 -0.0379  0.1218
12804W        W27935   0.393   0.683  15.618 -0.1328 -0.2725  0.1390
12805W        W27936  16.062   3.848   5.390 -0.4276 -0.2122 -0.1744
12806W        W27937  18.455   3.834   0.651 -0.1522  0.1408  0.2148
12807W        W27938  12.473  11.027  11.623  0.0490  0.0474 -0.0510
12808W        W27939  13.572  16.578   2.650 -0.0054  0.2351 -0.1997
12809W        W27940  10.898   9.945   3.805  0.3479  0.0693  0.1132
12810W        W27941  14.304  12.077  10.688 -0.0863  0.1087  0.0508
12811W        W27942   0.486  16.649  12.220 -0.4747  0.1972 -0.4260
12812W        W27943  11.752   6.176   2.377  0.1096 -0.3135 -0.1044
12813W        W27944   1.857  11.480  10.815  0.1152  0.1198 -0.1721
12814W        W27945   9.529   5.611  14.979  0.0530 -0.0281 -0.1187
12815W        W27946   5.611  13.394   3.086  0.0006 -0.2261 -0.4040
12816W        W27947  17.352   1.450  13.077 -0.2182  0.1362  0.1953
12817W        W27948  13.833  16.002   2.588 -0.2167  0.2137 -0.2730
12818W        W27949  15.829  15.277   0.939  0.3249  0.0918  0.0875
12819W        W27950   3.549   2.840   3.915 -0.2890  0.1402  0.1290
12820W        W27951  10.875  17.118   0.857 -0.1766  0.1024  0.1408
12821W        W27952   2.781  14.218  14.509  0.0819  0.0050  0.1112
12822W        W27953  12.137   8.574  11.880  0.2767  0.1520 -0.0453
12823W        W27954  12.660  17.364   3.295  0.2811 -0.5154 -0.0244
12824W        W27955   0.570  13.330  12.986 -0.0580  0.2744 -0.3645
12825W        W27956  13.338  10.592  13.313  0.1870 -0.3326 -0.0111
12826W        W27957  17.636  11.329  11.395 -0.0176 -0.1196  0.0234
12827W        W27958   4.400   1.131  12.391 -0.0491  0.1719 -0.0049
12828W        W27959   9.427  12.428  11.020 -0.1595 -0.1609  0.0969
12829W        W27960  13.464  14.515  10.192  0.0003  0.2196 -0.0920
12830W        W27961  13.996   1.051  14.113  0.2563  0.5272  0.0854
12831W        W27962  12.495  15.095  10.143 -0.0087  0.1720 -0.0968
12832W        W27963  14.888  11.426   2.096  0.1045 -0.1155  0.1021
12833W        W27964  18.281   1.584  15.069  0.0887 -0.0336 -0.0331
12834W        W27965   2.817   3.888   1.064 -0.4157  0.0712 -0.0250
12835W        W27966   3.761  15.367  12.597 -0.1165 -0.1757 -0.2123
12836W        W27967  10.414  18.119   5.298 -0.1729  0.0683 -0.0029
12837W        W27968  11.769   8.971   5.579  0.0317 -0.0257  0.0674
12838W        W27969  15.464   8.867  14.313 -0.1331  0.3844 -0.0331
12839W        W27970  13.581  12.318  11.568 -0.0905 -0.1183 -0.0883
12840W        W27971   6.769   5.435  11.524 -0.3131 -0.1103 -0.3381
12841W        W27972  14.044   0.940   6.326  0.0535 -0.0223  0.0734
12842W        W27973   6.663   3.953  13.771  0.0628 -0.1690 -0.0931
12843W        W27974   9.220  11.713   3.297  0.2108  0.1485  0.3546
12844W        W27975  14.151   2.761   5.878 -0.1496  0.0772  0.2565
12845W        W27976  14.486   5.329   4.076 -0.1102  0.0930  0.0338
12846W        W27977   3.453  18.357   5.329 -0.1116 -0.0448  0.1247
12847W        W27978  13.294   4.985  14.633  0.2536  0.1733 -0.0219
12848W        W27979   6.808  15.473  14.579 -0.1073 -0.0437 -0.0107
12849W        W27980  16.910  14.457   3.842 -0.0671  0.0629  0.1123
12850W        W27981   5.631   0.005  10.853 -0.0316 -0.0669 -0.4951
12851W        W27982  13.494  18.008  13.191  0.1211 -0.0708  0.3130
12852W        W27983   6.058   1.086  10.999  0.0818 -0.0462  0.1355
12853W        W27984  18.344  10.850   0.464 -0.3526  0.0056  0.1410
12854W        W27985  18.104  10.827   3.129 -0.0430 -0.2063 -0.2811
12855W        W27986  11.686  14.067  11.906  0.0199 -0.2394  0.0954
12856W        W27987  13.025   1.960  12.117 -0.2673 -0.0521  0.0700
12857W        W27988   6.073   2.421   5.167  0.0440  0.6709 -0.1392
12858W        W27989  14.238  17.773  13.433  0.2113 -0.3487 -0.3286
12859W        W27990   7.574  14.492  13.748  0.1322  0.1232  0.1139
12860W        W27991  17.594   5.201  13.987  0.1921  0.2098 -0.1040
12861W        W27992   6.989   4.376   5.019 -0.0708 -0.2964  0.0373
12862W        W27993  10.921   5.721  14.403 -0.1848 -0.0911  0.0037
12863W        W27994   3.350  12.574   4.199  0.0904  0.1380 -0.0193
12864W        W27995   8.322  12.966  14.110  0.2621  0.0179 -0.2876
12865W        W27996   8.707  12.307  13.794 -0.0212 -0.1910  0.1222
12866W        W27997  17.417   9.802   6.103  0.0017  0.0125 -0.3537
12867W        W27998   3.556  13.990  13.215  0.2491 -0.3148  0.0726
12868W        W27999  11.724   6.397   0.558  0.3301 -0.0012 -0.0443
12869W        W28000  17.195  16.556   3.998 -0.1589  0.0150 -0.0870
12870W        W28001   4.634  14.747  15.541  0.0101 -0.0984  0.0833
12871W        W28002   4.117  12.731  15.361  0.1242  0.0004 -0.1169
12872W        W28003   0.229   7.747   1.254 -0.0561  0.0649  0.1773
12873W        W28004   9.666   2.895  10.571 -0.1278 -0.1221  0.4007
12874W        W28005   7.514  14.829   1.765  0.0965 -0.1239 -0.2371
12875W        W28006  14.076  18.000  14.824 -0.0641 -0.2291 -0.0059
12876W        W28007   9.192  14.633   2.704 -0.4924  0.0626 -0.3389
12877W        W28008   7.648  11.382   9.687  0.1709 -0.1908 -0.0194
12878W        W28009  17.620  10.828  11.554  0.1383  0.1065 -0.0715
12879W        W28010  14.334  10.918   0.046 -0.3586  0.1151  0.2060
12880W        W28011  18.378  12.314  10.003  0.4554 -0.4671  0.2005
12881W        W28012   0.805   5.712   2.867 -0.1177 -0.0849 -0.1493
12882W        W28013   8.823  13.237  10.839 -0.1734  0.1096 -0.0265
12883W        W28014   3.797   1.844  15.763 -0.4879 -0.0459  0.2361
12884W        W28015   3.804  15.884   0.494  0.3167  0.1477 -0.0162
12885W        W28016  13.148   2.780  15.645  0.2036  0.0190 -0.1380
12886W        W28017   3.324   7.132   0.156  0.1108 -0.3673  0.0526
12887W        W28018  11.576  18.349  11.137 -0.2418  0.3115 -0.3096
12888W        W28019   6.229   7.293  12.604 -0.3816 -0.0186  0.3973
12889W        W28020  10.609  10.574  15.455 -0.1426 -0.1303 -0.0488
12890W        W28021  13.946   2.899   1.384 -0.2087 -0.3757 -0.2980
12891W        W28022  14.740  12.886   0.895  0.0304  0.1403 -0.2279
12892W        W28023  13.904   4.877   0.650  0.0038 -0.2106 -0.0242
12893W        W28024   3.474   9.020   4.224 -0.1389  0.3972 -0.2003
12894W        W28025   9.937   1.578   3.032  0.1246 -0.2072  0.1453
12895W        W28026   0.187   6.382   2.411 -0.1290 -0.0014  0.0129
12896W        W28027  13.005  13.102   3.834  0.1075 -0.0005  0.1457
12897W        W28028  13.189   8.169   1.676  0.0691  0.1306  0.2526
12898W        W28029   4.933  12.502   4.395  0.3399  0.1929 -0.3323
12899W        W28030  14.754   3.555   2.370 -0.2177 -0.0832  0.1665
12900W        W28031   4.986  11.465  12.212  0.0115  0.0079 -0.2062
12901W        W28032   0.576   4.849  10.688 -0.1532  0.2917  0.0776
12902W        W28033  18.091  10.170   4.635  0.1420 -0.2548 -0.3285
12903W        W28034  10.948  11.856   5.493 -0.0825 -0.3328 -0.0188
12904W        W28035   2.277   4.021   5.465 -0.1170 -0.0378 -0.0400
12905W        W28036  16.749   0.599   4.550 -0.0775 -0.0389 -0.1325
12906W        W28037  16.588   5.875  14.244  0.0471  0.1067  0.2792
12907W        W28038  11.272   9.800   4.602 -0.1775  0.2897  0.1565
12908W        W28039   8.881   7.055  10.418  0.1438 -0.2133 -0.0815
12909W        W28040  16.356   1.189   3.215 -0.5217 -0.2263 -0.1045
12910W        W28041   6.806   7.917   2.931 -0.1404  0.0144 -0.2162
12911W        W28042   8.551   3.694   4.934  0.1749 -0.2187 -0.2700
12912W        W28043  14.148   2.581   0.435  0.1598 -0.1452 -0.4337
12913W        W28044   8.236   6.467  11.837 -0.0587 -0.0614  0.1632
12914W        W28045   5.279  17.648  15.493  0.3805  0.0390 -0.0163
12915W        W28046   9.714  10.222  15.860 -0.1348  0.3821  0.2896
12916W        W28047  13.488   3.843  14.344 -0.0566  0.1470  0.2915
12917W        W28048  11.123   8.851  15.629  0.4475 -0.3397  0.0385
12918W        W28049   9.607   9.060   2.802  0.0760  0.4527 -0.0034
12919W        W28050   8.209  11.583   1.793  0.3224 -0.2368 -0.2174
12920W        W28051  15.495   5.100  11.963 -0.1075 -0.1128 -0.0677
12921W        W28052   3.104   3.247  15.304 -0.0820 -0.1835  0.5225
12922W        W28053  12.412   8.274   2.287  0.1718  0.0604  0.3286
12923W        W28054   6.764   5.681   4.067  0.1745 -0.0502  0.2797
12924W        W28055  10.643  13.854  12.438  0.0384 -0.3483 -0.0175
12925W        W28056  14.693   2.959   4.651 -0.2952  0.0775 -0.1678
12926W        W28057   3.375   6.759   0.616  0.0118 -0.0618 -0.0692
12927W        W28058  17.020   9.914   1.044 -0.0290  0.2260 -0.1300
12928W        W28059  11.652  13.234  11.176 -0.1516 -0.2590 -0.0535
12929W        W28060  15.596   9.896  12.851  0.0829 -0.0704 -0.0770
12930W        W28061  18.087   5.712   6.304  0.2419 -0.4422 -0.0835
12931W        W28062   2.478   5.031   2.088 -0.1425 -0.0331  0.0320
12932W        W28063   7.779   5.991   0.599  0.0917 -0.2684  0.4114
12933W        W28064   9.452   1.367   4.274  0.1107  0.0090  0.1402
12934W        W28065  13.233   9.765  11.576  0.1960  0.0288  0.3153
12935W        W28066   4.242  16.175   0.802  0.1860  0.1965 -0.0295
12936W        W28067  13.529   8.164   0.572  0.0860  0.4211  0.1465
12937W        W28068  15.729   1.351   1.400 -0.0906  0.0311  0.2106
12938W        W28069   9.681   6.828   0.216 -0.1430 -0.3134  0.0116
12939W        W28070   6.929  14.230  10.594 -0.1125  0.0064 -0.0498
12940W        W28071  17.465   1.429   2.862 -0.3349 -0.0161 -0.0956
12941W        W28072   3.301   4.530   5.245 -0.0335  0.0595  0.3473
12942W        W28073  18.272  12.299  10.521 -0.2425 -0.0579 -0.0553
12943W        W28074  11.002   5.883  12.491  0.3201  0.3727  0.4582
12944W        W28075  11.707   6.271  14.648  0.4973 -0.7067 -0.1984
12945W        W28076  11.754   8.864  14.954 -0.3328 -0.0892  0.2699
12946W        W28077  15.862  15.747   1.212 -0.0192 -0.0205 -0.0119
12947W        W28078   8.867   0.493   2.683  0.1333 -0.0172  0.0555
12948W        W28079  18.275   0.520  10.896 -0.2378  0.0215 -0.1210
12949W        W28080   0.578   7.418  11.467 -0.0527 -0.1598 -0.0565
12950W        W28081  14.213   4.776  12.286  0.0547  0.2101 -0.2881
12951W        W28082  13.849   8.983   5.676  0.1340 -0.1543 -0.0377
12952W        W28083   8.009   5.218  11.928 -0.1148  0.1268  0.1209
12953W        W28084  12.383   1.708  13.174  0.1164  0.4249 -0.0124
12954W        W28085  13.363   6.079   0.886 -0.0832 -0.1185 -0.1295
12955W        W28086  14.124   2.502   4.381 -0.2771 -0.0045 -0.1452
12956W        W28087  17.539  11.734   0.012 -0.1615 -0.1068 -0.0063
12957W        W28088  13.526  11.393   6.211 -0.0845 -0.0171 -0.0054
12958W        W28089   0.746   7.495  15.234  0.1276 -0.2777  0.1186
12959W        W28090   7.108   1.062   2.478 -0.2189  0.3028 -0.0069
12960W        W28091   2.222   2.735  12.133 -0.1917  0.1302 -0.2063
12961W        W28092  10.765  14.411   1.423 -0.5484 -0.0866 -0.0261
12962W        W28093   2.299  10.514   0.430  0.0642  0.0934 -0.2079
12963W        W28094   6.284   3.850   2.317  0.2003 -0.1594 -0.1867
12964W        W28095   4.235  17.697  11.305  0.2432 -0.0551 -0.1561
12965W        W28096   2.203  10.445  15.720  0.0250 -0.4208  0.1476
12966W        W28097  12.396  10.736   3.507  0.0284  0.1181 -0.0617
12967W        W28098  16.050   1.371  13.035  0.0756  0.0177 -0.0802
12968W        W28099  16.600   9.684  14.281  0.1820  0.3027  0.0038
12969W        W28100  13.056   0.872  13.481  0.3810  0.2280 -0.0992
12970W        W28101  11.939   2.296   0.102  0.3391  0.0421  0.1017
12971W        W28102  17.701  10.480  12.698  0.2535  0.1126  0.1000
12972W        W28103  10.120   7.864   0.028  0.2570 -0.0686 -0.0906
12973W        W28104   2.483   5.858   5.517 -0.3142 -0.1227 -0.0677
12974W        W28105  15.287  13.144  13.131 -0.0560  0.1085 -0.1616
12975W        W28106   5.445  18.328   2.615  0.1965 -0.0841  0.1591
12976W        W28107   8.129  10.045  10.794 -0.1424 -0.1159  0.0597
12977W        W28108   4.345   9.308  15.660 -0.0160  0.0945  0.3557
12978W        W28109  11.305   3.915   5.021  0.0970  0.3623  0.0583
12979W        W28110  17.152   2.587  11.058 -0.2377  0.4863  0.2093
12980W        W28111  16.843  16.804  15.537 -0.0272 -0.1255  0.1397
12981W        W28112  10.577   4.522  15.707 -0.0811  0.2987 -0.1348
12982W        W28113   4.046   9.342   4.833  0.3153  0.1626  0.1051
12983W        W28114  13.984  10.722   2.866  0.3410  0.2637  0.1320
12984W        W28115   7.764   2.758  13.029 -0.0212  0.3048  0.2551
12985W        W28116   8.353   0.451  12.353 -0.0473 -0.1668 -0.0790
12986W        W28117   9.338  18.219   3.098  0.1014  0.0764  0.1676
12987W        W28118  17.173   6.917  11.947 -0.2720 -0.0677 -0.4247
12988W        W28119  14.404  10.824   0.860  0.2750 -0.1348  0.0018
12989W        W28120   8.461  17.722  12.982  0.0545 -0.0074 -0.5627
12990W        W28121   8.557   9.336   4.477  0.4052 -0.1819  0.0391
12991W        W28122  16.013   1.240  15.678 -0.1439  0.1975 -0.1387
12992W        W28123   1.299   8.289   2.555  0.1374 -0.0909 -0.0127
12993W        W28124   8.271   2.762  13.002 -0.3802 -0.1422  0.1268
12994W        W28125  11.253   8.987  13.845 -0.0639  0.1872 -0.0916
12995W        W28126   9.164  14.353  10.677 -0.0221 -0.0256  0.0737
12996W        W28127  12.048  18.477  15.932  0.3242 -0.0927  0.2488
12997W        W28128   9.493  16.665  12.908 -0.2655  0.2862  0.0252
12998W        W28129   0.171  18.313   2.736 -0.0252 -0.2708  0.2970
12999W        W28130  17.129   0.791   1.915  0.0240 -0.0663 -0.1541
13000W        W28131  14.390  10.071   1.760  0.1495 -0.1314  0.0348
13001W        W28132  10.516   3.079   2.696  0.2385 -0.1122  0.0558
13002W        W28133  16.008   1.553  10.273  0.3094 -0.2296 -0.1479
13003W        W28134   7.119   8.598   4.835  0.0685 -0.0202  0.0873
13004W        W28135   2.983   9.956   2.590 -0.0041 -0.0853  0.1265
13005W        W28136  11.109   3.205   2.001  0.3378 -0.2286  0.0330
13006W        W28137  11.886  13.715   0.540  0.0353 -0.1329  0.1493
13007W        W28138   0.986   8.718   4.794 -0.0180 -0.0776  0.2152
13008W        W28139  13.831   1.242  15.108  0.1739 -0.0726 -0.0665
13009W        W28140   5.107  15.733   3.712 -0.0164 -0.1820 -0.2169
13010W        W28141   3.564  11.935  10.586 -0.2812  0.1821 -0.0093
13011W        W28142  13.509   9.941   0.317 -0.0450  0.1228 -0.0639
13012W        W28143  15.512   7.015   5.950 -0.1303 -0.1176 -0.3764
13013W        W28144   7.118  15.983  12.424 -0.0870 -0.1577 -0.2869
13014W        W28145  15.983   9.109   5.041 -0.0531  0.0697  0.3257
13015W        W28146   4.921  12.039  13.041  0.2276  0.3489  0.0542
13016W        W28147   7.850  10.151  13.756  0.1090 -0.1614  0.0660
13017W        W28148   0.658   6.114   3.272  0.0489 -0.1549 -0.2139
13018W        W28149  15.093   8.576   0.262 -0.1279  0.4514  0.1295
13019W        W28150  14.107   2.517   5.323  0.0309  0.2045 -0.0885
13020W        W28151   1.556  16.165  13.660 -0.1026  0.0491  0.3295
13021W        W28152  14.821  11.446   5.807 -0.0415 -0.1571  0.0745
13022W        W28153   9.723  16.222  15.013 -0.0339 -0.2991 -0.0879
13023W        W28154  12.898  11.312  13.498  0.1477  0.5185  0.1076
13024W        W28155   1.998   5.607  12.885  0.0750 -0.3523 -0.3370
13025W        W28156  15.002  12.665   1.775  0.0419  0.2080  0.2599
13026W        W28157   0.565  15.138  11.417  0.0235 -0.0998 -0.2763
13027W        W28158   7.532   9.108   1.955  0.3357  0.0092  0.1569
13028W        W28159   0.904  13.760  11.856 -0.1213 -0.1589  0.1296
13029W        W28160  13.925   4.934  11.435 -0.3095 -0.2197 -0.2315
13030W        W28161   8.001   1.373   4.131 -0.2256 -0.0291  0.2023
13031W        W28162  14.646   6.192   2.038 -0.0674  0.3597  0.0371
13032W        W28163  15.033  12.873   1.339  0.1537 -0.3961  0.3443
13033W        W28164   4.257   4.935  11.548 -0.0987  0.2756  0.0321
13034W        W28165   8.101  13.004  10.105  0.0991 -0.1525  0.0437
13035W        W28166   1.264   2.826  14.935  0.2360 -0.0665  0.3705
13036W        W28167   3.384  15.190   4.098 -0.0069 -0.2643  0.0636
13037W        W28168   7.899   8.687  13.225  0.2209 -0.2845 -0.0319
13038W        W28169  17.627   3.869   0.775 -0.2446 -0.1004  0.1197
13039W        W28170   2.243  13.968  15.819 -0.2135 -0.0799  0.1301
13040W        W28171   5.766  16.654  12.208  0.1160  0.2131  0.1934
13041W        W28172   0.278   0.650   3.605 -0.4132 -0.1988  0.1212
13042W        W28173  11.627   7.534   4.057 -0.2476  0.2629  0.1037
13043W        W28174  12.394  10.256   3.572  0.1765 -0.2376 -0.0203
13044W        W28175   6.355  15.699  13.160  0.1871 -0.1578 -0.1126
13045W        W28176  11.857   4.264   1.730  0.0175  0.3065  0.2307
13046W        W28177  16.792   1.263  15.185  0.1665 -0.0148 -0.1459
13047W        W28178  10.575  16.203  11.752 -0.2926 -0.1039 -0.0344
13048W        W28179  18.182  15.562  13.689 -0.3396 -0.0991 -0.0766
13049W        W28180  11.547  12.762  10.950  0.1757 -0.0388 -0.0716
13050W        W28181   8.772   1.960  10.178  0.1171 -0.0732 -0.1895
13051W        W28182  10.989   3.856   4.244 -0.3391  0.0012 -0.1009
13052W        W28183   0.067  18.351   0.697 -0.0507  0.1130  0.0143
13053W        W28184  10.281   7.925   2.953  0.2044  0.2772 -0.2773
13054W        W28185   9.039  17.691  15.562 -0.1114 -0.1896 -0.0207
13055W        W28186  11.382   8.799  12.933 -0.1072  0.0833  0.2846
13056W        W28187  10.062   9.305  15.417 -0.0935  0.3292  0.0830
13057W        W28188   5.260  12.993  11.517 -0.2015  0.3301 -0.1791
13058W        W28189   1.050   5.945   1.165 -0.1175  0.0948 -0.0804
13059W        W28190   8.590   8.542   1.908  0.1087 -0.0961  0.2360
13060W        W28191   9.875   0.885   5.105  0.2998  0.1952  0.3355
13061W        W28192  10.950   7.318  13.251  0.1432 -0.2677  0.2182
13062W        W28193   5.332   1.740  15.694 -0.1053 -0.0692  0.3534
13063W        W28194   6.399   8.794   5.206 -0.2186 -0.1293 -0.0648
13064W        W28195  13.368   6.918  14.577  0.2468 -0.0089 -0.0221
13065W        W28196   8.003  12.464  15.623  0.1156  0.0415 -0.1696
13066W        W28197   0.615  15.759  12.027 -0.0996 -0.1234  0.1172
13067W        W28198   0.370   4.781  11.881 -0.1053  0.0364  0.1867
13068W        W28199  14.583   6.766   3.736 -0.1938  0.0710 -0.1605
13069W        W28200   3.615  13.673  14.344 -0.0517 -0.0376  0.1254
13070W        W28201  16.390   1.421  12.373 -0.1604  0.0756 -0.2506
13071W        W28202  12.380   1.669  15.694 -0.1110 -0.1963  0.2167
13072W        W28203   0.406   6.589  15.019 -0.1293 -0.0954  0.0946
13073W        W28204   0.156  14.208  15.726  0.1855  0.3586  0.2989
13074W        W28205   7.803   4.727  14.272  0.0367 -0.1079 -0.2636
13075W        W28206   5.703  18.050   0.475  0.2145  0.0667  0.1049
13076W        W28207   4.808  13.466  10.271 -0.2045  0.4225 -0.1029
13077W        W28208   5.869   8.193   4.152  0.0968 -0.1400 -0.0582
13078W        W28209   8.768   0.059   1.413  0.0238 -0.1584  0.2328
13079W        W28210   1.125   5.859  15.431  0.0525 -0.2493  0.3075
13080W        W28211  14.010  16.375   4.812  0.1650  0.0063  0.2219
13081W        W28212  17.218  13.459  13.100  0.3085 -0.0676  0.2737
13082W        W28213  13.176  11.791  15.327  0.2477 -0.1096  0.1574
13083W        W28214  14.246   3.382  13.350  0.2447  0.0222 -0.0882
13084W        W28215  11.243  10.686   4.087  0.2821  0.1506 -0.4484
13085W        W28216   4.696   4.945   1.365 -0.2629 -0.0060  0.1874
13086W        W28217   9.687   4.886   1.216 -0.3676  0.0218 -0.3885
13087W        W28218  14.692  12.612   3.754  0.1116  0.2609 -0.1156
13088W        W28219  11.402   6.683   4.914 -0.1696  0.0376 -0.2096
13089W        W28220   5.340   0.209   4.275 -0.0887  0.2022 -0.0200
13090W        W28221   4.078  11.744  10.900  0.0503 -0.1079 -0.0537
13091W        W28222  13.105   9.119   1.258  0.2370  0.2918 -0.0870
13092W        W28223  18.404  13.458  14.032 -0.0328 -0.0736  0.2817
13093W        W28224   8.491   5.807   5.394 -0.2816 -0.1085  0.1469
13094W        W28225  11.500   1.548   3.383 -0.0458 -0.0513 -0.1040
13095W        W28226  10.111  12.403  10.813 -0.0005  0.2687  0.1132
13096W        W28227   5.324  16.916  15.160 -0.0446 -0.1752 -0.1403
13097W        W28228  13.022  13.602   3.715 -0.2365  0.2198  0.1019
13098W        W28229  16.091  10.549  13.546  0.0458 -0.1269 -0.1993
13099W        W28230  14.633  11.840  12.250  0.0688  0.0956  0.3392
13100W        W28231  10.748  10.780   3.569  0.3251  0.2788  0.3388
13101W        W28232  14.641  16.384   1.233 -0.0792  0.3511  0.0869
13102W        W28233   2.340   6.139   2.405  0.2310 -0.0371  0.1738
13103W        W28234  17.514  14.366   4.445 -0.0263 -0.5508 -0.0024
13104W        W28235   2.519  18.428  10.987 -0.1034 -0.2713  0.1114
13105W        W28236  17.504   5.962   5.398 -0.1340  0.0823 -0.2018
13106W        W28237   2.173   4.118  14.744  0.1111 -0.0983 -0.0590
13107W        W28238   3.896   9.955  15.926  0.1346 -0.2126  0.1365
13108W        W28239   9.916   9.819  14.888 -0.0373  0.1359 -0.0316
13109W        W28240   6.089   9.011   0.802 -0.0170 -0.0701  0.1491
13110W        W28241   5.645   8.809  12.904  0.2718 -0.1055  0.0125
13111W        W28242  17.563  13.980   3.221 -0.0563 -0.0833 -0.0562
13112W        W28243   4.724   1.006  14.349  0.0005 -0.0849 -0.2159
13113W        W28244  15.808   3.054  14.974  0.0175  0.0292  0.0347
13114W        W28245   7.627   3.395   4.296 -0.1066  0.0560 -0.1630
13115W        W28246  16.858   8.097   0.470 -0.1201 -0.1502 -0.1652
13116W        W28247   8.977   5.196   1.542  0.0194  0.1781  0.0959
13117W        W28248   6.599  12.528   3.228  0.0255  0.1486 -0.3029
13118W        W28249   9.043  14.300  15.458  0.1315 -0.1507 -0.0500
13119W        W28250  12.407  15.847  11.748 -0.2250 -0.0323  0.0307
13120W        W28251  10.801  18.468   0.572  0.0212 -0.1076 -0.0932
13121W        W28252  14.976   2.649   1.794 -0.1219  0.0302  0.1269
13122W        W28253  17.387   5.380   3.474 -0.1724 -0.0353 -0.0700
13123W        W28254   7.786  15.218   3.914  0.0891 -0.0906 -0.0400
13124W        W28255  12.025  12.145  11.579 -0.3117  0.4433 -0.1732
13125W        W28256  16.778  16.539   0.022  0.1305  0.0203 -0.5436
13126W        W28257  14.144   1.320  12.517 -0.0823  0.2359 -0.0616
13127W        W28258   1.337   7.754  10.995 -0.1162  0.1720 -0.2883
13128W        W28259  15.142  11.112   4.596 -0.1187  0.0567  0.0058
13129W        W28260   7.830   3.702  14.551  0.2985 -0.2096  0.1247
13130W        W28261   3.661   0.111  11.778  0.1197 -0.2004 -0.1384
13131W        W28262   7.216  11.641  15.498  0.2801 -0.3656  0.0086
13132W        W28263   4.364   7.877   1.433 -0.0930  0.2422  0.2510
13133W        W28264  12.171   0.261  11.967  0.1734  0.1634 -0.1769
13134W        W28265  15.099  11.966   4.093 -0.1427  0.1107 -0.0356
13135W        W28266   8.587  16.975  15.932 -0.1231 -0.1623  0.1003
13136W        W28267   7.010   0.803  11.698  0.2365  0.0855 -0.1871
13137W        W28268   1.821   5.335  13.940  0.2706 -0.1918  0.2350
13138W        W28269   8.526  11.347   1.475  0.0581  0.1854  0.0868
13139W        W28270   0.822   4.363  15.635 -0.0119 -0.0577 -0.1592
13140W        W28271   5.799   1.835   1.233 -0.0155  0.1472  0.2537
13141W        W28272  17.701  15.217  12.823  0.0623  0.1619 -0.1413
13142W        W28273   7.060   4.585   0.859  0.0776  0.0172  0.1946
13143W        W28274   9.033  14.519   4.998  0.0502 -0.0915 -0.3507
13144W        W28275  14.339  16.190  10.462  0.1071  0.0479 -0.2176
13145W        W28276  11.386  10.568   5.708  0.4526 -0.0622 -0.0331
13146W        W28277  11.485  12.418  13.555 -0.1081  0.0695  0.3310
13147W        W28278   8.403   0.598   3.544  0.2713 -0.0540  0.0288
13148W        W28279  12.260   3.911   1.825 -0.2353 -0.1734  0.1316
13149W        W28280   6.334   5.499  12.234 -0.0682  0.1289 -0.1457
13150W        W28281   4.188   0.266   1.767  0.0571 -0.1290  0.1214
13151W        W28282  10.278   9.856   1.250 -0.0653  0.2252  0.2096
13152W        W28283   9.358  11.649  10.875  0.0849 -0.1490  0.1550
13153W        W28284   1.939  17.385  14.752  0.0391  0.2091 -0.0991
13154W        W28285   0.535  14.416   2.731  0.0083 -0.3219 -0.1468
13155W        W28286   0.322  13.439   3.017 -0.0923 -0.0704 -0.2166
13156W        W28287  14.356   2.031  14.181  0.0447  0.1764 -0.0613
13157W        W28288  17.692  16.608   3.585 -0.0411  0.0936  0.0999
13158W        W28289  13.779  18.378   0.459  0.0088 -0.1161 -0.0952
13159W        W28290  17.018  16.518  13.652 -0.0198  0.0431 -0.2727
13160W        W28291   2.557  15.775  13.310  0.3290 -0.2024  0.2422
13161W        W28292  15.744   4.117  15.076  0.4318 -0.3576 -0.5031
13162W        W28293  13.256   7.899  14.555 -0.0298 -0.1576  0.2509
13163W        W28294  16.505  17.555   2.826 -0.1374 -0.5025 -0.2400
13164W        W28295  17.719   5.149  13.460 -0.1290  0.1214 -0.3617
13165W        W28296   0.984   6.686  15.922  0.0526  0.1896  0.0584
13166W        W28297  16.028   1.388   4.763 -0.1036  0.2315  0.3183
13167W        W28298   3.451  16.905   1.714 -0.3237 -0.0743 -0.0424
13168W        W28299  17.535   6.912   4.991 -0.3193 -0.2551  0.1304
13169W        W28300  16.085  17.385   0.053 -0.1593  0.1986  0.0764
13170W        W28301   8.423  13.197   3.317  0.3105 -0.0349  0.2613
13171W        W28302  13.248  18.375   2.429  0.3612 -0.0412 -0.1942
13172W        W28303  16.287  13.599   9.720  0.2581  0.0574  0.0472
13173W        W28304   0.593  18.396  14.100  0.1083  0.1217  0.3886
13174W        W28305  12.105   8.578   3.138  0.2087  0.3613 -0.1531
13175W        W28306  14.407  12.038  12.688  0.0427 -0.0813 -0.3338
13176W        W28307   5.684   2.816  11.258 -0.1474 -0.1093  0.1948
13177W        W28308   9.037  11.106  15.183  0.1987  0.1770 -0.1487
13178W        W28309   2.506   8.351   3.266 -0.1716 -0.1166 -0.2385
13179W        W28310  15.902  12.764   3.998 -0.0352 -0.2408  0.0157
13180W        W28311  10.637   2.817  12.977 -0.0350 -0.2590  0.0882
13181W        W28312  14.374  13.967   5.008  0.0001  0.2071 -0.1850
13182W        W28313   1.799  11.641   3.509 -0.2072  0.0628  0.0233
13183W        W28314   6.974  15.009   3.241  0.2018 -0.0587 -0.2037
13184W        W28315   2.925  12.597   3.459 -0.0895 -0.1684  0.0502
13185W        W28316  14.226   4.395   3.103  0.0382  0.0972  0.4964
13186W        W28317   0.882   3.929  15.212  0.0877  0.2083  0.2783
13187W        W28318   0.332   9.782  15.773  0.1687  0.0110  0.2595
13188W        W28319  10.541  18.040   2.002  0.1506 -0.3346 -0.2770
13189W        W28320   4.001   6.440  12.389  0.1296  0.2451 -0.0865
13190W        W28321   2.397  11.185  13.334  0.1090 -0.1215 -0.2716
13191W        W28322  15.072  12.668   0.001  0.3539 -0.0733 -0.1930
13192W        W28323  15.701  17.696  12.881 -0.1610 -0.1097 -0.0540
13193W        W28324  10.951  12.737   0.550  0.1589  0.1377 -0.0963
13194W        W28325   8.631  11.543  14.459  0.2567 -0.0804  0.4599
13195W        W28326   8.284   5.806   1.463  0.1085  0.1225  0.0698
13196W        W28327   4.573   3.588   1.515  0.0805  0.1007  0.0723
13197W        W28328   9.698   5.069  14.882 -0.1476  0.0092  0.4158
13198W        W28329   6.961   7.972  10.939 -0.0980 -0.3110  0.0113
13199W        W28330  16.792   4.913  12.213 -0.0940  0.1156 -0.1856
13200W        W28331   1.057  10.248   4.823  0.0515  0.2117  0.2781
13201W        W28332  15.829   4.383   5.476  0.2073 -0.0267 -0.0597
13202W        W28333   5.049   6.333   3.019  0.0387  0.2222 -0.2632
13203W        W28334   7.511  16.123  11.888 -0.0845 -0.0897  0.0948
13204W        W28335   2.075   2.693   5.428  0.1079  0.0139 -0.0563
13205W        W28336  18.109   8.517   5.917 -0.2574 -0.0689 -0.0778
13206W        W28337   9.415   5.077   1.678  0.1798 -0.5935 -0.1494
13207W        W28338  12.998  15.304   2.296  0.0098 -0.4053  0.0697
13208W        W28339  15.521   5.469   0.987  0.3054  0.2578 -0.4610
13209W        W28340  12.784   4.756  12.283  0.1730 -0.2564 -0.0081
13210W        W28341  18.447   9.302  14.730  0.1157 -0.2371  0.1160
13211W        W28342  17.530   4.037   4.496  0.1858  0.0782 -0.2692
13212W        W28343  14.130   8.158   1.561 -0.0253  0.1613 -0.0809
13213W        W28344  17.744  14.992   0.272  0.2516 -0.2029  0.2562
13214W        W28345  15.910   4.612   4.015  0.0083 -0.1002  0.0938
13215W        W28346   5.686   0.169  15.243  0.3674  0.3123  0.0572
13216W        W28347   7.203   4.156   1.146 -0.2015 -0.1042  0.0772
13217W        W28348  17.400   9.146   5.231  0.0179 -0.2301  0.0580
13218W        W28349  10.190  18.310   2.206 -0.1006 -0.2169 -0.3043
13219W        W28350   2.111   2.352  14.427 -0.1322 -0.3302  0.1972
13220W        W28351  11.826   6.085   2.874 -0.0875  0.1990  0.0346
13221W        W28352  13.648  16.548  12.955  0.0823  0.2311  0.0892
13222W        W28353   7.084   0.283  14.126 -0.0645  0.1108  0.1162
13223W        W28354  12.787  14.904   4.068 -0.0566 -0.1212 -0.0221
13224W        W28355  16.576  13.260   2.378  0.0501 -0.2987 -0.0119
13225W        W28356  17.117   1.305  13.556 -0.0470  0.1899 -0.0721
13226W        W28357   7.873   8.691   0.861 -0.0200  0.0275  0.3956
13227W        W28358   4.345   5.398   0.560 -0.0059 -0.0204 -0.2463
13228W        W28359   7.914   7.207  14.253  0.0004  0.0616 -0.1835
13229W        W28360  15.105  13.926  13.193 -0.0304 -0.2070 -0.1690
13230W        W28361  17.006   2.788  14.390  0.0136 -0.1030  0.1840
13231W        W28362   9.962   5.034  13.457 -0.4469  0.0990 -0.3100
13232W        W28363  10.306   3.298   1.116  0.2092 -0.2437  0.2972
13233W        W28364   8.025   6.813  14.793 -0.1931 -0.0641 -0.2274
13234W        W28365  14.928  15.486   1.520  0.0004  0.4202  0.1041
13235W        W28366  17.294   9.490   1.186 -0.0075 -0.3161 -0.1638
13236W        W28367  12.994   9.733  14.862  0.0180  0.0255  0.1800
13237W        W28368   0.656  13.177   5.225 -0.1862 -0.1149  0.0871
13238W        W28369  15.317   4.674  13.438  0.1915  0.2669 -0.2471
13239W        W28370   8.887   0.204   1.902 -0.0801 -0.1194  0.1804
13240W        W28371  13.635   4.574   5.387  0.1068 -0.1023  0.0710
13241W        W28372  15.050  16.220  13.985  0.1586 -0.0835  0.2680
13242W        W28373   2.927  18.255   2.820  0.0151 -0.4429 -0.1892
13243W        W28374   8.209   4.331   3.178  0.1449  0.1585  0.0248
13244W        W28375  17.988   1.493   0.919 -0.0494  0.1978 -0.0161
13245W        W28376   4.804   3.101   5.192  0.1161 -0.2048 -0.1054
13246W        W28377   2.576  14.229   4.334 -0.0463  0.0261  0.2216
13247W        W28378  13.696   5.285   1.907  0.0988 -0.2790 -0.0617
13248W        W28379   2.574   9.661   1.399 -0.1435  0.0790 -0.0295
13249W        W28380  15.209  13.792   1.596  0.2891 -0.0698 -0.0223
13250W        W28381  15.296   8.256  13.383 -0.0453  0.2615 -0.0503
13251W        W28382   0.221   9.758   4.624  0.1617 -0.2581 -0.0677
13252W        W28383  17.528   4.022   2.593 -0.0990  0.0361 -0.0858
13253W        W28384   6.649  10.658  15.229 -0.0588  0.1195 -0.0418
13254W        W28385   9.587   2.917   1.663  0.0101  0.2475  0.1223
13255W        W28386  15.066   9.023  11.449  0.0437 -0.3799  0.2576
13256W        W28387   8.009  13.178  13.314 -0.2387  0.2800  0.0068
13257W        W28388  15.034  12.112   1.809 -0.1584 -0.2632  0.0307
13258W        W28389   1.585   4.405   1.241 -0.2981 -0.1529  0.1106
13259W        W28390  15.393   1.961   4.435 -0.0999 -0.0982 -0.0801
13260W        W28391   5.031  13.853  14.617  0.1669 -0.1308  0.0013
13261W        W28392  14.933  14.080   5.098 -0.2096  0.3167  0.0717
13262W        W28393  10.934   2.826  10.104  0.0690  0.1941  0.1864
13263W        W28394   5.086   8.248  11.464 -0.0697  0.1845 -0.1620
13264W        W28395   4.936  11.159   2.753  0.3203 -0.2457 -0.3493
13265W        W28396  11.520   0.423  11.805  0.0534  0.1546 -0.0137
13266W        W28397  10.819   9.968   4.604  0.2195 -0.1069 -0.4008
13267W        W28398   6.139  13.931  10.831 -0.1219  0.4523  0.1281
13268W        W28399  18.395  10.642   6.353  0.2917  0.1165  0.0601
13269W        W28400  11.140  16.178   4.224  0.0333  0.1220 -0.0476
13270W        W28401  10.305   7.174  15.826  0.0128 -0.1416 -0.2421
13271W        W28402  17.200  13.411   4.248  0.0948 -0.1268 -0.2555
13272W        W28403  11.045   6.803   4.259 -0.1364  0.0652 -0.4799
13273W        W28404   8.293   9.999   4.356  0.3203  0.1205 -0.2570
13274W        W28405  11.915  18.165   2.132  0.0099 -0.0045  0.4640
13275W        W28406  13.630  13.453  10.189 -0.1082  0.0423 -0.0620
13276W        W28407   5.703   3.720   0.861 -0.0187 -0.0695 -0.0512
13277W        W28408  11.025   6.229  15.771 -0.0938 -0.3577 -0.2177
13278W        W28409   7.142   0.945   4.730 -0.0152 -0.4187  0.2197
13279W        W28410   0.555   3.440   5.688  0.0730 -0.1732  0.1292
13280W        W28411   4.040   8.934  12.600 -0.1192 -0.0730 -0.1310
13281W        W28412   1.894   8.335  11.930 -0.1037  0.1986 -0.2237
13282W        W28413   4.754  17.570   4.939 -0.0681  0.2147 -0.0472
13283W        W28414   8.458   0.780   2.948 -0.2292  0.0220 -0.3202
13284W        W28415   6.424  15.515  11.739  0.0925  0.1338  0.1670
13285W        W28416   2.344  17.798   1.806  0.0998  0.0599  0.3510
13286W        W28417  14.255  14.032  10.682 -0.1303  0.0055  0.2728
13287W        W28418   2.080  10.027  11.119 -0.1469  0.1824 -0.0560
13288W        W28419   4.025   0.487  11.857 -0.0576 -0.1745 -0.1195
13289W        W28420  18.366   9.049   3.283  0.1046 -0.0769  0.1603
13290W        W28421   1.365  16.638  11.324 -0.2485  0.1983  0.0897
13291W        W28422   5.797   3.662   4.397  0.3579 -0.1149 -0.2805
13292W        W28423   3.939  12.297   3.605  0.0866 -0.1107 -0.1073
13293W        W28424  15.763   7.848   4.695 -0.0618  0.2012  0.0264
13294W        W28425   9.584   6.335   4.813 -0.3275 -0.1092 -0.1961
13295W        W28426  12.425  14.324   3.268  0.2358  0.0645 -0.0429
13296W        W28427   0.879  11.595  13.591  0.1251  0.2285 -0.0538
13297W        W28428   6.594   2.692  13.555  0.3197  0.3837  0.0525
13298W        W28429   3.249  10.324  12.783 -0.2450  0.1793 -0.2467
13299W        W28430   1.133   4.090   3.633 -0.0734 -0.1189 -0.0463
13300W        W28431   7.509   5.410  13.469 -0.0380 -0.4674 -0.0237
13301W        W28432   3.256  10.680  15.729 -0.1265  0.1467 -0.0864
13302W        W28433  11.221   8.731   2.533 -0.2775 -0.1585  0.1660
13303W        W28434  15.195  16.662   2.203  0.4306 -0.0187 -0.0284
13304W        W28435  15.042  17.195   4.932  0.2064  0.1472  0.0918
13305W        W28436   0.727   6.241  15.324  0.3264 -0.0452 -0.2581
13306W        W28437   3.133   6.463   2.070  0.3831 -0.0174 -0.2860
13307W        W28438   2.516   2.084   1.842  0.2347 -0.4211  0.2496
13308W        W28439   1.525   1.998   3.706 -0.0257  0.2151 -0.0173
13309W        W28440   4.720   9.047  11.177 -0.2342 -0.0453 -0.0811
13310W        W28441   0.937   8.743   1.471 -0.0513  0.1725 -0.4032
13311W        W28442  18.001   2.336  11.670  0.1106 -0.2088  0.0381
13312W        W28443   0.295  16.182  12.220  0.1687  0.1752  0.0216
13313W        W28444  15.560  13.680   4.185 -0.0721 -0.0778  0.1834
13314W        W28445   7.836  17.183  11.416 -0.1927  0.2859 -0.1799
13315W        W28446  14.112   1.352   6.020  0.2772 -0.3829 -0.0991
13316W        W28447  11.566  17.330  10.800  0.0720  0.1286  0.1192
13317W        W28448   3.156   0.930  11.696  0.0018 -0.0504  0.0022
13318W        W28449  11.775  17.736  10.586 -0.2327 -0.1536 -0.3932
13319W        W28450   5.332  12.101  11.986  0.2149  0.3073 -0.0157
13320W        W28451   6.522   2.614  10.859 -0.0480 -0.2424 -0.1716
13321W        W28452   6.093   6.910  11.645 -0.0992 -0.1310 -0.1698
13322W        W28453   4.562  13.763  13.474  0.0098  0.0886  0.2697
13323W        W28454   5.182   3.885  12.881 -0.1350  0.1228  0.0612
13324W        W28455  16.747   4.004  11.126  0.2259 -0.1764 -0.0772
13325W        W28456  11.527   8.315   0.382 -0.0518  0.1781  0.1024
13326W        W28457   3.974   7.872  11.482  0.0396  0.2501  0.2643
13327W        W28458   4.347   7.599  14.931  0.0239  0.0007 -0.1091
13328W        W28459  12.917  12.063   2.443 -0.2130 -0.1148  0.0201
13329W        W28460  13.518   1.132  15.579  0.0735  0.0200 -0.1728
13330W        W28461  15.974   0.716   1.883 -0.1761  0.0992 -0.1635
13331W        W28462  15.282   8.684   1.362 -0.1524  0.0318  0.1847
13332W        W28463   4.663  12.405  11.143 -0.0362 -0.0712 -0.0188
13333W        W28464   5.313  12.226   4.529 -0.1290  0.3750  0.1694
13334W        W28465  17.476  15.154  14.329 -0.1553  0.1000  0.4765
13335W        W28466   4.507   4.963   1.886  0.1927 -0.0026  0.1207
13336W        W28467  18.302   1.531   5.728 -0.1307 -0.1001  0.0404
13337W        W28468   5.937  10.796  14.676 -0.1118  0.0258  0.3684
13338W        W28469  12.512   4.223   1.399 -0.0375 -0.1462 -0.0721
13339W        W28470  12.710   5.685  11.145 -0.2638 -0.3578  0.2664
13340W        W28471   4.677   1.987  13.266 -0.0706 -0.6382  0.2049
13341W        W28472  18.202   1.082   4.377 -0.0996 -0.2374 -0.1799
13342W        W28473  14.175  15.800   3.895 -0.0001  0.0666  0.0980
13343W        W28474  14.535  16.486  13.776 -0.1278  0.4206 -0.0461
13344W        W28475   1.004  17.069  11.615  0.3042 -0.3051 -0.2546
13345W        W28476   0.317  17.710  13.684  0.1218 -0.0876 -0.0623
13346W        W28477  11.656  12.965   1.882  0.1637 -0.1224 -0.1403
13347W        W28478   9.201   0.189   0.129  0.0696 -0.1046  0.0563
13348W        W28479   7.134  17.292  11.204  0.3200 -0.2226  0.0960
13349W        W28480  10.750  18.540  14.283 -0.0881 -0.0406 -0.1205
13350W        W28481   9.077   4.289   0.407 -0.1115  0.0493 -0.0952
13351W        W28482  12.393  14.877   5.664 -0.0601 -0.0576 -0.0080
13352W        W28483  10.874   7.503  12.753 -0.0350  0.2530 -0.0752
13353W        W28484  17.588  15.606  11.721  0.0817 -0.1419  0.1042
13354W        W28485   0.247  16.601   0.832 -0.1127  0.6686  0.0397
13355W        W28486  14.949  13.198  11.936  0.0386 -0.1017 -0.0594
13356W        W28487  11.151   9.671   2.903  0.0926  0.0545  0.0266
13357W        W28488  16.911  10.572  15.353 -0.0981 -0.0088 -0.2649
13358W        W28489  14.877   2.677  13.275 -0.2722 -0.0514  0.0323
13359W        W28490   3.485   0.552   2.444 -0.1511 -0.1187  0.0899
13360W        W28491   8.445   5.288  14.912 -0.2849  0.4227  0.0792
13361W        W28492  13.209  13.921   5.837  0.1580 -0.3279 -0.2283
13362W        W28493   2.247   2.688  15.219  0.2153  0.0452  0.1040
13363W        W28494   4.792  18.321  10.288  0.0842 -0.3010 -0.2689
13364W        W28495  18.305   5.757  13.681 -0.1609 -0.1335  0.0801
13365W        W28496  15.323   0.033   1.845 -0.0478  0.0719 -0.0499
13366W        W28497  15.433  14.348  15.456  0.1377  0.3240 -0.2994
13367W        W28498   2.606  12.483   1.425 -0.0303 -0.0354 -0.2356
13368W        W28499  11.106   8.743  14.242 -0.3071  0.3247  0.0517
13369W        W28500   8.079  15.898  15.127  0.0058 -0.4727  0.1198
13370W        W28501  17.226   4.071   1.101  0.2016  0.0966  0.0200
13371W        W28502   7.180   2.906   3.261  0.0027 -0.1302 -0.1935
13372W        W28503   4.897  10.242   4.062 -0.1240  0.3606 -0.2991
13373W        W28504   4.986   3.129  15.461  0.1859  0.1227  0.0402
13374W        W28505   9.242  12.545  13.713 -0.0816 -0.0196 -0.0581
13375W        W28506  11.513  10.327   5.178 -0.1664  0.4320 -0.0091
13376W        W28507  14.377  13.054  14.640  0.2420 -0.1710 -0.0424
13377W        W28508   7.884  11.847  11.477  0.0506  0.1629  0.1023
13378W        W28509   9.951  17.403  14.805  0.1618  0.1931  0.1381
13379W        W28510   0.793   9.890  14.853  0.1981 -0.2486 -0.0106
13380W        W28511  18.330   4.704  14.213  0.2996  0.2450 -0.0067
13381W        W28512  11.975   4.958   5.829  0.2220 -0.2159 -0.1189
13382W        W28513   8.601  14.939  11.216  0.1137 -0.0439  0.0362
13383W        W28514  13.991   9.533  11.526  0.2259 -0.2904  0.0659
13384W        W28515   5.813   6.318   4.917 -0.0666 -0.2211 -0.0178
13385W        W28516   8.372   2.052   0.474  0.1142 -0.0462 -0.2475
13386W        W28517   4.929  16.110  13.866 -0.1028 -0.2067 -0.1962
13387W        W28518  14.962  11.808   2.498  0.0274 -0.3071 -0.1752
13388W        W28519   6.293   2.042   9.497  0.0231  0.2218 -0.0168
13389W        W28520  10.079   8.642  11.311 -0.2069 -0.2135  0.0768
13390W        W28521   5.355   2.476   4.309 -0.2262  0.0103  0.1937
13391W        W28522  12.255   6.062   4.841 -0.1715 -0.3292  0.0495
13392W        W28523  14.042   9.673   1.809 -0.2195 -0.4588  0.2093
13393W        W28524  13.052  17.954  13.530  0.1043 -0.0898  0.1058
13394W        W28525   8.452   1.591  15.218  0.0706  0.2024  0.1042
13395W        W28526  11.451   6.151   4.859  0.0183 -0.1212  0.2755
13396W        W28527   1.372  12.370  10.757  0.2198  0.0799 -0.1778
13397W        W28528  11.259   3.692  14.908 -0.0531  0.0371 -0.1737
13398W        W28529   0.047   6.041  12.434  0.0184 -0.1548 -0.0742
13399W        W28530  12.682  16.451  13.501  0.0512  0.2755 -0.0081
13400W        W28531  15.835   6.636  11.052 -0.3900  0.0111  0.0533
13401W        W28532  13.016  13.077  11.256 -0.0174 -0.0293 -0.1409
13402W        W28533   2.407  12.369   3.740 -0.0005 -0.2000  0.1497
13403W        W28534   8.603   9.246   0.159 -0.1081  0.1383  0.2256
13404W        W28535   3.595  17.205   0.014  0.2408  0.0976 -0.0615
13405W        W28536   8.637   6.904  10.043  0.1698 -0.1900  0.2766
13406W        W28537   6.079  13.959   2.446 -0.2246  0.2015 -0.0051
13407W        W28538  12.958   0.867  13.988 -0.0023 -0.0563 -0.3281
13408W        W28539   8.373   1.868   1.995 -0.1237 -0.2289  0.2506
13409W        W28540  15.975  14.636   3.242  0.1328  0.0624 -0.4547
13410W        W28541   0.702   5.575  11.437  0.1430 -0.2313 -0.1312
13411W        W28542   3.572   4.294  15.527 -0.3043 -0.0307  0.0990
13412W        W28543   2.859  11.299   4.755  0.2141 -0.1164 -0.3025
13413W        W28544  17.823   0.464  14.454  0.2653 -0.0299  0.0836
13414W        W28545  12.199  11.663  15.536  0.1558  0.1665  0.3742
13415W        W28546  13.043   7.246  15.577  0.1005 -0.0539  0.3850
13416W        W28547   0.056  10.354   5.928 -0.2175  0.0630 -0.0204
13417W        W28548  13.651   7.269   6.125  0.2168  0.1205  0.1733
13418W        W28549   2.477   0.208  11.351  0.0913 -0.3049 -0.3276
13419W        W28550   2.346  14.904   4.535  0.0055  0.1496 -0.1213
13420W        W28551   6.518   1.763  10.512  0.5438 -0.1491  0.0519
13421W        W28552   0.685   0.504   4.520 -0.1052  0.2487 -0.0890
13422W        W28553   3.933  11.775  15.423 -0.0191 -0.1069  0.0515
13423W        W28554  17.073  10.890   0.394  0.1255  0.1396 -0.0132
13424W        W28555   3.164   1.239   1.714  0.1368 -0.1533 -0.0238
13425W        W28556   4.196   4.678  12.965 -0.4389  0.0116 -0.1215
13426W        W28557  11.257   4.286   3.596 -0.0518  0.1284  0.2036
13427W        W28558   8.943   7.235  15.290 -0.0259  0.0851 -0.1237
13428W        W28559  16.313  17.980   5.091 -0.0922  0.1523  0.3551
13429W        W28560   4.001  12.583   5.108  0.0553 -0.1258  0.2550
13430W        W28561   9.834   9.137   0.645 -0.0610 -0.3263  0.1946
13431W        W28562   5.621   4.636  11.598  0.1475 -0.0188 -0.1053
13432W        W28563  16.170   8.682   4.876  0.2308 -0.1832 -0.2827
13433W        W28564   4.473   7.307  10.104 -0.0049  0.1202  0.1303
13434W        W28565  16.414  17.040   1.908 -0.4149  0.1775 -0.1091
13435W        W28566  10.587   6.586   3.278  0.1017  0.3800  0.2613
13436W        W28567  11.361   7.988   3.657  0.0168  0.2310  0.2260
13437W        W28568   4.541  17.571  12.978 -0.1924  0.0208  0.2895
13438W        W28569  18.565   2.015  15.269 -0.1462 -0.2389 -0.1431
13439W        W28570  15.656   4.292  13.742  0.0013 -0.4228  0.0279
13440W        W28571   5.080   1.317  13.564  0.3382 -0.3423 -0.0213
13441W        W28572   1.796   5.435  13.416 -0.2479 -0.1721 -0.7345
13442W        W28573   1.318   6.339   1.509  0.1424  0.1312  0.5194
13443W        W28574   8.234  18.169   1.961  0.0013  0.2547  0.0616
13444W        W28575   8.146  10.251  12.265 -0.0281  0.1617  0.1827
13445W        W28576   6.686  14.703   2.551  0.2175 -0.0237  0.0185
13446W        W28577  17.827  17.124   2.477  0.0606 -0.1138  0.3194
13447W        W28578  14.390  11.549  14.835 -0.0958 -0.1554  0.0605
13448W        W28579  13.929  14.789   4.815 -0.0708 -0.2800 -0.1712
13449W        W28580   9.427  17.232  13.029 -0.1011  0.2020 -0.2771
13450W        W28581   6.258  10.031  11.182 -0.2861 -0.0656  0.0852
13451W        W28582   9.176   8.718   0.005  0.3155 -0.2096  0.0853
13452W        W28583   1.186  17.191   5.509  0.2471 -0.0668  0.0757
13453W        W28584  15.093  10.468   0.563 -0.2990 -0.1676  0.1566
13454W        W28585   8.475   0.127   3.850 -0.2509 -0.2174 -0.1262
13455W        W28586   6.598   5.451   3.691  0.0922  0.0025  0.1314
13456W        W28587  11.720   1.461  11.680 -0.1323  0.5580  0.0859
13457W        W28588   9.181   6.568   1.044  0.0686 -0.2254 -0.2123
13458W        W28589  18.428  14.161  13.980 -0.1264  0.0042 -0.0986
13459W        W28590   7.857   2.302   3.640 -0.0240 -0.1111 -0.1867
13460W        W28591   2.463   4.506   3.876  0.1749 -0.1718 -0.2244
13461W        W28592   6.256   4.449   0.598 -0.2256  0.0111 -0.0392
13462W        W28593  11.866   3.431  11.629  0.1441  0.0459 -0.4367
13463W        W28594  11.017  14.657  10.343  0.1965  0.1430  0.1415
13464W        W28595   5.281  10.776  15.090 -0.0482  0.0444  0.2296
13465W        W28596  11.724   0.111  12.214  0.0863 -0.0179  0.0396
13466W        W28597  13.208   3.176   1.942  0.0904  0.1078 -0.0672
13467W        W28598   1.402  11.543   1.781  0.0432  0.1009 -0.1437
13468W        W28599  12.510  10.261   5.268  0.0605 -0.2596 -0.0418
13469W        W28600   7.560  12.064  12.866  0.0532  0.0137  0.1612
13470W        W28601   5.013  10.916   4.739 -0.2869 -0.1876 -0.0673
13471W        W28602   4.680  14.494  13.179 -0.0563  0.1973  0.0227
13472W        W28603   1.658  16.081   0.976  0.2675  0.1933 -0.1856
13473W        W28604   5.589   8.795  13.947  0.1410  0.0113 -0.0301
13474W        W28605   1.769   1.046   4.911  0.0108  0.0689  0.0778
13475W        W28606  14.992   6.170  11.630 -0.0735 -0.0964 -0.0925
13476W        W28607  14.878   1.136   3.502 -0.0466  0.0299 -0.2956
13477W        W28608  14.522   1.683   0.405  0.2867 -0.1977 -0.0003
13478W        W28609  15.988  10.004  12.526 -0.2483  0.1943 -0.1117
13479W        W28610  13.524  10.044   3.096 -0.2046 -0.0207 -0.1569
13480W        W28611  10.471  18.223   1.558  0.1638  0.1413  0.0523
13481W        W28612  14.013   3.332  12.630  0.3374 -0.0725  0.1449
13482W        W28613   3.662   6.482  12.985  0.0155  0.0452  0.0027
13483W        W28614   5.352   4.576   3.616 -0.2759  0.1568 -0.1583
13484W        W28615   4.277   3.062   0.801  0.1552 -0.0314  0.1723
13485W        W28616   5.379   3.334   0.581 -0.0878 -0.1785 -0.0548
13486W        W28617   5.373  17.516   1.788  0.2444 -0.0532 -0.1767
13487W        W28618   3.156  13.120   4.286 -0.0460 -0.2959 -0.0030
13488W        W28619  15.930   5.957  12.401 -0.3282  0.0333  0.0009
13489W        W28620   0.980  15.255   1.056 -0.0127  0.0790 -0.1482
13490W        W28621  11.875   9.415   1.804 -0.1639 -0.1411 -0.1919
13491W        W28622  16.590  14.096  11.597  0.1155  0.1537  0.2913
13492W        W28623   6.724  12.863  12.844 -0.3583 -0.0732  0.0560
13493W        W28624   2.808   0.186   0.759 -0.0116 -0.2286 -0.1452
13494W        W28625   8.969  14.687   0.636 -0.0732 -0.1678 -0.0113
13495W        W28626  11.312   1.558  13.915 -0.3358 -0.1306 -0.2915
13496W        W28627  14.568   9.228   3.958 -0.3150 -0.2150 -0.1970
13497W        W28628   1.299  14.519  12.989  0.1049 -0.2326 -0.1225
13498W        W28629  14.006  17.721   0.304 -0.0062 -0.0746  0.0581
13499W        W28630   4.189  12.845   9.585  0.1799  0.1707  0.1338
13500W        W28631   1.710   9.239   0.777 -0.2420  0.0525 -0.0145
13501W        W28632   5.713  13.299   1.229 -0.2186 -0.0364  0.0032
13502W        W28633  12.944  14.264   1.730 -0.1014  0.1016  0.0610
13503W        W28634   0.377   2.810  15.212 -0.1264  0.2082  0.0046
13504W        W28635   8.357  12.136   3.215  0.1670 -0.1076  0.1173
13505W        W28636   7.862   9.183   5.153  0.1819 -0.2490  0.0486
13506W        W28637   4.541  11.986  15.413  0.1759 -0.0271  0.0284
13507W        W28638   3.692  18.388   3.519  0.2897 -0.1316  0.2807
13508W        W28639   8.676   8.412  12.127  0.1457  0.1067 -0.3632
13509W        W28640  15.914  11.664  15.423  0.1597  0.1298  0.0007
13510W        W28641   0.846   4.898  15.539  0.3460 -0.0337  0.2987
13511W        W28642   3.331  15.674   0.285 -0.2621 -0.2214  0.1150
13512W        W28643   4.821  13.588  12.574  0.2980  0.1214 -0.3669
13513W        W28644  17.014  15.484   3.899 -0.1605 -0.1225  0.3647
13514W        W28645   1.961   5.497   1.493  0.1867  0.0033  0.0503
13515W        W28646   5.162  14.338   9.368 -0.2117  0.4061  0.0230
13516W        W28647   5.785  16.628  15.348 -0.2108  0.0659  0.0487
13517W        W28648   7.334  12.837   4.412 -0.2222  0.3988  0.0324
13518W        W28649  15.789   6.175   5.024  0.0465 -0.3226 -0.0241
13519W        W28650   9.581   6.808  14.041  0.1031 -0.3327  0.0005
13520W        W28651   5.034  14.789  12.653  0.2011  0.0650  0.1583
13521W        W28652   4.380  12.359  14.727 -0.0660  0.2120  0.4157
13522W        W28653  14.284   1.795  12.472 -0.0126 -0.1704  0.2757
13523W        W28654  14.088  13.517  12.859  0.2155  0.0045 -0.0969
13524W        W28655  13.396   3.843  12.808 -0.0109 -0.1952  0.0664
13525W        W28656   1.339   9.711   0.856 -0.0121 -0.1174 -0.1519
13526W        W28657   2.001  14.737  15.422 -0.2831  0.1163  0.0012
13527W        W28658   4.522   0.771   0.100  0.0566 -0.3583 -0.1510
13528W        W28659   0.858   2.860   1.454 -0.3841  0.2117  0.1374
13529W        W28660   9.643   0.892   2.490 -0.2179  0.3379 -0.0358
13530W        W28661   3.095   4.379   3.039 -0.1060  0.0558  0.3196
13531W        W28662   3.594   3.124  15.271 -0.3744  0.0958 -0.0407
13532W        W28663  18.193   3.453  14.542 -0.2127 -0.0213 -0.0547
13533W        W28664   2.886   9.027  15.899 -0.1395 -0.0325 -0.0708
13534W        W28665  13.128   4.939   0.743  0.1646 -0.4052 -0.3746
13535W        W28666   5.078  17.287   3.325 -0.1187 -0.1085 -0.3938
13536W        W28667   8.750  10.728   3.631  0.2132 -0.0630  0.1395
13537W        W28668  16.976  13.996  13.945  0.4367 -0.2715 -0.3290
13538W        W28669  14.208   0.357  15.207 -0.2615 -0.3959 -0.1574
13539W        W28670  11.885   3.499  14.235  0.1259  0.0330 -0.1468
13540W        W28671  16.801   4.441   6.029  0.0111 -0.3179  0.1282
13541W        W28672   4.797   0.307  10.942 -0.1115 -0.0866  0.0173
13542W        W28673   3.335  13.843   3.443 -0.1513  0.0619  0.0470
13543W        W28674   8.006   6.559  13.934 -0.0624 -0.0633 -0.2471
13544W        W28675   1.472   5.833   2.021 -0.0745 -0.0562  0.0865
13545W        W28676  13.317   0.989  12.085 -0.0626  0.3375  0.0517
13546W        W28677   9.210  13.726  15.761 -0.1009  0.1974  0.1966
13547W        W28678   4.078  17.544   2.153 -0.2177 -0.2474  0.1200
13548W        W28679  10.471   3.606  12.334 -0.0552  0.0600 -0.3302
13549W        W28680  13.405   0.389   0.291 -0.1184  0.1609  0.0905
13550W        W28681   3.131  14.871  10.909  0.2622 -0.0745 -0.0517
13551W        W28682  16.139   1.493   2.780  0.2541 -0.1073  0.2725
13552W        W28683   9.746  12.876   3.782 -0.0997  0.0655 -0.2432
13553W        W28684   2.484  12.057   4.249 -0.0627 -0.0233  0.1649
13554W        W28685   0.045   0.905   5.172  0.0355 -0.2553 -0.2148
13555W        W28686  15.941   0.417   2.309 -0.0767  0.1225  0.3761
13556W        W28687   3.156   9.164   3.151  0.0853 -0.0097 -0.2341
13557W        W28688  17.286  16.182   0.611  0.0072  0.3084 -0.1986
13558W        W28689   9.173  14.913  12.237 -0.2001 -0.0841 -0.1044
13559W        W28690  15.452  10.027  13.723  0.2355 -0.2258 -0.1557
13560W        W28691  13.151  13.092  13.963 -0.0870  0.0962  0.2674
13561W        W28692  14.303   5.944   1.721 -0.2453 -0.0786  0.0979
13562W        W28693   9.007  13.392  10.173  0.1071 -0.2450  0.1236
13563W        W28694   6.998   0.758  15.720  0.2629 -0.0710 -0.2024
13564W        W28695  13.809   3.204  14.000  0.2408  0.1252  0.0339
13565W        W28696   3.584   9.245   1.345  0.0250 -0.1866  0.1981
13566W        W28697   9.288  14.589  13.496 -0.0317 -0.1278  0.4350
13567W        W28698   6.792  14.985  14.242  0.0604  0.0406  0.1089
13568W        W28699  10.005   6.910   3.974 -0.2590  0.2753 -0.1041
13569W        W28700  15.458   7.587  13.123 -0.2509 -0.0238  0.1915
13570W        W28701   8.268   8.283   0.455  0.0337 -0.0431 -0.4115
13571W        W28702   8.247  16.482  13.410 -0.1824  0.2020 -0.1339
13572W        W28703   9.003  13.195   4.163  0.0963 -0.0475  0.2281
13573W        W28704   8.359   1.827  14.559 -0.2443  0.1016 -0.0474
13574W        W28705   5.397  10.141  13.235  0.1047  0.3987  0.2060
13575W        W28706  12.491  16.491  10.825 -0.2621  0.2601  0.0426
13576W        W28707  11.734   7.095  12.002  0.2120  0.1595 -0.0619
13577W        W28708   8.918   4.209  15.353 -0.2674 -0.3286  0.0278
13578W        W28709   6.309  10.317   1.421  0.0378 -0.0128 -0.0821
13579W        W28710   4.875  16.045  13.396 -0.0182  0.2203  0.0050
13580W        W28711  13.584   1.244  12.556  0.2221  0.0023  0.0718
13581W        W28712  12.946  17.597   1.774 -0.0153  0.2933 -0.0217
13582W        W28713  17.657   6.220  11.434 -0.1016  0.0855  0.2044
13583W        W28714   8.959   2.120  10.687  0.3711  0.1273 -0.1203
13584W        W28715   5.313  17.860   2.302 -0.1417 -0.2368  0.2168
13585W        W28716   7.324   9.097   1.471  0.1605  0.0954  0.0954
13586W        W28717  16.459  13.611   5.284  0.1099 -0.1715 -0.2416
13587W        W28718  17.294   3.520  14.842  0.3355  0.1380 -0.0429
13588W        W28719  12.319  17.888   2.516  0.2178  0.0639 -0.0839
13589W        W28720  16.155  12.786   1.937  0.1435  0.2979  0.0765
13590W        W28721   5.697  15.924   2.748  0.0752  0.1007  0.1159
13591W        W28722   5.633   2.909   4.229 -0.0057 -0.0123 -0.0764
13592W        W28723   2.542   4.058  13.571  0.1606  0.0358 -0.2981
13593W        W28724   5.727  11.903   1.158  0.1070  0.2069 -0.1682
13594W        W28725   6.524  17.046  10.812 -0.0015 -0.1732  0.0317
13595W        W28726  16.602   4.931   0.654 -0.0964  0.2895  0.0381
13596W        W28727  16.442   8.640  10.766 -0.0595 -0.0993  0.2030
13597W        W28728   2.937  16.548   3.010  0.1182 -0.0354 -0.0853
13598W        W28729  11.348   4.021   0.165 -0.1346 -0.2121  0.3613
13599W        W28730  14.937   9.004   1.942  0.1361 -0.2283  0.3911
13600W        W28731   1.376  12.585   3.687 -0.0377 -0.0837 -0.0716
13601W        W28732  15.794   6.293   2.058 -0.1480  0.1378 -0.0775
13602W        W28733   5.042  10.453   1.300  0.0442  0.1053 -0.5813
13603W        W28734   9.038  12.382   2.494  0.0446 -0.2340  0.0696
13604W        W28735   8.181   1.171   2.689 -0.1920 -0.2516 -0.1243
13605W        W28736   0.348  13.088   1.937  0.0102  0.1327  0.0816
13606W        W28737  11.486  10.165   6.503 -0.0976  0.2610  0.0462
13607W        W28738   0.249   3.488  15.917  0.2189  0.1239  0.1522
13608W        W28739  18.502   3.406   5.167 -0.5249  0.1061 -0.0771
13609W        W28740  14.573   5.590   2.703  0.0366 -0.2153 -0.0279
13610W        W28741  14.261   8.751   6.039  0.1909 -0.0898  0.1359
13611W        W28742   0.685   3.097   3.073  0.1908 -0.1724  0.1012
13612W        W28743  17.202   0.049  12.150 -0.1606  0.2340 -0.0983
13613W        W28744   0.806  11.865   5.188  0.3106 -0.0296 -0.1250
13614W        W28745  16.266  12.200   1.472 -0.2084  0.2241 -0.0128
13615W        W28746  13.719   7.478   1.914  0.0422  0.0896 -0.0322
13616W        W28747  12.339   2.965  15.177  0.1615  0.0282 -0.1973
13617W        W28748  12.236   5.391   4.751 -0.0342 -0.3717  0.1306
13618W        W28749   1.633  12.711  10.977 -0.2024  0.0112  0.1298
13619W        W28750   1.856   9.568  11.984 -0.2573 -0.0313  0.2317
13620W        W28751   9.680   8.844   0.229 -0.0440  0.1926 -0.0505
13621W        W28752   2.673  17.340   0.934 -0.0124 -0.0411 -0.1885
13622W        W28753   1.205   5.213   3.513 -0.1352 -0.2266  0.0640
13623W        W28754  15.658   7.532  10.941 -0.0194  0.0460  0.4414
13624W        W28755   4.578   2.668  11.272  0.0699 -0.0701  0.2769
13625W        W28756   0.228   5.144  10.468 -0.3756  0.0537 -0.1718
13626W        W28757  17.472   0.640   0.829 -0.3333 -0.1174 -0.1951
13627W        W28758  18.464  15.255  13.269  0.0540  0.1357 -0.3231
13628W        W28759  17.040  15.848   3.475 -0.0796  0.3009 -0.0057
13629W        W28760  11.260   5.281  15.700  0.0885  0.0290  0.0685
13630W        W28761   4.335  12.757  13.137 -0.1500  0.1602  0.1715
13631W        W28762   7.158   4.032  11.899  0.2247  0.0194  0.4844
13632W        W28763  17.214   2.518  13.017 -0.0566 -0.1611  0.2650
13633W        W28764   3.611   8.602  10.807 -0.1494 -0.0724  0.1617
13634W        W28765   1.113   7.680   3.913 -0.0802  0.1539 -0.0562
13635W        W28766  11.812   7.277   0.446  0.4876 -0.0653 -0.0698
13636W        W28767   2.410  14.306  15.457 -0.1628 -0.1746  0.1904
13637W        W28768   1.867   9.447  13.226 -0.1041 -0.1071 -0.0294
13638W        W28769  16.264   1.292   3.768 -0.0528  0.0050  0.0346
13639W        W28770   7.827   6.672  15.647  0.4633 -0.0867  0.2059
13640W        W28771  13.995  14.051  13.501 -0.0578 -0.2192 -0.1294
13641W        W28772  16.471  10.624  12.101 -0.0078 -0.1679  0.1885
13642W        W28773   6.507  15.967   0.825  0.0257 -0.0609 -0.1322
13643W        W28774   8.505   8.867  14.706  0.2476 -0.1354  0.2082
13644W        W28775   4.386   8.806  11.621 -0.2756 -0.0591  0.3869
13645W        W28776  14.085  12.281  11.673  0.0985 -0.3235 -0.1843
13646W        W28777  10.335   7.611  12.043  0.1019  0.0002  0.1095
13647W        W28778   3.831   9.387  10.850  0.2023 -0.1678  0.0360
13648W        W28779   1.736  10.342  11.366 -0.2497 -0.0555 -0.1268
13649W        W28780   7.393   3.315  13.024  0.0784 -0.1141  0.0290
13650W        W28781   3.619  11.827   1.658 -0.5008 -0.1357  0.0154
13651W        W28782   4.251  13.252  15.513  0.0546  0.1719 -0.1253
13652W        W28783  15.112   4.263   3.013  0.2820 -0.1887 -0.3000
13653W        W28784   2.453  13.517  10.689  0.2848  0.1917  0.4696
13654W        W28785  15.958   5.487  12.421 -0.2466  0.1353 -0.0321
13655W        W28786   0.572  18.271   1.805 -0.0193 -0.1173 -0.1592
13656W        W28787   3.640  11.811  11.155  0.0054  0.0855  0.2796
13657W        W28788   0.043   7.735   2.187  0.0087 -0.3408  0.2431
13658W        W28789   0.315  14.321  11.684 -0.1048  0.0107 -0.2278
13659W        W28790  15.577  10.142   3.685  0.2519 -0.0436  0.2353
13660W        W28791  15.216   1.653   5.830  0.4240 -0.1051 -0.0405
13661W        W28792   8.714   4.751   1.196 -0.4524  0.2786 -0.0915
13662W        W28793  13.030  10.455  10.396  0.1959 -0.3170 -0.1225
13663W        W28794   4.874  11.876   0.576  0.1499 -0.1391  0.1026
13664W        W28795   7.172   9.568  14.363 -0.3672  0.3291  0.1293
13665W        W28796  15.518   2.597   2.553 -0.0353 -0.0242 -0.3644
13666W        W28797  14.909  14.654   1.767  0.0435  0.2641 -0.1280
13667W        W28798   1.483   9.349  14.383 -0.0636 -0.0159  0.0322
13668W        W28799  17.072   9.808  12.687 -0.3754  0.0051  0.0310
13669W        W28800   7.397  16.660   0.828 -0.0636 -0.1758  0.0992
13670W        W28801  11.506   6.213  15.553 -0.0354 -0.0217  0.3208
13671W        W28802  13.666   3.681   0.843 -0.5318 -0.3834 -0.3821
13672W        W28803   2.214   0.038   4.545  0.2178 -0.0889  0.3563
13673W        W28804   8.317   7.324  11.369  0.4345  0.0982  0.4023
13674W        W28805  11.072  13.275   2.626 -0.0253 -0.0759 -0.0429
13675W        W28806  15.454  17.451   0.826 -0.0516 -0.4268  0.1082
13676W        W28807   1.586   6.040   2.992  0.2606  0.0871 -0.0904
13677W        W28808  13.404   3.205   0.612 -0.0088 -0.2977 -0.1357
13678W        W28809   8.709   6.756   1.137 -0.0778  0.0988 -0.2048
13679W        W28810   2.146   5.431   3.039 -0.1483 -0.2000  0.0439
13680W        W28811  13.001  10.277   1.296 -0.0838  0.0256 -0.0289
13681W        W28812   3.530   9.788   4.110 -0.4180  0.1123 -0.0067
13682W        W28813   5.609  14.428   0.082  0.1513  0.0195 -0.4382
13683W        W28814  11.683  12.881   4.586 -0.3913  0.3710  0.2467
13684W        W28815   3.717   8.454   4.185 -0.2341 -0.0295 -0.2404
13685W        W28816  15.268  12.752  15.227 -0.3684 -0.0521 -0.1245
13686W        W28817   6.735  14.047   0.148  0.1949 -0.0427  0.3786
13687W        W28818  11.228   4.227  11.625  0.0868 -0.0094  0.1029
13688W        W28819   1.257   8.642  14.430 -0.0765 -0.1071  0.0297
13689W        W28820  15.093   3.179   5.787  0.3371 -0.1655 -0.0388
13690W        W28821  12.522   4.177   4.750  0.0069  0.2963  0.1232
13691W        W28822   4.073  17.790  13.904 -0.1888 -0.0529  0.1628
13692W        W28823   6.317   3.072  15.682  0.0152  0.1790  0.0047
13693W        W28824   1.434  15.445   5.456 -0.0574  0.1631 -0.0662
13694W        W28825  15.267  11.937   1.365  0.0489 -0.2676  0.0148
13695W        W28826  16.334  15.839  15.673 -0.1200 -0.2730  0.5497
13696W        W28827  18.252   1.361  14.054 -0.1448 -0.3309 -0.1449
13697W        W28828  17.084  11.834   1.233  0.0657 -0.1747 -0.1685
13698W        W28829  13.718   9.962  11.399  0.2036  0.3465 -0.1945
13699W        W28830   8.073   0.704   4.816  0.2969  0.2498 -0.0867
13700W        W28831  10.466  12.638  12.224  0.6405  0.1551 -0.2309
13701W        W28832  10.469  14.056  15.501  0.0942  0.2317 -0.3870
13702W        W28833   8.186   2.437   3.183 -0.2878 -0.0801 -0.0352
13703W        W28834  13.595  10.902  11.523 -0.0262  0.0101  0.1942
13704W        W28835  11.388   9.855  12.105 -0.0148 -0.3389  0.1603
13705W        W28836  11.304   3.484  15.362 -0.0765  0.0362  0.2798
13706W        W28837   8.351   4.377  15.832 -0.1431  0.0516 -0.3889
13707W        W28838   1.883  12.333  11.279 -0.1951  0.0290  0.1092
13708W        W28839   7.438  13.461  13.955 -0.0004 -0.1831 -0.1037
13709W        W28840   2.525   1.905  14.112  0.1859  0.3558  0.0185
13710W        W28841   9.909   6.206  13.189 -0.0602 -0.1757 -0.0472
13711W        W28842  16.316  14.644  10.911  0.0470 -0.0353 -0.0839
13712W        W28843  17.341  16.215   3.623  0.0830 -0.1813 -0.2985
13713W        W28844  12.935   8.313  14.992 -0.0409  0.2500  0.1216
13714W        W28845  12.423  16.028  14.455  0.1340 -0.0746  0.0034
13715W        W28846  12.137  18.411   4.454  0.3193  0.2475 -0.1296
13716W        W28847   9.062  18.029  14.826  0.0384 -0.2967 -0.2745
13717W        W28848   4.716   1.748  14.957 -0.0722  0.1268  0.0396
13718W        W28849  12.236  10.017   1.699 -0.1513 -0.0114  0.0891
13719W        W28850  16.778  11.275   5.369 -0.0611  0.3866 -0.3131
13720W        W28851   7.229  17.998   3.285  0.1351 -0.1081  0.2857
13721W        W28852   0.063  11.982  11.485 -0.0379 -0.1759 -0.2916
13722W        W28853  12.649   3.654  15.738  0.1846 -0.0515 -0.1276
13723W        W28854   5.073   8.979   1.069 -0.1888 -0.1128 -0.1341
13724W        W28855  10.012  16.292  12.756 -0.3374 -0.1139  0.2021
13725W        W28856  15.858  11.009   0.053  0.1716  0.3963  0.1833
13726W        W28857  11.195   4.530  12.501 -0.0218  0.0176  0.1710
13727W        W28858  17.449   6.571  13.899 -0.1613 -0.0947 -0.3208
13728W        W28859  17.729   9.732  15.807 -0.1056  0.0418  0.2192
13729W        W28860  17.951  15.108   5.316 -0.0857 -0.1522  0.3671
13730W        W28861  10.861   9.619   3.342 -0.1166 -0.0232 -0.2121
13731W        W28862  12.101  17.459   0.811  0.1387 -0.1710  0.0751
13732W        W28863   5.524   0.109  10.363  0.0779 -0.3153 -0.0351
13733W        W28864   7.688  12.659   3.060 -0.4537  0.3845  0.1592
13734W        W28865  10.938  17.461  13.755  0.6023  0.1091 -0.1502
13735W        W28866   2.118  17.273   5.268 -0.1591  0.0204  0.1807
13736W        W28867  11.513   4.060  12.993 -0.0782  0.2603  0.3906
13737W        W28868   6.724   9.026  12.538 -0.3161  0.1257 -0.1606
13738W        W28869  16.551   4.191  15.187 -0.1564 -0.0804 -0.2599
13739W        W28870   4.273   7.775  11.838 -0.1569 -0.1083  0.0461
13740W        W28871  11.676   7.808   0.342 -0.0288  0.4516  0.3760
13741W        W28872   6.687  15.351   1.344  0.1682  0.0783 -0.0302
13742W        W28873   1.764  11.091  11.078  0.1655 -0.0023  0.0143
13743W        W28874   6.801  11.746  14.546  0.1207 -0.1130 -0.2032
13744W        W28875   2.592   5.927  10.434  0.0914 -0.2460  0.1346
13745W        W28876  13.874  14.886   0.631 -0.2830  0.3106 -0.0474
13746W        W28877  12.229  18.302  14.615 -0.2660 -0.1438 -0.0138
13747W        W28878   9.648  12.449  11.814  0.0321 -0.1487 -0.0685
13748W        W28879  10.900  18.393   3.803 -0.0868 -0.2239 -0.0192
13749W        W28880   7.358  10.180  14.356 -0.4299  0.4342 -0.0157
13750W        W28881   2.478   5.111  12.150 -0.4127 -0.3585 -0.1345
13751W        W28882  11.687   6.627  14.995 -0.1432  0.0803  0.1022
13752W        W28883  10.020   2.821   0.886  0.1541 -0.0245 -0.2998
13753W        W28884  17.157   7.766   2.027 -0.2538  0.5139 -0.1784
13754W        W28885  13.729   0.415  11.634  0.1647  0.1501  0.1817
13755W        W28886   0.344   1.316   3.387 -0.1439 -0.2753  0.2203
13756W        W28887   4.870  10.991   1.177 -0.3600  0.0575  0.0250
13757W        W28888  13.021   9.601   4.825 -0.2914  0.1898 -0.3222
13758W        W28889   8.539   7.795  12.707  0.3614 -0.1396  0.1406
13759W        W28890   1.067  11.736   1.119  0.1696  0.1444  0.1911
13760W        W28891  12.212  14.526  11.956 -0.2183 -0.1814 -0.0202
13761W        W28892   7.934  14.072   2.903  0.0162  0.2028 -0.0888
13762W        W28893  18.511   7.088   3.154 -0.0419 -0.0273 -0.1655
13763W        W28894   2.199  15.425   5.001 -0.0466 -0.1312 -0.0290
13764W        W28895  17.011   1.677   4.914  0.1167  0.2215  0.1509
13765W        W28896  18.370   4.313  15.518  0.2268 -0.0720 -0.0559
13766W        W28897   3.743   8.412  11.204 -0.4362  0.1883 -0.1850
13767W        W28898   9.798   9.771  13.680  0.0436 -0.0895  0.0663
13768W        W28899  12.096  17.826  14.856  0.0345  0.1540 -0.0259
13769W        W28900   7.427  12.872  11.321 -0.0894 -0.2056 -0.0299
13770W        W28901  14.107  16.714  13.858  0.0784  0.0189  0.0483
13771W        W28902   0.411   1.480   3.815  0.1272 -0.2153  0.1105
13772W        W28903   3.740   7.421   2.075  0.1662 -0.3481 -0.2165
13773W        W28904   2.823   5.126   1.169  0.5282  0.2346  0.2194
13774W        W28905  17.208   2.863   2.144 -0.0616  0.0080  0.4066
13775W        W28906  18.314   8.034   3.454 -0.2940  0.0590 -0.2468
13776W        W28907  17.862  10.521   3.481  0.1679  0.2213 -0.1090
13777W        W28908  12.007  15.555  12.393  0.2705  0.0159 -0.1148
13778W        W28909   7.172   5.931   1.149 -0.0055 -0.0116  0.3756
13779W        W28910   0.465   8.402  11.181 -0.1122 -0.2715  0.1824
13780W        W28911  15.384   3.089  15.242  0.1756  0.2258  0.0870
13781W        W28912  10.986   5.078   1.236 -0.0161 -0.0496  0.0229
13782W        W28913   7.928   1.363   1.410 -0.1783  0.0357 -0.0556
13783W        W28914   9.459  10.663  12.740 -0.2327 -0.0934 -0.1805
13784W        W28915   3.527   4.674  14.760 -0.3683  0.3088  0.2476
13785W        W28916  17.768  15.778   9.959  0.0488 -0.2227 -0.0423
13786W        W28917   6.635   7.797   2.502 -0.1284 -0.3580  0.0917
13787W        W28918   9.878  11.199   1.240 -0.2807  0.0721  0.0708
13788W        W28919   3.914   5.913  11.468 -0.0469 -0.0616 -0.0470
13789W        W28920  17.785  11.211  14.079 -0.0900  0.2192 -0.1342
13790W        W28921  10.632   9.249   3.011 -0.0144 -0.3671 -0.0707
13791W        W28922  16.639  12.366  12.378  0.1476 -0.1148 -0.2908
13792W        W28923   8.238   5.453   0.928  0.1106 -0.0856 -0.2466
13793W        W28924  18.539  11.696  11.926 -0.0824 -0.0860 -0.2451
13794W        W28925  18.480  18.421   3.168 -0.1819 -0.2221 -0.0065
13795W        W28926   3.324   7.686  12.163 -0.2559 -0.1956  0.1371
13796W        W28927  16.870   1.781   2.205 -0.0254  0.1437 -0.1731
13797W        W28928  12.426  13.603   3.313  0.0511 -0.0003 -0.1962
13798W        W28929   3.498   6.460   3.995 -0.1367  0.2816  0.1882
13799W        W28930   6.787  12.792  15.040 -0.0741 -0.0379 -0.2474
13800W        W28931  17.958   9.288   1.480  0.3695  0.2317 -0.3914
13801W        W28932  15.917   6.100   2.540  0.1385 -0.1069 -0.3466
13802W        W28933  15.093   7.278  10.714 -0.0805 -0.2272  0.0113
13803W        W28934  14.806  12.708  14.468  0.2484  0.1283  0.1820
13804W        W28935  18.095   5.078   5.123  0.4318 -0.0582  0.1126
13805W        W28936   5.016  16.023  15.111 -0.0150 -0.2478  0.0441
13806W        W28937   6.383   7.898   4.085 -0.0775  0.0643  0.5327
13807W        W28938   2.860  12.245   0.572 -0.3207  0.0927 -0.0510
13808W        W28939  10.760   7.553  15.105  0.0543  0.1929 -0.1843
13809W        W28940  16.585  11.865   1.698 -0.0101 -0.0348  0.1734
13810W        W28941   9.868   4.511  13.615 -0.3173 -0.3028 -0.0674
13811W        W28942  10.108   3.382  11.469  0.0429 -0.3528  0.0786
13812W        W28943  11.066  11.470  11.336  0.1163  0.0925 -0.0865
13813W        W28944  16.492  14.708  11.734  0.2883  0.0039 -0.0061
13814W        W28945  12.064   9.711  13.797  0.2852  0.0479 -0.2522
13815W        W28946  11.685   9.532   5.504 -0.1525 -0.0576  0.0782
13816W        W28947   4.832   2.611   1.483 -0.1019  0.1699 -0.0089
13817W        W28948  13.908   2.399  14.360 -0.1141  0.1392  0.1687
13818W        W28949   1.099   7.193   4.829 -0.2759  0.2081 -0.1415
13819W        W28950   3.696  17.388  13.789 -0.0831 -0.0527 -0.1609
13820W        W28951   5.561  15.032  11.529 -0.0875 -0.1025  0.1190
13821W        W28952  11.971   5.723   1.997  0.0635  0.1465  0.1795
13822W        W28953  16.811   9.145  14.258  0.4364 -0.1567 -0.1172
13823W        W28954  13.095   5.712   2.775 -0.2595  0.0360  0.0900
13824W        W28955   7.832   0.479  11.638  0.0046  0.0608  0.0880
13825W        W28956   9.268   2.424   4.014  0.0048 -0.0919  0.1075
13826W        W28957  16.572  10.307  13.047  0.2207  0.1841 -0.0133
13827W        W28958   3.698   4.362  11.100  0.2152  0.2831 -0.0159
13828W        W28959  17.413   3.937  12.152 -0.0117  0.1573  0.0655
13829W        W28960   2.919  11.277  12.696  0.0152  0.2435 -0.0548
13830W        W28961  15.590   2.051   4.970  0.0527 -0.1015  0.1643
13831W        W28962   2.008   6.896   6.366  0.1728  0.1726  0.1443
13832W        W28963  14.193   5.753   4.739 -0.4182 -0.3104 -0.3118
13833W        W28964   0.057   5.243  13.484 -0.2018 -0.2792 -0.2919
13834W        W28965   6.319   1.501   4.122  0.0675 -0.1647  0.1123
13835W        W28966   9.172  13.252   0.514 -0.1636 -0.4145  0.0207
13836W        W28967   6.722   1.642  15.483  0.2454 -0.0579  0.1125
13837W        W28968   4.830   0.479   4.390 -0.2546  0.1279 -0.0314
13838W        W28969   8.431   8.106  13.081 -0.4585  0.1517  0.1602
13839W        W28970   4.928  10.254  14.037 -0.0969  0.0558  0.1569
13840W        W28971  16.344  17.692   0.507  0.0994 -0.0111 -0.2710
13841W        W28972  14.655  18.141  15.165  0.2529  0.1414  0.1368
13842W        W28973   6.305   0.013  12.511  0.0808  0.1758 -0.1589
13843W        W28974  16.165   1.458   1.072  0.2336 -0.0278 -0.0899
13844W        W28975  10.833  10.372   1.586 -0.0398 -0.0146  0.0661
13845W        W28976  16.784   6.914  14.690  0.0093  0.0132 -0.2039
13846W        W28977   5.894  13.542  10.085 -0.0551  0.0244  0.1153
13847W        W28978   6.386   7.618  10.913 -0.1266  0.0842  0.1591
13848W        W28979   2.881   0.732  15.341 -0.0247 -0.1082 -0.3959
13849W        W28980  14.059   0.822   5.397 -0.0860  0.1198  0.0505
13850W        W28981   9.085   8.786   5.585  0.0104 -0.0548  0.1054
13851W        W28982  12.732  11.748  12.234  0.2768 -0.2270  0.1888
13852W        W28983   2.470   5.059   5.185  0.0305 -0.3580 -0.1450
13853W        W28984  18.510   7.138  12.500  0.1579  0.1734  0.0904
13854W        W28985  11.484  10.189  13.138 -0.3045  0.1206 -0.1045
13855W        W28986   4.778  12.741  11.495 -0.1780 -0.0950 -0.4343
13856W        W28987   5.711   0.985   3.601 -0.4310 -0.0555  0.2767
13857W        W28988   4.052   9.196  14.420  0.0996 -0.0677  0.2096
13858W        W28989   4.516   4.100   5.591 -0.1370 -0.1682 -0.0791
13859W        W28990   3.848   0.728  15.556  0.2073 -0.0190 -0.2090
13860W        W28991  15.965   8.376   0.715  0.4103  0.2270 -0.0053
13861W        W28992  12.903  12.579  12.228 -0.0659 -0.1391 -0.3393
13862W        W28993   2.953   7.804  11.875  0.3270 -0.2678 -0.0298
13863W        W28994  12.430  11.754   0.043 -0.0552 -0.1202  0.1776
13864W        W28995   6.061  16.272   3.631 -0.1484 -0.2219 -0.1604
13865W        W28996   7.612   4.173  13.329  0.1948  0.0672 -0.2291
13866W        W28997   1.129   5.747   1.685  0.2675  0.0934  0.1699
13867W        W28998  15.422   8.202   1.291  0.0936 -0.2187 -0.4583
13868W        W28999  14.325   9.269  11.876  0.2815 -0.0126 -0.1061
13869W        W29000   4.411  15.185   3.692  0.0725  0.2218 -0.0119
13870W        W29001   7.834   5.925  11.419 -0.0016  0.2771  0.1623
13871W        W29002  14.515   1.065   5.581 -0.0156 -0.1437  0.0227
13872W        W29003  12.392   6.504   5.023  0.1852 -0.2546  0.1246
13873W        W29004  16.849  12.467  14.736 -0.2305 -0.0439 -0.0033
13874W        W29005   9.890  16.687   5.129  0.2149  0.1786 -0.0220
13875W        W29006   6.194   4.535  14.320  0.3500 -0.3339 -0.0272
13876W        W29007  14.677  13.735  15.188 -0.2392  0.0750  0.0171
13877W        W29008   8.513  17.485  15.870 -0.0547 -0.0747  0.2170
13878W        W29009   3.862  17.132   4.775 -0.0551  0.0575  0.1028
13879W        W29010  16.050  16.196   0.935  0.1186 -0.0452 -0.0962
13880W        W29011  13.186  12.967   4.223  0.0912 -0.1548  0.0474
13881W        W29012   3.098  17.504   4.444  0.1605  0.0013 -0.2409
13882W        W29013  14.467   6.340  13.546  0.1192  0.0397  0.2892
13883W        W29014  15.721  15.194   2.221 -0.1050  0.2884 -0.1563
13884W        W29015  17.788  16.209  13.431 -0.0463 -0.0751  0.0483
13885W        W29016   5.243   7.447  11.986  0.1162 -0.2580  0.1060
13886W        W29017  18.217  14.088   4.911 -0.2373  0.1852 -0.1930
13887W        W29018   3.705   1.169   2.282  0.0305 -0.0063 -0.1136
13888W        W29019  17.382   0.260  11.249 -0.0193  0.0557  0.4427
13889W        W29020  18.110  15.824  14.093  0.0296 -0.1962  0.1516
13890W        W29021  14.203   8.058   5.353 -0.3633 -0.2664 -0.3216
13891W        W29022   9.433  12.904   1.327  0.2357 -0.1022 -0.1112
13892W        W29023   8.051   5.602   3.694  0.1645  0.2282 -0.0824
13893W        W29024  15.303   9.825   5.086  0.0853  0.1538  0.0787
13894W        W29025  11.160  11.835   4.445  0.2348 -0.2085  0.2711
13895W        W29026  18.086   2.888   3.976 -0.2099  0.1651 -0.2463
13896W        W29027  14.380   3.614  12.884 -0.1154 -0.1344  0.2217
13897W        W29028   5.013  10.263  15.012 -0.0404  0.0722 -0.0203
13898W        W29029  18.388   2.385   6.180  0.0157  0.0352  0.1086
13899W        W29030   0.529  12.254   0.775 -0.1771 -0.1474  0.3938
13900W        W29031   6.067   4.911  12.728  0.0958 -0.0983  0.0505
13901W        W29032   8.291  13.765  14.427 -0.0057 -0.0290  0.1112
13902W        W29033   6.350   7.219   6.005 -0.1607 -0.0460 -0.0491
13903W        W29034  12.829   8.648  14.631  0.0816  0.3380 -0.2796
13904W        W29035   3.501   4.837   2.367  0.0503 -0.0585  0.3561
13905W        W29036  13.856   1.774  15.222  0.0893 -0.2335 -0.0705
13906W        W29037  10.555   6.430  11.946 -0.1428  0.0720  0.0857
13907W        W29038   1.935  16.966   4.872 -0.2085  0.2344 -0.2432
13908W        W29039   8.876   6.409  11.993 -0.0676  0.0208  0.0392
13909W        W29040   5.622  16.574   0.753  0.1042  0.0070  0.0822
13910W        W29041   1.554  15.200   0.310 -0.1654 -0.1474  0.0193
13911W        W29042  17.737  13.933   4.048  0.0178  0.1759  0.3532
13912W        W29043   6.933   0.707   2.212  0.1266 -0.0133  0.0160
13913W        W29044   5.830  12.928  12.880 -0.0484 -0.1011  0.2827
13914W        W29045   8.905  15.909  11.358 -0.3032 -0.2254  0.2841
13915W        W29046   4.976  10.008  12.861 -0.0873  0.2177 -0.3760
13916W        W29047   1.431  17.546   4.120 -0.0518 -0.0054  0.2608
13917W        W29048   7.926  12.285  12.656 -0.3619  0.2603  0.0717
13918W        W29049  15.960   6.131  15.617  0.1288 -0.3523  0.1616
13919W        W29050   9.545  10.391   1.574  0.2222  0.1177  0.1005
13920W        W29051   5.836  17.059   0.655  0.1913 -0.1391 -0.1552
13921W        W29052  15.198   2.674  13.755 -0.0700  0.0149 -0.0131
13922W        W29053  12.035   0.471  11.555  0.3344  0.0774  0.1024
13923W        W29054  14.545  12.131  11.822 -0.0137  0.1440 -0.1011
13924W        W29055   4.069   8.292  13.084  0.1506 -0.1875 -0.1373
13925W        W29056  18.416   5.900  11.065  0.0991 -0.1199  0.0820
13926W        W29057  11.681   9.281   3.893  0.0798  0.2131  0.0908
13927W        W29058   0.673  17.678  10.732 -0.0593  0.0393  0.1179
13928W        W29059  12.338  11.941   1.162 -0.0733  0.1073 -0.0102
13929W        W29060   7.689   7.259   3.225 -0.3107  0.2832 -0.0003
13930W        W29061   5.804  12.502  12.647  0.0542  0.5033 -0.1095
13931W        W29062   5.755  16.385   1.206 -0.0929 -0.1559 -0.0262
13932W        W29063   7.635   2.201  15.520 -0.2904  0.0640  0.3282
13933W        W29064   7.286   1.973  12.815 -0.1464  0.1658 -0.2289
13934W        W29065  16.519  16.462   5.083 -0.0418 -0.0699 -0.4962
13935W        W29066   2.425  13.743   3.395 -0.1123 -0.3157 -0.1342
13936W        W29067   6.608   6.687   2.534 -0.1788 -0.3151 -0.1157
13937W        W29068   8.279   0.165  11.648  0.0264  0.3047 -0.3529
13938W        W29069  17.543  16.699  14.920  0.0591 -0.3623 -0.0506
13939W        W29070   1.416   2.635   3.121 -0.0532 -0.0481 -0.1936
13940W        W29071   3.354   5.649   2.287  0.0906 -0.1618  0.1134
13941W        W29072   0.159  15.929   3.791 -0.1029  0.2100  0.1740
13942W        W29073  18.062  14.634   3.485 -0.0872 -0.0720 -0.0005
13943W        W29074   5.635   2.873   1.469 -0.2510  0.2368 -0.0154
13944W        W29075   5.555  14.000  14.123 -0.1602 -0.1063 -0.0771
13945W        W29076  13.378  11.767  15.790  0.1000 -0.2261  0.0847
13946W        W29077   3.650  14.758   0.817 -0.0791 -0.0619 -0.1051
13947W        W29078   5.027   7.004   1.382 -0.0198 -0.1010 -0.0736
13948W        W29079  14.327   0.761   4.515 -0.0119  0.2118 -0.1761
13949W        W29080   6.288  12.468  15.929  0.1321 -0.0345 -0.0363
13950W        W29081  18.078   2.960   5.371 -0.1107 -0.2290 -0.4944
13951W        W29082  18.112   9.813   2.978 -0.2047  0.3027  0.2226
13952W        W29083  14.356   7.203  14.267 -0.0062 -0.3045  0.3317
13953W        W29084   0.395  17.242  13.743  0.1111 -0.1518 -0.3477
13954W        W29085   7.025   4.118  13.478 -0.1985  0.2164  0.0048
13955W        W29086   9.124  10.708  11.698 -0.0058  0.1192  0.1057
13956W        W29087   2.191   3.597  13.615  0.1417  0.1059  0.4817
13957W        W29088   7.443   0.799  11.361  0.0135  0.0194 -0.2019
13958W        W29089  12.707  17.804  10.535  0.4275 -0.1410  0.1556
13959W        W29090  13.390  12.335  12.475  0.2762  0.0463  0.2341
13960W        W29091   2.886  12.697  14.597  0.0365 -0.0651  0.2125
13961W        W29092   4.844   4.734   3.097 -0.1792 -0.2269  0.0208
13962W        W29093  11.381   6.627   2.361  0.0882  0.0534 -0.1218
13963W        W29094   7.212   7.045   3.494 -0.2564  0.1469 -0.3119
13964W        W29095  14.753  13.024  12.873 -0.0064 -0.1873 -0.3559
13965W        W29096   2.568   7.123   2.616 -0.0828  0.1734  0.2302
13966W        W29097   4.473   0.725   0.830  0.1578 -0.2356  0.4483
13967W        W29098   5.489  14.583   0.877  0.2099  0.2609  0.0422
13968W        W29099  14.986   4.900  11.227 -0.0706  0.1248 -0.1309
13969W        W29100   9.656  14.500  10.562 -0.0473  0.2173 -0.2048
13970W        W29101   5.595   0.270  12.854 -0.1328  0.1430  0.0472
13971W        W29102   5.993  12.461  14.392 -0.0553  0.1086  0.3574
13972W        W29103   0.167  13.811  13.672 -0.1095 -0.0582  0.1653
13973W        W29104  17.638   8.637   2.492  0.1248  0.0353  0.2600
13974W        W29105   0.755   9.452  13.055  0.0249  0.0536 -0.0626
13975W        W29106  14.091  15.893   0.194  0.0431  0.0746  0.1072
13976W        W29107  12.756   1.752  13.490 -0.0532  0.3467 -0.2818
13977W        W29108  11.730  12.736  14.595  0.1407  0.0309  0.1782
13978W        W29109  13.755  10.669   1.354 -0.0673 -0.1898 -0.0282
13979W        W29110  17.229   8.405   1.591  0.0804  0.2433  0.3256
13980W        W29111  13.657  16.833   0.470 -0.2293 -0.1124 -0.2213
13981W        W29112   5.920   8.289   1.840 -0.0192 -0.0664 -0.0695
13982W        W29113  18.170  17.924   1.425 -0.1564 -0.1694 -0.3103
13983W        W29114   9.998   5.367   4.981  0.0200 -0.0463  0.0205
13984W        W29115   1.596  16.811  11.798  0.0579  0.1706  0.1362
13985W        W29116  13.017  12.201  15.170 -0.0716  0.1115 -0.0492
13986W        W29117  13.164  10.696  11.311  0.1418  0.1782 -0.2033
13987W        W29118  16.828   7.554   1.723 -0.0623  0.0075 -0.0259
13988W        W29119  17.052   4.439  15.084  0.1609 -0.3101 -0.1731
13989W        W29120   1.187  15.956   0.794 -0.1428 -0.3201 -0.3522
13990W        W29121  13.784  16.816  14.306 -0.2262  0.2311  0.0143
13991W        W29122   2.795   6.221   4.466  0.1857  0.0894 -0.1749
13992W        W29123   3.278  18.253   1.082  0.2122  0.0574  0.0122
13993W        W29124  12.798   7.649   5.560  0.3591  0.0994 -0.2348
13994W        W29125   8.613  13.495   4.125  0.4244  0.4879 -0.0864
13995W        W29126   2.997   1.315   4.525 -0.2748 -0.0475 -0.1316
13996W        W29127  16.868   7.242   0.602 -0.1952  0.0402 -0.0075
13997W        W29128   6.755   4.172   5.934 -0.0363  0.0126  0.2974
13998W        W29129  16.548   4.830   2.319  0.0321 -0.0127  0.0854
13999W        W29130   2.335   4.435  15.128  0.1475  0.2438  0.1741
14000W        W29131  10.814   3.642  15.424 -0.0180  0.1761  0.2910
14001W        W29132  15.439  16.966   4.601 -0.0419  0.0724  0.4158
14002W        W29133  17.791   0.327  13.805 -0.1268 -0.0711  0.1944
14003W        W29134  16.641   4.923   1.823  0.0801 -0.2903  0.0765
14004W        W29135  11.333   2.379   2.513  0.0923  0.1029  0.1757
14005W        W29136   5.367   7.329   2.493 -0.1804 -0.0759  0.0583
14006W        W29137   1.478  12.104  13.413 -0.2295  0.1883 -0.0824
14007W        W29138  12.148  14.801   2.136 -0.0296 -0.0928 -0.0252
14008W        W29139   3.237  12.123  14.237 -0.2973  0.0056  0.1360
14009W        W29140   1.989   7.615  14.098  0.0781 -0.0836  0.0071
14010W        W29141   7.557   3.044  12.531  0.2261 -0.0327  0.0563
14011W        W29142  13.324  16.254   2.954 -0.0271 -0.1320  0.1551
14012W        W29143  11.705   5.559  11.391  0.1999 -0.2155 -0.2860
14013W        W29144   8.410  10.519  13.560 -0.2510 -0.1113 -0.0614
14014W        W29145   2.019   9.530   3.099  0.2635  0.1844 -0.1802
14015W        W29146   8.114  13.235   0.190  0.0109 -0.0948 -0.0962
14016W        W29147   2.382   7.971  14.142  0.1361  0.2035 -0.0991
14017W        W29148   0.820   4.804  13.079  0.1181 -0.0226  0.0746
14018W        W29149  10.189  14.218   3.224  0.2126 -0.0006 -0.0707
14019W        W29150  13.037  11.345  15.538 -0.0200 -0.1027 -0.3271
14020W        W29151   1.198   0.754  14.193 -0.0859  0.1249 -0.1078
14021W        W29152   8.880  16.073  12.338  0.3730  0.0949 -0.1065
14022W        W29153   0.210  12.057  10.132  0.4050 -0.1314  0.3464
14023W        W29154   3.632   0.818   0.829  0.1593 -0.0892 -0.0089
14024W        W29155   9.861  10.840  12.426  0.2671  0.0141  0.1578
14025W        W29156  14.668  13.992   3.655 -0.2540 -0.0647 -0.0838
14026W        W29157   8.307   3.969  14.594 -0.0717 -0.3003  0.0792
14027W        W29158   9.082   7.002   4.220 -0.1340 -0.2067  0.1172
14028W        W29159  13.256  11.112  13.743 -0.0934  0.1368 -0.1846
14029W        W29160   7.808   6.263   3.225 -0.2914 -0.2863  0.1134
14030W        W29161  18.513   4.036   3.981  0.4438 -0.0585 -0.5111
14031W        W29162   0.051  12.678   5.689 -0.1361 -0.3886 -0.0951
14032W        W29163  13.347  16.594  15.117 -0.3065  0.4396 -0.4074
14033W        W29164  17.083  14.131  11.421  0.1460  0.0477 -0.0904
14034W        W29165  11.391   2.839   3.489 -0.0029 -0.0559 -0.2824
14035W        W29166   1.467  15.282   4.164  0.1315 -0.2192 -0.0956
14036W        W29167  13.412  12.296   3.564 -0.1435  0.0298  0.0002
14037W        W29168  17.380  15.367  15.360  0.4802  0.2385  0.1127
14038W        W29169  12.826   6.464  15.116 -0.3597  0.0310 -0.2500
14039W        W29170  13.469   3.431  12.545  0.1366  0.0770 -0.1179
14040W        W29171   7.376  10.742  13.639  0.2383  0.0690 -0.1340
14041W        W29172   6.431  14.119  14.629  0.1411 -0.1452  0.0037
14042W        W29173  12.822   6.453   2.281 -0.0466 -0.1042 -0.1461
14043W        W29174  11.206   6.564  13.674  0.0853  0.0596  0.2329
14044W        W29175  14.023   9.653   2.667  0.1244 -0.1709 -0.5677
14045W        W29176  10.964   1.554  11.261  0.0033 -0.1063 -0.0789
14046W        W29177  10.129  10.141   3.092 -0.0025  0.4233 -0.1513
14047W        W29178  18.371   7.730   4.394  0.1944 -0.1596 -0.2186
14048W        W29179   3.981  15.428  15.624 -0.1329  0.2796 -0.3673
14049W        W29180   5.103  15.039  15.695  0.1334 -0.1693 -0.0372
14050W        W29181  15.351  13.761   4.836  0.1791 -0.0043  0.1374
14051W        W29182   9.640   2.180   2.277  0.0494  0.0308 -0.0962
14052W        W29183   6.824  18.101   0.828  0.2817 -0.3004  0.0649
14053W        W29184   5.872  11.754   4.618 -0.0539 -0.2001  0.0022
14054W        W29185  10.802   8.961   1.056  0.2457  0.1917 -0.1476
14055W        W29186  16.784   5.076   2.698  0.0890  0.1236 -0.2153
14056W        W29187   3.558   1.809  15.277 -0.0139 -0.0960  0.2001
14057W        W29188   4.764   9.152   1.410  0.1626 -0.2533 -0.1453
14058W        W29189  13.651  10.246  15.324  0.0759 -0.2375  0.0984
14059W        W29190   9.373  14.940   2.355 -0.0700 -0.0178  0.0360
14060W        W29191  16.026   1.639   3.241  0.1676 -0.0295 -0.0393
14061W        W29192   9.081   1.098   1.566 -0.1411  0.1221 -0.1219
14062W        W29193  18.510  16.268  12.594  0.0511 -0.4382 -0.4524
14063W        W29194  17.439  17.111   2.787 -0.0080 -0.1819 -0.2223
14064W        W29195   0.195   5.312   1.050  0.0584  0.2248  0.2301
14065W        W29196   4.410  15.478  15.903  0.2720 -0.0593 -0.1961
14066W        W29197  14.907  15.593   0.964 -0.1581  0.0460 -0.0419
14067W        W29198   1.729  17.438   4.856  0.3140 -0.0760 -0.0781
14068W        W29199  17.969   2.499   0.146  0.0990 -0.0376  0.2758
14069W        W29200  13.972  10.229   2.047 -0.0378  0.0891 -0.0639
14070W        W29201   4.923   0.509  14.202 -0.0337  0.1465 -0.0586
14071W        W29202   6.192  15.474  12.158  0.0695  0.1726  0.1662
14072W        W29203   9.638   3.315  10.911  0.0258  0.0114 -0.0768
14073W        W29204   8.000  13.063   4.589  0.0740 -0.0866 -0.0921
14074W        W29205   4.318   9.218  14.949  0.2172  0.1145 -0.2089
14075W        W29206   9.030   3.561   3.448 -0.2762  0.0343  0.1775
14076W        W29207   7.679   0.907   0.104  0.0228  0.0749  0.1726
14077W        W29208  17.361   6.224  15.065  0.3339 -0.0682  0.3615
14078W        W29209   6.980   3.928   3.878  0.1213  0.0467 -0.0211
14079W        W29210  12.301   7.124  11.254 -0.1292 -0.0801  0.0039
14080W        W29211   0.442   8.439  14.721  0.0155 -0.3874  0.1037
14081W        W29212  15.435  17.397  13.721  0.3050  0.0273 -0.0798
14082W        W29213  10.859   8.447   0.930  0.0311 -0.0041  0.3104
14083W        W29214   4.205  10.724   3.433 -0.1060 -0.0184  0.1180
14084W        W29215   7.749   2.765   4.391  0.0981  0.0428  0.0803
14085W        W29216  16.825  11.110  15.574  0.0897 -0.1017 -0.1060
14086W        W29217   5.862   7.133   5.907  0.2274  0.0307  0.3556
14087W        W29218  17.337   6.647  10.769 -0.0719 -0.2269  0.3789
14088W        W29219  16.799  14.610  10.663 -0.0293  0.1666  0.1470
14089W        W29220   8.631   7.620  14.422  0.0798 -0.1681 -0.0208
14090W        W29221   7.526  15.790  10.426  0.1823  0.1036 -0.0789
14091W        W29222  11.816  13.265   4.973 -0.0507  0.2792  0.0759
14092W        W29223  14.775   3.858   2.849 -0.1620 -0.0357 -0.0553
14093W        W29224  17.160   3.015  11.872 -0.2646 -0.0885 -0.0838
14094W        W29225  11.770   0.422  15.791 -0.1922  0.1300 -0.0288
14095W        W29226  15.455  15.867  14.188 -0.1305  0.0153 -0.2334
14096W        W29227  10.508  16.251   5.035 -0.0348  0.1535 -0.1776
14097W        W29228   9.411  15.266  12.004  0.1984  0.2299  0.0287
14098W        W29229  16.186   8.069   4.982  0.0978 -0.2621  0.3433
14099W        W29230   1.400  16.949  14.002 -0.0394  0.1505 -0.1482
14100W        W29231   4.340   7.634   6.231 -0.3136 -0.0080  0.1695
14101W        W29232   4.795  15.308   1.018 -0.1218  0.3268  0.0252
14102W        W29233   4.451  17.962   0.545  0.0308  0.1109  0.0566
14103W        W29234  16.219  10.537  14.101 -0.0349  0.0968  0.2275
14104W        W29235  16.678  10.734  10.183  0.0654 -0.0403  0.0501
14105W        W29236   2.753   2.743   2.392  0.1275 -0.3831 -0.1382
14106W        W29237  11.101  17.550   0.638  0.1982  0.0373  0.0776
14107W        W29238  16.079   0.694   0.553  0.0310 -0.1942  0.0420
14108W        W29239  10.367   5.019   0.052  0.2555 -0.0237 -0.0609
14109W        W29240   6.122   7.339   2.586 -0.1489  0.2368 -0.0970
14110W        W29241  14.466  12.190  15.411 -0.1496  0.0010  0.1094
14111W        W29242  12.269   9.838  12.074 -0.0101 -0.0283  0.1616
14112W        W29243  18.436   6.338   6.548  0.0656  0.1332  0.1493
14113W        W29244   2.311  16.548  12.106 -0.1466  0.2865 -0.0007
14114W        W29245  16.324  17.955   0.121  0.0772  0.1409 -0.1464
14115W        W29246  12.286  11.695  10.839  0.0463 -0.1202  0.1212
14116W        W29247   5.904  15.475   1.093 -0.1220  0.0222 -0.1725
14117W        W29248  11.879   0.911  14.654  0.1528 -0.1875  0.2930
14118W        W29249   5.880  13.674  11.655 -0.1267 -0.2269  0.3832
14119W        W29250   0.419  12.673  14.690  0.0657 -0.1605 -0.1350
14120W        W29251  14.910  12.054  14.486  0.0738 -0.1015  0.1579
14121W        W29252   4.071   6.960  11.583  0.0613 -0.0350  0.0079
14122W        W29253  10.912  14.999  15.547 -0.3170  0.1338 -0.0456
14123W        W29254   5.927  12.211  10.830 -0.1091 -0.1541  0.0984
14124W        W29255  15.188  14.513  11.781  0.3838 -0.5021 -0.2277
14125W        W29256  17.483  13.928   0.342  0.0253 -0.1127  0.0373
14126W        W29257  11.766   3.757  13.300  0.3604  0.0740 -0.1649
14127W        W29258  14.182  10.946  14.214  0.1171  0.0013 -0.0977
14128W        W29259  15.314  13.635  12.252 -0.3925  0.1236 -0.2224
14129W        W29260  11.413   1.786   3.900 -0.1966  0.0675 -0.3137
14130W        W29261   2.334   1.220   2.861  0.0975  0.0595  0.0948
14131W        W29262   4.671   4.265   3.175 -0.2016 -0.0302 -0.2179
14132W        W29263   0.482   5.041  13.925 -0.2112  0.1236  0.3249
14133W        W29264   2.532  10.541   1.928 -0.2359  0.0431 -0.0098
14134W        W29265  11.415  12.381  10.712  0.1002  0.0197  0.1121
14135W        W29266  15.395  15.415  10.790  0.0149  0.0440  0.3431
14136W        W29267   0.297  12.366  13.428  0.0447 -0.3185 -0.2070
14137W        W29268  11.204   1.478   2.922 -0.1768 -0.0634  0.0647
14138W        W29269  13.145   8.841   4.446  0.0150 -0.0225  0.0938
14139W        W29270  14.735   0.161   0.318  0.1248  0.2353  0.0006
14140W        W29271  10.012  10.069   4.989 -0.0678  0.1510 -0.1822
14141W        W29272  14.818  12.966  15.600 -0.1256 -0.0140  0.1646
14142W        W29273  12.435   7.895  14.367  0.1871  0.1809 -0.3556
14143W        W29274  16.983   1.715  11.192  0.0381  0.1549 -0.2661
14144W        W29275  11.162   4.387  13.846 -0.0111 -0.6962 -0.2080
14145W        W29276  10.263   5.532   5.732 -0.0304  0.1616 -0.0781
14146W        W29277   2.955  10.229   2.985 -0.2818  0.1468  0.0053
14147W        W29278  15.925  11.638  12.906 -0.1796  0.0871 -0.2644
14148W        W29279  15.599   9.487   4.864  0.0090  0.3557  0.0175
14149W        W29280  17.405  17.998   1.691  0.0245 -0.1445  0.2360
14150W        W29281   1.396   8.324   3.169 -0.2172 -0.0036 -0.1895
14151W        W29282  10.241  12.139  13.493  0.1281  0.2758  0.1073
14152W        W29283   4.190  17.959  12.967 -0.1907  0.2077  0.1613
14153W        W29284  11.931  10.275  11.234 -0.1782 -0.0153  0.0824
14154W        W29285   3.408   8.945  14.535 -0.3125  0.1468  0.1232
14155W        W29286   7.320   7.577   0.368  0.0093  0.2222  0.1550
14156W        W29287  17.402  15.851  10.736  0.0617 -0.0904  0.0414
14157W        W29288   1.226  16.370  10.892  0.2076  0.0784 -0.2559
14158W        W29289  13.483   1.558   4.967 -0.0976 -0.2301  0.1803
14159W        W29290  15.986  12.591  15.361 -0.3854  0.1374  0.1272
14160W        W29291  14.859  14.381  13.399 -0.2678 -0.1189 -0.2613
14161W        W29292  17.139  18.285   5.424  0.0406  0.0086 -0.2057
14162W        W29293  11.040   4.993   2.342 -0.1932  0.2883 -0.1597
14163W        W29294  11.966   0.159  11.147  0.1199 -0.0102  0.0381
14164W        W29295   7.696   4.815  11.161  0.0131 -0.0984 -0.1029
14165W        W29296   6.157   4.173   4.609  0.1928 -0.0968  0.0015
14166W        W29297   6.874   9.441  11.745  0.0939  0.1054  0.0968
14167W        W29298  18.302   3.211  12.104  0.1392 -0.1871  0.1308
14168W        W29299   6.981  15.914  14.314 -0.1492  0.2306 -0.1175
14169W        W29300   4.644   0.926  15.285  0.3105  0.1752  0.1363
14170W        W29301  14.182   6.341   2.756  0.1371 -0.3401  0.1462
14171W        W29302   0.420   6.640  14.461 -0.3443  0.2207 -0.0619
14172W        W29303   8.697   6.194   3.339 -0.1501  0.0970  0.1663
14173W        W29304   9.508   9.736   3.762  0.1182 -0.2773 -0.2729
14174W        W29305   6.263   2.413  12.587 -0.0678  0.5233 -0.3224
14175W        W29306   4.614  16.574   0.283  0.4702 -0.1504 -0.0098
14176W        W29307  12.153   6.100   4.118  0.0957 -0.3257  0.0038
14177W        W29308   2.703  12.145   5.001 -0.0686 -0.3648 -0.1164
14178W        W29309  17.095   2.297   6.206 -0.0724  0.0450  0.1786
14179W        W29310   3.458   9.588  13.783 -0.2830 -0.0267 -0.2235
14180W        W29311   2.364   4.067  11.449  0.0903  0.0114  0.3426
14181W        W29312  14.652   0.913  10.452 -0.0403  0.3195  0.3099
14182W        W29313  17.074  16.583  15.081  0.0519 -0.2192  0.3670
14183W        W29314  14.384   1.737  15.096 -0.2399 -0.0100  0.0643
14184W        W29315  12.104   1.681  14.220  0.1434  0.0275  0.0398
14185W        W29316  18.366  14.825   1.139 -0.0721  0.0257  0.0732
14186W        W29317   5.995  13.772   0.858 -0.0385 -0.1945  0.1143
14187W        W29318  14.178   5.284   0.540  0.1522  0.3617  0.2219
14188W        W29319  10.312  18.153   0.662 -0.0218  0.0147 -0.0835
14189W        W29320  10.074  17.879   1.648 -0.0241  0.0871 -0.2897
14190W        W29321   1.655  12.354  14.992  0.2149  0.1702  0.1879
14191W        W29322   4.726  16.886   1.617 -0.1858 -0.0653  0.0133
14192W        W29323   0.925   0.650  13.735 -0.0401  0.1290 -0.1918
14193W        W29324  11.397  10.712  14.269  0.2543  0.1837 -0.2750
14194W        W29325  10.947  15.886   1.069 -0.4228  0.1431  0.3010
14195W        W29326  16.179   2.286   4.435 -0.1255 -0.0055  0.0002
14196W        W29327   9.995   4.599   3.163 -0.0290  0.0436 -0.3452
14197W        W29328   0.219   6.987   1.707  0.3028 -0.1840 -0.1619
14198W        W29329   7.093  18.474  11.592 -0.0118  0.1272  0.0567
14199W        W29330   5.554   0.071   3.674  0.2721 -0.1126  0.0738
14200W        W29331  12.557  15.262   1.359 -0.0160 -0.1570  0.0470
14201W        W29332  15.247   1.126  13.734 -0.4976  0.0176 -0.0808
14202W        W29333   7.644   1.970   0.114  0.0004 -0.0474  0.1436
14203W        W29334   1.000  12.776  12.242  0.4458 -0.4442 -0.1982
14204W        W29335  16.208   7.615  10.792  0.0758 -0.0447  0.0383
14205W        W29336   5.631  14.843   4.651 -0.0945 -0.0470 -0.1917
14206W        W29337  16.250  12.063  15.540 -0.2167  0.1942 -0.0611
14207W        W29338  16.206   6.974   3.986  0.1190 -0.5375 -0.3241
14208W        W29339  16.224   0.497   4.422 -0.3944 -0.2049  0.0024
14209W        W29340   5.480   0.549   1.897  0.2872  0.2049 -0.1979
14210W        W29341  15.991   2.662  11.699 -0.1736  0.5083 -0.0531
14211W        W29342   9.748   6.430   3.932 -0.2059  0.1052 -0.2720
14212W        W29343  18.535  16.837  13.776  0.1699  0.1772 -0.1437
14213W        W29344  10.596  11.462  10.349  0.0280  0.0519  0.2883
14214W        W29345  12.292  10.721   6.067  0.2028  0.2111 -0.1253
14215W        W29346  12.743   5.992   4.515  0.0093  0.1948  0.2225
14216W        W29347   7.747  12.431  10.551  0.0031  0.0874  0.3474
14217W        W29348  12.220   3.558  12.473  0.0909  0.0594  0.3213
14218W        W29349  17.821  16.502   4.199 -0.2512  0.0545  0.1799
14219W        W29350   0.150   3.435   2.826 -0.1560 -0.1269 -0.0415
14220W        W29351   8.492  11.781  15.586  0.0231  0.0203 -0.0104
14221W        W29352   5.106  15.677   0.660 -0.0058 -0.1366 -0.0346
14222W        W29353  10.667  11.240  13.467  0.1030  0.0348 -0.3462
14223W        W29354   0.440   3.471   0.422  0.0609  0.2269  0.0245
14224W        W29355   2.778   3.667  15.401  0.2246 -0.0873  0.2036
14225W        W29356   8.229   5.140  12.692 -0.0151  0.0258 -0.0292
14226W        W29357  16.235   0.250  13.549 -0.0165 -0.4427  0.2078
14227W        W29358  12.607   2.845  14.762 -0.4855 -0.0677  0.1278
14228W        W29359   6.263   8.199   2.734  0.0216 -0.3786 -0.1498
14229W        W29360   0.986   0.206   5.853 -0.2260  0.0362 -0.0560
14230W        W29361   7.169   2.027   4.944  0.2237 -0.1765  0.1968
14231W        W29362   6.682   1.896   3.929  0.0481  0.0985  0.0935
14232W        W29363   9.670   5.909   1.515  0.2534 -0.0636 -0.2476
14233W        W29364  12.188  18.033   0.905  0.1279  0.0060 -0.1716
14234W        W29365   1.264  13.609   0.160  0.3978  0.2442 -0.0059
14235W        W29366   2.063  14.475  11.706  0.2534  0.1301  0.3189
14236W        W29367  11.578   7.203   0.879 -0.1618  0.1590 -0.0719
14237W        W29368  13.495   7.928   4.957  0.1478  0.1194  0.1513
14238W        W29369  18.006  12.815   2.066  0.1248  0.0481  0.0313
14239W        W29370  11.213   0.460  15.902  0.1203 -0.1750 -0.0712
14240W        W29371   0.599   6.051  12.545  0.0387 -0.1062 -0.1739
14241W        W29372  12.660  14.196   1.051  0.1005  0.0721 -0.0198
14242W        W29373  11.489   5.195   2.137  0.2912  0.0866 -0.3673
14243W        W29374  14.934   6.254  14.862  0.0722  0.0181 -0.0987
14244W        W29375  11.669  11.676  12.263 -0.0928 -0.0115  0.1264
14245W        W29376   5.794   2.473  11.680  0.1223  0.1652 -0.0807
14246W        W29377  12.686  14.180  11.962  0.4559  0.1504 -0.0434
14247W        W29378   7.717   2.809  15.222  0.0323 -0.3595 -0.0682
14248W        W29379  12.048  12.192  15.476 -0.4960 -0.2192  0.3240
14249W        W29380   7.619   4.511  14.709 -0.1823 -0.1587 -0.4391
14250W        W29381   2.764   3.539  14.264  0.0373  0.0004  0.0211
14251W        W29382  15.185   3.712   3.239  0.0438 -0.1304 -0.2474
14252W        W29383  17.655  13.560   2.734 -0.0691 -0.0933 -0.0234
14253W        W29384  14.086   1.518  13.907  0.0012 -0.2497  0.0810
14254W        W29385   6.203  13.891   3.809 -0.2176 -0.0568  0.2439
14255W        W29386   5.393  18.512   5.109  0.1944 -0.3055  0.0385
14256W        W29387  14.029  12.577   1.404  0.3050  0.0381 -0.0553
14257W        W29388  14.417  16.896  12.083  0.1177 -0.0766  0.0357
14258W        W29389   1.886  11.231  11.609 -0.0719  0.0303  0.0655
14259W        W29390   0.612  17.856  12.790 -0.0330 -0.0114  0.0031
14260W        W29391   3.922  18.257   5.558  0.0253  0.3072  0.1862
14261W        W29392   4.515  10.562  10.677  0.2022 -0.1008  0.0268
14262W        W29393   2.211   5.592  11.486 -0.1705 -0.1137  0.3175
14263W        W29394   7.363  13.329   9.702 -0.0096  0.0979 -0.1121
14264W        W29395   2.597  14.436   4.835  0.2488 -0.0311  0.1629
14265W        W29396  12.016  10.340   5.074 -0.2463  0.0080 -0.2605
14266W        W29397   2.979  11.650   1.144  0.1596 -0.1613  0.1640
14267W        W29398   0.485  15.128   3.510 -0.0250 -0.1085 -0.0068
14268W        W29399  16.566  17.841  14.735  0.5383  0.6111 -0.1232
14269W        W29400   0.423   0.699  13.540  0.4830  0.1798 -0.0338
14270W        W29401  11.633  10.458  10.764 -0.2521  0.0501 -0.2123
14271W        W29402  14.308   5.132  10.625 -0.0357  0.0294  0.0717
14272W        W29403  17.134  13.348  11.404 -0.1340 -0.0787 -0.0543
14273W        W29404   9.671   3.618   9.554  0.0210 -0.1601  0.0471
14274W        W29405   2.962  15.713   3.416 -0.3340 -0.1278  0.0726
14275W        W29406   9.991   3.592  14.924  0.0484  0.1575 -0.3677
14276W        W29407  14.500  11.222  15.153  0.0265  0.1213 -0.3895
14277W        W29408   4.985  16.918  13.402  0.2680 -0.0811  0.1374
14278W        W29409  12.701  12.523   1.054  0.0338  0.0878  0.0599
14279W        W29410  13.652   2.493   1.904 -0.0188 -0.1446 -0.3268
14280W        W29411  17.581  17.448  13.926 -0.3599  0.0455 -0.0560
14281W        W29412   8.343   6.577   3.251  0.2040  0.1883  0.1886
14282W        W29413   7.420  15.280   4.452  0.2802  0.0449  0.0013
14283W        W29414  14.865  12.452   4.216 -0.0287 -0.0320  0.1409
14284W        W29415   3.081  15.995  13.820 -0.1084 -0.0603  0.1265
14285W        W29416  11.581   1.122   2.778  0.1024  0.1019 -0.0282
14286W        W29417  15.636  13.381  14.358 -0.4475 -0.3080 -0.1388
14287W        W29418  12.808   2.517   0.209 -0.0625  0.1087 -0.0008
14288W        W29419   4.486  10.567  11.549  0.0923 -0.1978 -0.1868
14289W        W29420   6.242   3.787   4.168 -0.0866 -0.1210 -0.2110
14290W        W29421   2.491   9.295  13.881  0.4468  0.1990 -0.1273
14291W        W29422  15.505  12.647  15.698  0.0562  0.0304 -0.1521
14292W        W29423  12.127   6.380   0.862 -0.2375  0.0186 -0.1332
14293W        W29424   0.696   4.404   5.905  0.1240 -0.0589  0.1527
14294W        W29425   4.600   5.514  12.498  0.0308  0.2486 -0.1327
14295W        W29426  16.055   3.166   3.135  0.1893 -0.0839 -0.2008
14296W        W29427   6.928  10.282  14.955 -0.1002 -0.0258  0.2715
14297W        W29428   5.210   0.451   4.741  0.0783 -0.2790 -0.2069
14298W        W29429  13.081   7.082  14.202  0.1829  0.0654 -0.0405
14299W        W29430  14.338   5.373  14.726  0.0279 -0.0113 -0.0501
14300W        W29431  16.856  16.844  11.745 -0.1279 -0.0797 -0.4627
14301W        W29432   6.228   6.144   0.035 -0.0373 -0.0696 -0.1474
14302W        W29433  18.393  10.232   1.222  0.1608 -0.2491 -0.1020
14303W        W29434  10.499   1.425   5.179 -0.0097  0.0248  0.0144
14304W        W29435   6.797   5.283  12.004  0.0887  0.0344  0.1310
14305W        W29436  10.443  12.058   3.025  0.2418 -0.2045 -0.0168
14306W        W29437   4.881  14.316   4.252 -0.1525 -0.3730 -0.2751
14307W        W29438   4.022   6.870   3.563 -0.0604 -0.5428  0.0221
14308W        W29439  14.530  17.900  14.722 -0.3323 -0.0940 -0.0229
14309W        W29440  15.355  11.487   3.676  0.0147 -0.1044 -0.0206
14310W        W29441   4.389   4.620   5.778  0.2966 -0.2208 -0.0905
14311W        W29442   2.303   3.891  15.141 -0.2453 -0.3209 -0.0528
14312W        W29443   0.265   8.861  13.573  0.1977 -0.0369  0.0498
14313W        W29444  12.804  12.619  11.223 -0.0101  0.0220  0.2031
14314W        W29445  14.041   2.707  12.114  0.0741  0.0092  0.3505
14315W        W29446  13.413   2.923  10.808 -0.0454  0.2909 -0.5119
14316W        W29447  14.939   9.578   3.880 -0.1648  0.0729 -0.0800
14317W        W29448   0.926  12.023  15.496 -0.0063  0.0484 -0.0727
14318W        W29449   6.665  10.516   0.796  0.1540 -0.1147  0.2792
14319W        W29450  15.823  12.473   3.466  0.2501 -0.0827 -0.0638
14320W        W29451  13.880  17.821   5.563  0.0962 -0.1455  0.0902
14321W        W29452   4.023   3.113  11.635  0.0540  0.1338  0.1768
14322W        W29453   7.351   3.492   5.629  0.2630 -0.0100  0.0882
14323W        W29454  11.176  14.772  12.629  0.0050 -0.0742  0.1119
14324W        W29455  11.178   1.012   3.098  0.0171  0.2427  0.1611
14325W        W29456  10.197   1.782   0.209 -0.2150  0.1677  0.0453
14326W        W29457  11.271  18.401   4.192  0.1548 -0.5236 -0.1024
14327W        W29458  16.001  16.206  15.415  0.0340 -0.5654  0.2246
14328W        W29459  15.666  12.278   0.625  0.0505  0.2329  0.2079
14329W        W29460   2.033   6.913  11.769  0.0741  0.2305 -0.1264
14330W        W29461   7.708   6.048   1.956 -0.2967  0.3112  0.2612
14331W        W29462   6.558  16.531  10.057  0.1121  0.1709 -0.0719
14332W        W29463   9.668   6.077   5.197 -0.2883 -0.0811  0.0905
14333W        W29464  17.714   2.294  12.924  0.2141 -0.2186 -0.0866
14334W        W29465  13.819   4.178   4.412 -0.1504  0.2246 -0.0366
14335W        W29466  14.301  17.593   2.786 -0.2207  0.0267 -0.3754
14336W        W29467  14.281   7.784   3.241 -0.1071  0.0194  0.0612
14337W        W29468   4.306   4.552   1.854  0.0221  0.2561  0.1127
14338W        W29469  10.238   4.230   0.665  0.0079  0.1982 -0.0552
14339W        W29470  15.371  12.701  11.983 -0.1599  0.0759 -0.2012
14340W        W29471   7.772  10.568   0.518 -0.1289 -0.2278 -0.2779
14341W        W29472   2.549  10.047   5.563 -0.1877 -0.1003  0.1055
14342W        W29473   1.583  17.687   5.990  0.0368  0.2509  0.1530
14343W        W29474  14.253  15.503   4.855  0.0451 -0.2953 -0.0744
14344W        W29475  12.671   4.544   3.100 -0.3125  0.2212  0.0156
14345W        W29476   1.019   9.411   4.152 -0.0266  0.0613  0.1892
14346W        W29477  12.398   3.059   0.774  0.1400  0.0829 -0.1554
14347W        W29478   7.769   5.501   0.666  0.4274  0.0089  0.0528
14348W        W29479   9.125   8.497  12.793 -0.4411 -0.0507 -0.1301
14349W        W29480   0.248   7.109  12.107  0.1192 -0.2513  0.1707
14350W        W29481   1.119   1.049   6.008 -0.1092  0.1561 -0.0421
14351W        W29482   7.959  15.223   4.366  0.0641 -0.0951 -0.4284
14352W        W29483  10.301  13.502  14.874 -0.1533 -0.2048 -0.2539
14353W        W29484  17.911   4.787  13.896  0.0419  0.0619  0.0772
14354W        W29485  11.778   9.541  11.939  0.0356 -0.2316 -0.1977
14355W        W29486   7.834  18.559  12.983 -0.0067 -0.1462 -0.0619
14356W        W29487  15.913   1.459   4.300  0.1246 -0.0145  0.3825
14357W        W29488  13.127  11.460   3.734 -0.2240 -0.2028 -0.2507
14358W        W29489  17.694   2.827   0.523 -0.2342  0.4823  0.1269
14359W        W29490   3.745  10.713  13.887  0.0504 -0.1644 -0.2298
14360W        W29491   4.533  18.138   2.534  0.2283 -0.1506  0.0334
14361W        W29492  10.736   3.429  14.819  0.3025  0.0783  0.1871
14362W        W29493  16.470  18.021   2.456 -0.0007 -0.3041  0.0869
14363W        W29494   4.011  11.236  13.675  0.1564 -0.1923  0.1448
14364W        W29495   7.531  16.643   4.459  0.1498  0.0875  0.1042
14365W        W29496  11.946   3.892  13.819 -0.2785 -0.0010 -0.0625
14366W        W29497   1.065   8.722   2.470 -0.0845 -0.2181  0.4444
14367W        W29498   3.133   5.621   5.060  0.1067  0.2248 -0.2194
14368W        W29499   1.060   5.180  12.135 -0.0231  0.2275 -0.2330
14369W        W29500   7.584  13.413  12.657  0.1686  0.2021  0.1155
14370W        W29501   5.673  10.649  14.299  0.2370 -0.0689 -0.1232
14371W        W29502   9.489   6.730  12.545  0.1301 -0.0754  0.2403
14372W        W29503   5.893   5.679   0.084  0.0993  0.0713 -0.1624
14373W        W29504  14.133   3.649   4.960 -0.0639 -0.3145 -0.3988
14374W        W29505  14.962  18.466  11.916  0.1379 -0.2726  0.2263
14375W        W29506   0.518  15.182  11.967  0.0507 -0.0353  0.1419
14376W        W29507   9.309   2.234   5.420 -0.0277  0.1877  0.1229
14377W        W29508   6.501   8.247   0.152  0.1057 -0.0321 -0.1253
14378W        W29509   1.077   6.321   4.236 -0.2590 -0.2705 -0.2654
14379W        W29510  17.415   1.329  12.481 -0.0020 -0.0729  0.0678
14380W        W29511   6.607  17.740  11.937 -0.0586 -0.0843 -0.3594
14381W        W29512   9.606  15.450   4.555  0.0888  0.0204  0.2334
14382W        W29513  17.761   3.595  14.299  0.1803 -0.2090  0.0911
14383W        W29514  11.253  12.710   3.248  0.2084 -0.0251 -0.0441
14384W        W29515   4.293   9.231   2.845  0.2774  0.0418  0.0918
14385W        W29516  15.071  17.187  15.059 -0.1272  0.3353 -0.0220
14386W        W29517  17.828   7.720  12.374 -0.0761 -0.1541 -0.0348
14387W        W29518  14.968  11.245  11.606 -0.3022  0.0328 -0.1993
14388W        W29519  16.603   1.464  15.695 -0.0024  0.0805  0.2474
14389W        W29520  17.338  10.384  10.440  0.1224 -0.0008  0.0260
14390W        W29521  10.051   6.882   1.847 -0.1307  0.0251 -0.2975
14391W        W29522  12.930  15.286  12.261 -0.1008  0.0508  0.1852
14392W        W29523   5.253   7.900  11.099  0.0514  0.2674  0.0093
14393W        W29524  15.461   0.308   3.680  0.0881 -0.1790 -0.2654
14394W        W29525   1.272   5.295  13.941 -0.0916 -0.0481 -0.1637
14395W        W29526   3.579  12.322   1.478  0.0709  0.0075  0.0704
14396W        W29527   6.853   7.833   3.880  0.1027 -0.0263 -0.0717
14397W        W29528  11.578   6.723  13.918 -0.1272  0.2944  0.1347
14398W        W29529   1.956  16.071   4.319  0.0856  0.0267 -0.1109
14399W        W29530   8.364   1.039   2.194  0.2244 -0.0072  0.1079
14400W        W29531  11.230   4.012  15.375  0.2156 -0.1000  0.0182
14401W        W29532   5.227  10.372  15.441  0.3307  0.0557  0.1120
14402W        W29533  12.095   8.182   6.189 -0.0187  0.0349 -0.3850
14403W        W29534   3.650  15.971  14.904 -0.1118  0.0302 -0.0148
14404W        W29535   0.176   9.178   4.400 -0.0172 -0.3133  0.2165
14405W        W29536  12.073  10.259   4.274  0.0165  0.1576  0.2425
14406W        W29537  11.600  14.378  14.597  0.1924 -0.0712 -0.0080
14407W        W29538  11.486   7.449   2.711 -0.0430  0.0800  0.1510
14408W        W29539   2.404   3.520   5.534  0.4954  0.0723 -0.2553
14409W        W29540  15.841  11.444  12.212  0.1915  0.0450 -0.2732
14410W        W29541   6.894   8.709   4.105 -0.0083 -0.1897  0.4919
14411W        W29542   7.518  18.108  14.583 -0.3492 -0.1085 -0.1734
14412W        W29543  13.635   6.509   0.897 -0.2704 -0.0792  0.1169
14413W        W29544   4.108  13.613  15.135  0.1102  0.0931  0.1504
14414W        W29545  10.091   6.913   5.378  0.0236 -0.0973 -0.1439
14415W        W29546   4.365  16.573   3.024  0.0477 -0.0538  0.2531
14416W        W29547   6.270   6.440  15.578 -0.0465 -0.1572 -0.2159
14417W        W29548   1.087  18.458   2.628 -0.2587 -0.1681 -0.0443
14418W        W29549   4.947   2.929  11.472 -0.1148  0.0498  0.1074
14419W        W29550  17.826   1.739  13.779 -0.2338 -0.1127 -0.5254
14420W        W29551   2.322  13.495  15.142  0.3899 -0.2004 -0.1198
14421W        W29552  10.497  14.057  13.388 -0.1490 -0.0003 -0.0596
14422W        W29553   7.119   4.041   2.133 -0.2389 -0.0579 -0.0691
14423W        W29554  10.664  15.178  13.255 -0.1221  0.1758 -0.0274
14424W        W29555   1.122   5.979   3.244  0.2591  0.0113 -0.1945
14425W        W29556   6.052  13.952   4.330 -0.1442 -0.1781  0.4644
14426W        W29557   0.090  17.285  15.681 -0.2269 -0.0758  0.1438
14427W        W29558  17.530   6.812   0.756 -0.2012  0.2302  0.1880
14428W        W29559  12.198  11.850   3.453 -0.3468  0.0874  0.0700
14429W        W29560   0.715  10.480  15.020 -0.0232 -0.0484  0.2717
14430W        W29561   8.798  12.647   1.569 -0.2591  0.1777  0.0530
14431W        W29562  11.593  18.289  13.817 -0.4253 -0.0572 -0.3658
14432W        W29563  16.832  10.218  12.488 -0.1546  0.0066 -0.0767
14433W        W29564  14.721  16.743   4.205 -0.1104  0.0191 -0.3000
14434W        W29565   0.062  11.911   2.749 -0.0510 -0.4250  0.0354
14435W        W29566   8.582   0.234   4.651  0.1464 -0.1776 -0.3288
14436W        W29567   6.822   4.779  14.830 -0.0671  0.0065 -0.0900
14437W        W29568  16.614  15.500   0.008  0.1124  0.3041 -0.1652
14438W        W29569   5.868  13.450  12.131  0.0455  0.1623 -0.0095
14439W        W29570   8.513  13.800  12.236 -0.0963  0.0108  0.1233
14440W        W29571   4.213  10.219  11.298  0.0033  0.0341 -0.1421
14441W        W29572  16.566   9.295   0.334 -0.1372  0.0617  0.1834
14442W        W29573   0.471  13.011   4.801  0.0772 -0.0402  0.0318
14443W        W29574   5.425   8.909  15.768  0.1586 -0.4495  0.0105
14444W        W29575   7.468  16.858  11.253  0.2639  0.0305 -0.0778
14445W        W29576  11.435   2.035   5.809  0.0341  0.4543  0.2599
14446W        W29577   0.145  15.044   4.877 -0.0813 -0.2554  0.2205
14447W        W29578   2.820   9.489   2.762  0.1852  0.1576 -0.0076
14448W        W29579   9.461   1.839  12.995 -0.0032  0.1384 -0.1264
14449W        W29580   7.649  11.543  11.095 -0.0135  0.0190 -0.2232
14450W        W29581  11.135  16.055   5.143  0.1169  0.0703  0.0801
14451W        W29582  15.000  14.563   5.232  0.0121 -0.1686  0.0496
14452W        W29583  13.771  16.809   1.240  0.0872 -0.1767 -0.0683
14453W        W29584  13.147   0.310   0.698  0.1669  0.0545 -0.0048
14454W        W29585   5.337  16.608  12.601 -0.0186 -0.0240 -0.0377
14455W        W29586  13.018   0.225   3.521  0.1836  0.0585 -0.0251
14456W        W29587   8.097   9.281   0.184  0.1085  0.1490 -0.3194
14457W        W29588   0.433  13.798  12.698 -0.1252  0.0126  0.0843
14458W        W29589   7.534  13.211   4.661  0.2557  0.0071  0.0922
14459W        W29590  12.723   5.822  14.544 -0.2396 -0.3315 -0.3971
14460W        W29591   6.585   8.073  13.255  0.3621 -0.2232  0.3476
14461W        W29592   7.776   1.093  11.764  0.0724  0.0571 -0.0934
14462W        W29593   6.349  13.021  10.467  0.6965 -0.2167  0.1959
14463W        W29594  17.418   8.577   1.137 -0.0024 -0.3636  0.2087
14464W        W29595   1.440   1.799   5.525  0.1609  0.1639  0.1142
14465W        W29596  10.513  11.749   5.632  0.1203  0.1510  0.0950
14466W        W29597  17.872  16.688  13.194 -0.4835 -0.0671 -0.0782
14467W        W29598   2.495   1.290   3.689  0.1346 -0.0901  0.1111
14468W        W29599  14.620   2.553  15.865  0.1978 -0.2011  0.3174
14469W        W29600   0.935   5.212   0.089 -0.0002 -0.0009  0.3828
14470W        W29601   6.951  16.057   1.748 -0.2456  0.1273  0.1620
14471W        W29602  13.580   8.385   1.509  0.0337  0.1041 -0.0206
14472W        W29603   2.184  11.699  12.456 -0.2091 -0.1095 -0.1157
14473W        W29604   2.413   5.819  12.544  0.0221 -0.2879 -0.0982
14474W        W29605  15.231   8.305   3.086 -0.1616  0.0390 -0.0799
14475W        W29606   0.115   2.314   2.802  0.0140 -0.0773 -0.0582
14476W        W29607  12.028  15.872  14.715 -0.0380  0.0981 -0.0256
14477W        W29608  14.895  10.353   5.225 -0.0965  0.1065 -0.1881
14478W        W29609   1.717  14.043  12.076  0.0098 -0.3237 -0.0209
14479W        W29610   8.483   3.708  10.625  0.1766  0.2829 -0.0062
14480W        W29611   0.537   5.824   5.942 -0.2007 -0.1211  0.0360
14481W        W29612   0.716   8.091   0.160 -0.1596 -0.0323 -0.0755
14482W        W29613   7.952   1.284  10.865  0.0416 -0.0824  0.0310
14483W        W29614  17.994   2.140   1.454  0.4706  0.0371 -0.2013
14484W        W29615   1.474  10.903  13.566  0.2705  0.0644  0.1354
14485W        W29616  16.336  15.185  11.966 -0.1526 -0.0285 -0.2528
14486W        W29617  14.067  17.407  13.092 -0.0498 -0.3681 -0.1126
14487W        W29618   1.432  13.951   5.428  0.7747 -0.1825  0.1149
14488W        W29619   8.413  10.333   3.452  0.1126 -0.1856 -0.2517
14489W        W29620  11.416   8.404   0.899  0.0784 -0.0794  0.0566
14490W        W29621   8.273   4.616  14.205 -0.2820 -0.1760  0.0302
14491W        W29622   9.905   5.187  14.275  0.0518  0.1105  0.2276
14492W        W29623   1.618   1.630   2.787  0.7235  0.1063 -0.2747
14493W        W29624  17.758   9.447  12.487  0.1086 -0.1839 -0.4823
14494W        W29625  16.995  10.327  13.766 -0.2325 -0.2409  0.0196
14495W        W29626   7.298  10.499  10.777  0.2544  0.0642 -0.0119
14496W        W29627  13.297  14.248  12.854 -0.0966  0.1133  0.4981
14497W        W29628  13.215   8.146   3.860  0.2422  0.0513  0.0237
14498W        W29629   1.974   4.189   0.950 -0.2456 -0.1519  0.3527
14499W        W29630  17.844   7.811   2.611  0.1137  0.0175 -0.2658
14500W        W29631  18.148   6.267   5.228 -0.0552  0.0339  0.0198
14501W        W29632  15.151   2.889   0.593 -0.1105  0.1627  0.1628
14502W        W29633  16.574   5.625   2.896 -0.0540 -0.1141 -0.4997
14503W        W29634   4.049  12.059  11.390 -0.1248  0.1275  0.3182
14504W        W29635  10.864  10.052  15.662 -0.1523 -0.4130 -0.3352
14505W        W29636  16.499   0.875   1.917 -0.3440  0.0459  0.1622
14506W        W29637  16.939   1.052  11.105  0.2058  0.3951 -0.1277
14507W        W29638   1.180   3.778  11.098  0.0031 -0.0600 -0.2480
14508W        W29639   7.135   9.231   4.035 -0.3613 -0.1676 -0.0862
14509W        W29640  18.247   5.564  12.068 -0.1017 -0.0049 -0.2192
14510W        W29641  17.563  15.484   2.327  0.2132 -0.0429 -0.1449
14511W        W29642  16.894   8.267   3.309  0.0166 -0.2268 -0.0883
14512W        W29643   1.722   7.001   0.659 -0.0433  0.2375  0.0594
14513W        W29644  13.441  15.707  11.436  0.0789  0.3200  0.0505
14514W        W29645   2.378   8.737   4.781 -0.0075  0.0658  0.1925
14515W        W29646   0.562  17.970  15.201  0.0069  0.0473  0.0870
14516W        W29647   5.171  13.844   1.468 -0.2743 -0.0933  0.2138
14517W        W29648   1.387   4.422   5.717 -0.1681  0.3084 -0.1275
14518W        W29649  18.028   7.452   4.610 -0.0013  0.0311  0.0946
14519W        W29650  12.456   2.216   4.558  0.3157  0.0869  0.1524
14520W        W29651  16.666   5.010  15.761  0.2031 -0.3538 -0.1040
14521W        W29652  13.176  14.890   2.418  0.3214 -0.0329 -0.0352
14522W        W29653  15.829  13.101  10.704  0.0817  0.4588 -0.1043
14523W        W29654   4.575  12.318  10.671 -0.2292 -0.1119 -0.1872
14524W        W29655  10.038  13.300  14.496 -0.0668 -0.1450 -0.0866
14525W        W29656  17.111  17.751   1.264 -0.4543  0.0181  0.0877
14526W        W29657  10.849   1.108   1.678 -0.0031 -0.1305 -0.1055
14527W        W29658   1.160   6.617   5.281 -0.0158  0.2544  0.2399
14528W        W29659   5.089   0.248   0.757  0.1747 -0.0752 -0.1399
14529W        W29660   0.127  16.484  11.728 -0.2044 -0.1519 -0.2256
14530W        W29661   0.322  17.309   3.877 -0.1459  0.0330 -0.1288
14531W        W29662  15.020  14.617   3.117 -0.2441 -0.3191 -0.1876
14532W        W29663   1.775   2.602  15.808  0.1270  0.5056 -0.0861
14533W        W29664   2.348  10.927   5.513 -0.1297 -0.0012 -0.0345
14534W        W29665  14.707   5.679   1.808 -0.3112 -0.1876 -0.1000
14535W        W29666  13.964   6.472   1.794  0.0470 -0.1250  0.0858
14536W        W29667  11.735   3.791  11.130 -0.1824  0.1672  0.1770
14537W        W29668  14.310  10.856   3.284  0.3173  0.1173  0.1636
14538W        W29669   5.263   7.706  15.782  0.0212 -0.0409  0.1834
14539W        W29670  12.333   9.603  15.292 -0.0722  0.1027 -0.3330
14540W        W29671   0.767   9.898   3.987 -0.0555  0.1413  0.2500
14541W        W29672  17.988   5.824  14.892 -0.0174  0.0733 -0.0289
14542W        W29673   8.239  10.899   3.379 -0.1800  0.2017  0.3418
14543W        W29674   1.417  16.699  12.229  0.1201  0.3728 -0.0066
14544W        W29675  12.088  13.777   1.743 -0.1421  0.1424 -0.3304
14545W        W29676  15.114   7.568  12.172  0.0864 -0.0373  0.0956
14546W        W29677   0.431  17.113  14.682  0.0836  0.0970  0.2284
14547W        W29678  17.348  16.795  15.470 -0.0717  0.3187 -0.0268
14548W        W29679  10.853  14.741  13.999  0.0746  0.1621 -0.0661
14549W        W29680  16.417   5.143   4.126 -0.2792 -0.1392  0.2029
14550W        W29681   0.132  17.683  15.361  0.0166 -0.2098  0.0588
14551W        W29682  13.760  15.552  12.418  0.0543 -0.3540 -0.0791
14552W        W29683   5.541   1.382   1.116  0.0933  0.1347  0.0026
14553W        W29684  10.366   6.038   0.552  0.1466 -0.2585  0.0932
14554W        W29685  16.851  18.225  12.116  0.2459  0.0950  0.1329
14555W        W29686  11.494   3.851   4.390 -0.0673  0.1943 -0.2642
14556W        W29687  15.222   9.154  11.976 -0.0175 -0.1095  0.1972
14557W        W29688   3.056   0.296   0.295  0.0909 -0.2742 -0.2475
14558W        W29689  14.627   8.545   5.383 -0.2496  0.0985  0.1008
14559W        W29690   9.810  11.238   5.308 -0.3598  0.0697  0.1459
14560W        W29691   8.316  16.218  10.316 -0.2196  0.1483  0.0168
14561W        W29692  15.056  12.355  14.895 -0.1851  0.2691  0.3999
14562W        W29693  16.687  13.546   2.875 -0.2176  0.1332 -0.2321
14563W        W29694   4.731  17.677  12.157 -0.1813  0.0628  0.2250
14564W        W29695   6.624  14.868   4.982  0.1589  0.1020  0.0670
14565W        W29696   9.843   8.228   3.695  0.0840  0.0970  0.2148
14566W        W29697  17.688  10.624   1.659  0.1865 -0.2714  0.0729
14567W        W29698  15.954   4.644  13.510  0.1705  0.2547  0.1496
14568W        W29699   1.190  15.085  15.093  0.2131  0.0950 -0.1871
14569W        W29700   2.279  13.831   0.887  0.3880  0.0818  0.0485
14570W        W29701   2.706  11.028   5.205 -0.3571  0.1153  0.0343
14571W        W29702   0.842  10.555   2.407 -0.2800 -0.0074 -0.2040
14572W        W29703   4.511   7.725   3.383 -0.1171 -0.2511 -0.1322
14573W        W29704  16.376  16.886  10.661 -0.0737  0.0110  0.0657
14574W        W29705   8.391  15.080   1.943  0.3601  0.3928 -0.0415
14575W        W29706  15.362  13.030  11.393 -0.1400 -0.0645  0.2414
14576W        W29707   6.355   5.413  12.777 -0.5752  0.0648 -0.2699
14577W        W29708   8.256   3.022   3.845 -0.2129 -0.0135  0.0309
14578W        W29709  16.235   2.753   0.635  0.0451  0.0782  0.4124
14579W        W29710   0.543   9.098  11.855 -0.1330  0.2027 -0.1571
14580W        W29711  12.812  14.635   0.260 -0.0479  0.2721 -0.1031
14581W        W29712  11.151   4.468   4.243  0.1070  0.1247 -0.1354
14582W        W29713   1.258  15.740   3.628 -0.0841 -0.1993 -0.1425
14583W        W29714   9.501   2.141  12.630 -0.0497 -0.1127 -0.1374
14584W        W29715  10.946  12.255  10.783 -0.0666  0.0191 -0.0145
14585W        W29716  13.549   9.022  10.995 -0.0929  0.1241 -0.1803
14586W        W29717   1.206   9.594   6.069 -0.1136 -0.1785 -0.0799
14587W        W29718   1.615   9.771  13.498  0.0436  0.2980  0.3936
14588W        W29719   1.321  18.386   3.140 -0.2229 -0.2606 -0.1758
14589W        W29720  16.929   9.078  11.490  0.1798 -0.2953  0.3706
14590W        W29721  11.116  10.400  12.430 -0.0074 -0.1618  0.0980
14591W        W29722  15.875  13.701   1.057 -0.0797 -0.0035  0.1625
14592W        W29723  10.962   9.119   4.121  0.1246 -0.2146 -0.0457
14593W        W29724   0.155  13.306   5.568 -0.0783 -0.1580  0.2739
14594W        W29725   2.939  12.402  12.790 -0.0087  0.0509 -0.0150
14595W        W29726   2.330  11.551   3.599  0.2588  0.0451 -0.0933
14596W        W29727   9.506  16.705   2.664  0.1646  0.1271  0.3165
14597W        W29728  11.714   1.626   5.049 -0.2397  0.0582  0.0518
14598W        W29729  16.593  11.804   1.186 -0.1590  0.4200  0.3040
14599W        W29730   4.170  16.746  13.447 -0.0002 -0.1720  0.0462
14600W        W29731  10.154   5.613   2.868  0.0058 -0.0200  0.1571
14601W        W29732  13.055  10.073   3.391  0.0917  0.0741 -0.1502
14602W        W29733  11.460   6.860  11.655 -0.3288 -0.1535  0.0629
14603W        W29734   8.801   3.571   4.475  0.0530  0.2594 -0.0381
14604W        W29735  18.095   3.397   4.295 -0.0743  0.0387 -0.0077
14605W        W29736   9.712  15.765   0.671 -0.0600 -0.3399 -0.1344
14606W        W29737   6.436   1.782   5.283 -0.4192 -0.1310  0.1863
14607W        W29738  14.486  10.312  11.311 -0.0466  0.1309 -0.0127
14608W        W29739   3.654   6.035  14.361  0.2078 -0.1408  0.3475
14609W        W29740  15.068   4.337   0.581  0.0541 -0.0052  0.0477
14610W        W29741  18.232   0.121  13.054  0.0972 -0.0333  0.0362
14611W        W29742   2.988   2.764  13.856  0.2626  0.2767 -0.1910
14612W        W29743   4.783   5.150  13.337  0.2613 -0.2586  0.0555
14613W        W29744  16.395  16.234  13.254  0.0272  0.1783  0.1749
14614W        W29745  10.633   2.306  14.262  0.1643 -0.1385 -0.3962
14615W        W29746   1.271   2.862  13.055 -0.2979  0.1920  0.1506
14616W        W29747   2.706  10.115  15.146  0.1124  0.0671  0.2770
14617W        W29748   3.968   8.944   2.543  0.0067 -0.1829  0.2975
14618W        W29749  17.065  18.329  12.525  0.1351 -0.0644 -0.3780
14619W        W29750   9.582  14.598  15.399 -0.1404  0.1378  0.1346
14620W        W29751   1.012   8.216   3.957  0.1179  0.0044 -0.2296
14621W        W29752  17.646  15.753  13.641 -0.2441  0.2089 -0.1358
14622W        W29753  10.236   3.582   3.587  0.0739  0.2089 -0.1071
14623W        W29754   5.404   2.635  12.230 -0.1986 -0.1055  0.0968
14624W        W29755  14.303   0.525  11.740  0.3996  0.0862 -0.0370
14625W        W29756  11.685  11.804  11.390 -0.0086 -0.1990  0.0124
14626W        W29757   5.990   6.726  15.185  0.1996  0.5561  0.1839
14627W        W29758   8.825  12.161   3.149  0.0337  0.0396 -0.2330
14628W        W29759   4.217   5.935  13.538 -0.0373  0.0584  0.3341
14629W        W29760   1.813   2.676  12.613  0.0393 -0.0498  0.2318
14630W        W29761   9.947   3.258   3.312 -0.0192 -0.1096  0.0543
14631W        W29762  10.541   2.272   4.311  0.0011  0.2506  0.1486
14632W        W29763   0.246   8.131  14.299 -0.0454 -0.1070  0.0112
14633W        W29764   4.978   1.509   6.063  0.1550 -0.0227  0.5740
14634W        W29765   6.644   9.980   1.703 -0.1816  0.1406  0.1347
14635W        W29766  16.198   1.293  15.070  0.1922  0.0618  0.1366
14636W        W29767   9.455   1.868  15.450  0.2448  0.0225 -0.0869
14637W        W29768   0.250   8.393   0.024 -0.0646  0.3717 -0.1290
14638W        W29769   2.869  15.192   4.103 -0.0606  0.0345 -0.1136
14639W        W29770  12.389   3.041  15.741  0.1705 -0.0966 -0.1089
14640W        W29771   1.370  11.745  12.622  0.0390 -0.0216 -0.3443
14641W        W29772   5.692   3.488  11.783 -0.1865 -0.1490 -0.2880
14642W        W29773  18.189  13.424   5.574 -0.1732 -0.0008 -0.1402
14643W        W29774   3.296   9.946   0.602 -0.2173 -0.0075 -0.1188
14644W        W29775  16.294  13.394  12.630  0.3028  0.2120 -0.1842
14645W        W29776  15.539   9.318   3.051 -0.3036 -0.0398  0.4117
14646W        W29777   6.548   3.863  10.874  0.2157  0.0276 -0.0887
14647W        W29778   9.456  16.065   2.479 -0.0879 -0.1682 -0.0189
14648W        W29779   3.200   1.968   3.638  0.1152 -0.1408  0.1838
14649W        W29780  16.334   2.899   1.522  0.2192  0.3620 -0.1958
14650W        W29781  12.760  16.995  11.571  0.1200 -0.0259  0.3185
14651W        W29782   4.307  14.127  13.197  0.4277  0.0531 -0.1624
14652W        W29783  18.115   4.917   3.033 -0.2268 -0.1525  0.2146
14653W        W29784  17.878  17.546  11.607 -0.2815 -0.0371 -0.4307
14654W        W29785   7.959  12.695   1.986  0.2698 -0.0154  0.0267
14655W        W29786   1.801   9.874   1.944  0.0732  0.0307  0.0752
14656W        W29787  17.267   2.252  12.510  0.3123  0.1281 -0.3093
14657W        W29788   7.294   1.640  11.012  0.1452 -0.0462 -0.2376
14658W        W29789  15.281  10.947   2.575  0.0320 -0.1533  0.1301
14659W        W29790  13.405  18.452   0.130  0.1585 -0.0204 -0.0179
14660W        W29791  11.687  15.086   3.386 -0.2586  0.2181 -0.0640
14661W        W29792  15.229   0.115  10.972 -0.4293  0.2809 -0.2691
14662W        W29793   5.775  12.059  11.339 -0.3071 -0.2407  0.0482
14663W        W29794   3.756  14.420  13.092  0.1157 -0.1078  0.0720
14664W        W29795   4.503   1.297  10.874  0.0925  0.0683  0.2156
14665W        W29796  14.782   3.177   5.397  0.2354  0.2025  0.1809
14666W        W29797   6.808  13.195   3.913 -0.0846 -0.2159 -0.3098
14667W        W29798   3.324  15.191  12.357 -0.2139  0.1804  0.0079
14668W        W29799  12.474  12.329  12.340 -0.2289 -0.0836  0.0322
14669W        W29800  13.741  17.887   1.349 -0.1606  0.0152  0.0367
14670W        W29801  11.157  13.261   3.283  0.2365 -0.1598 -0.1291
14671W        W29802   9.923   8.143  14.113 -0.0352 -0.0686 -0.1318
14672W        W29803  10.729  12.059   1.416  0.0052 -0.0499  0.0029
14673W        W29804   2.943   9.768   1.735  0.2973  0.1284 -0.2421
14674W        W29805   6.193   7.670  13.776 -0.4680 -0.0818 -0.0876
14675W        W29806   8.797  14.633  15.030 -0.0431  0.2393 -0.0703
14676W        W29807  11.295   9.330   1.751 -0.1089 -0.1824  0.2924
14677W        W29808   2.629  16.211  12.326  0.0527  0.1480  0.1039
14678W        W29809   9.468   7.849  11.745 -0.1172  0.1456  0.4306
14679W        W29810   6.957  10.240  15.463 -0.0438  0.1267 -0.0769
14680W        W29811  16.436   0.410   2.069 -0.1752  0.0207 -0.0255
14681W        W29812  11.782   3.062  14.067 -0.0514 -0.1585 -0.1407
14682W        W29813   1.297  11.354   0.855  0.3582  0.2422  0.0677
14683W        W29814  13.227   9.677  12.604  0.1430  0.0246  0.3750
14684W        W29815   4.327  15.583   3.338  0.0310  0.2657  0.3455
14685W        W29816   1.046   8.384  14.830  0.1818 -0.1652 -0.0454
14686W        W29817  12.807   9.126   4.683 -0.1324  0.1198 -0.0114
14687W        W29818  16.124  11.659  14.939 -0.0692  0.0873 -0.0140
14688W        W29819   9.513  11.071  10.900  0.2766  0.0832  0.2411
14689W        W29820   3.483  11.084  12.672  0.2501 -0.3438  0.1073
14690W        W29821   7.849  11.972   1.956 -0.3119  0.3372 -0.3039
14691W        W29822  13.310   5.721  13.409 -0.0502 -0.0895  0.0825
14692W        W29823   1.167   2.488   1.495  0.1622 -0.0446 -0.0522
14693W        W29824   1.867  14.873   0.551  0.2536  0.2819  0.0264
14694W        W29825  17.289   0.382   1.773  0.1077  0.0190 -0.0780
14695W        W29826   7.034   5.476   0.969 -0.1313  0.2403 -0.1275
14696W        W29827   3.259  11.098   4.970  0.0347  0.1449  0.1086
14697W        W29828   8.495   8.595   5.837  0.0626 -0.0518  0.0639
14698W        W29829  10.744  15.887  15.056 -0.2691 -0.1451  0.1121
14699W        W29830   5.411   0.458   3.363 -0.0099  0.0084  0.1358
14700W        W29831   4.920   8.263   3.454 -0.1940 -0.1310  0.2167
14701W        W29832   0.097  12.389   2.644  0.0475 -0.1606 -0.1620
14702W        W29833   1.483  16.545   0.019 -0.1831  0.0426 -0.1903
14703W        W29834  16.201  15.822   4.029  0.1010  0.0014  0.0076
14704W        W29835  14.907   2.014   4.556 -0.1174  0.1715 -0.3565
14705W        W29836   2.853   5.451   5.477 -0.1587 -0.0661  0.2976
14706W        W29837   1.785   0.064  12.464 -0.2619 -0.2832 -0.0146
14707W        W29838  13.071  14.207  12.332  0.0414 -0.1322 -0.1704
14708W        W29839  12.037   8.636   2.179  0.0548 -0.0288  0.0218
14709W        W29840   5.467   8.510   4.428  0.0652 -0.0632 -0.0103
14710W        W29841  12.033   6.306  12.411 -0.3307 -0.0191  0.0985
14711W        W29842  16.229  10.242   6.479  0.0166  0.5550 -0.3037
14712W        W29843  11.675  11.851   4.658 -0.2827 -0.1018 -0.2121
14713W        W29844   5.602   5.932  13.413 -0.1623 -0.2548  0.0939
14714W        W29845   0.624   6.077  11.277 -0.0263  0.1208 -0.1882
14715W        W29846   9.578   1.217   4.900  0.1584 -0.2106  0.2880
14716W        W29847  14.219   6.476   3.349  0.0103 -0.2811 -0.0492
14717W        W29848  13.996   6.925   3.520 -0.0376  0.0092  0.2381
14718W        W29849   9.885   6.500  14.283  0.2387 -0.0314 -0.0418
14719W        W29850   7.854   7.188   1.013  0.3036  0.2642  0.0115
14720W        W29851  14.752   2.233  14.548  0.4979 -0.2043  0.3102
14721W        W29852   2.283  17.154  12.131 -0.1012  0.2267  0.0010
14722W        W29853  16.953  17.358   5.500 -0.1124 -0.1677 -0.1356
14723W        W29854   4.502   8.257  13.380 -0.0202  0.0573 -0.2065
14724W        W29855  11.987   8.905   4.093 -0.0716  0.5419 -0.1592
14725W        W29856  14.688  13.784  14.102  0.0567  0.1133  0.1373
14726W        W29857  12.783   0.471   2.009 -0.1181 -0.2562 -0.0444
14727W        W29858  12.338   6.934   5.244  0.0165 -0.4233 -0.0429
14728W        W29859  15.889  12.354   5.189  0.2673 -0.2292  0.0807
14729W        W29860   0.769   7.406  12.014  0.4897 -0.2069  0.1919
14730W        W29861  17.879  15.682   4.210 -0.2199  0.4291  0.2643
14731W        W29862   3.913   3.450  13.415 -0.1016 -0.1065 -0.2171
14732W        W29863  18.108   4.348  12.739  0.2499 -0.1556 -0.1658
14733W        W29864  12.587   5.025   4.638  0.2049 -0.1892 -0.0266
14734W        W29865   8.041   6.566   5.025  0.0805 -0.2201  0.0937
14735W        W29866   2.442   9.970  15.856  0.1437  0.0308  0.1370
14736W        W29867  11.539  15.037  10.567  0.1139 -0.0829 -0.1322
14737W        W29868  13.601  15.731  14.474  0.1164  0.0794  0.0444
14738W        W29869   1.897  13.304  11.699 -0.2089  0.4721 -0.0381
14739W        W29870   1.281   5.511  13.459  0.0457  0.0713 -0.1922
14740W        W29871   0.590   7.726   2.274  0.2509  0.0077  0.1231
14741W        W29872  11.532  10.679   3.658 -0.0481 -0.0914 -0.2036
14742W        W29873   7.680  14.444   0.610 -0.1639  0.0272 -0.2757
14743W        W29874   3.293   6.278  15.182 -0.1597 -0.1203 -0.0945
14744W        W29875   7.427   7.341   5.380  0.2333  0.1315 -0.4086
14745W        W29876  11.468  14.171  13.736 -0.1498 -0.0767  0.1022
14746W        W29877  16.442   0.953  13.184  0.1881 -0.3276 -0.2132
14747W        W29878  15.698   5.339   4.338 -0.0984 -0.0877  0.2263
14748W        W29879  10.298   6.825  14.454 -0.1030  0.0881 -0.1712
14749W        W29880  16.530  16.502  13.706  0.2466 -0.2509  0.1756
14750W        W29881   0.678   3.041  13.691 -0.1197  0.1523 -0.1126
14751W        W29882  18.344  17.193   5.292 -0.4931 -0.1409  0.2373
14752W        W29883  16.846  15.341  11.996 -0.1829 -0.2074 -0.0410
14753W        W29884  13.406   6.148  13.030  0.1279  0.1434  0.1412
14754W        W29885   4.220   5.436   1.843  0.0204  0.1337  0.2115
14755W        W29886  13.893  16.934  11.247  0.1020 -0.2859  0.1227
14756W        W29887  15.742  11.603  11.741 -0.3697  0.0015  0.2793
14757W        W29888  14.973  17.263  14.192  0.0131  0.1089 -0.0032
14758W        W29889  17.901   6.304   1.136  0.0626 -0.1418 -0.0455
14759W        W29890  16.970  15.759   4.772  0.1627  0.2691  0.1836
14760W        W29891   0.331   1.327   0.276  0.1124 -0.2853  0.1315
14761W        W29892   1.068   7.649   0.226  0.1017  0.2634  0.0921
14762W        W29893  14.216  17.668   1.445  0.2172  0.3058  0.0700
14763W        W29894  12.768   9.403   1.479  0.1221 -0.5005  0.2010
14764W        W29895  17.583  10.102   5.522 -0.0604 -0.0004  0.0300
14765W        W29896  16.869   3.159   0.686 -0.3915  0.0110  0.1550
14766W        W29897  10.108  18.276  11.319  0.2053 -0.0548 -0.1211
14767W        W29898  11.184  12.812  13.343  0.0034 -0.0531  0.0863
14768W        W29899  17.826  17.262   1.939 -0.0017 -0.1193  0.0828
14769W        W29900  16.244   1.921  11.145  0.2465 -0.5094 -0.0246
14770W        W29901   1.476   0.997  11.354  0.1338  0.2255  0.1633
14771W        W29902  13.092   1.332  13.728 -0.0805 -0.1378 -0.0875
14772W        W29903   3.667   1.217   3.063 -0.2008  0.0756  0.2387
14773W        W29904   0.371   5.310   5.721 -0.0513  0.1221  0.0360
14774W        W29905   9.407  17.906   1.780  0.2518  0.0727 -0.1325
14775W        W29906   4.690   8.022   2.606  0.1256  0.0932 -0.2600
14776W        W29907  12.571  17.369  14.412  0.0078 -0.3032  0.0582
14777W        W29908  14.503  12.701   1.356  0.0220  0.1159 -0.0085
14778W        W29909   1.055  17.067  14.362  0.1502  0.3835 -0.2616
14779W        W29910  11.851   7.829  11.448 -0.0007  0.0255  0.2169
14780W        W29911  12.528  15.272  14.925  0.0054  0.1631  0.1856
14781W        W29912  11.944   4.567   2.781 -0.0606 -0.0601  0.1261
14782W        W29913   8.601  17.435   1.431 -0.1879  0.0035 -0.0870
14783W        W29914   4.447  16.273   2.247  0.1640  0.1418 -0.2073
14784W        W29915   2.974   4.339   4.831 -0.2755 -0.1416 -0.1235
14785W        W29916  12.759   0.599  10.115 -0.0786 -0.2253  0.1217
14786W        W29917  11.363   7.482  13.518 -0.1006 -0.3936 -0.1226
14787W        W29918   8.378  15.211   1.373  0.5078  0.0214 -0.4825
14788W        W29919   0.043  13.328   1.445  0.2426 -0.2747 -0.0440
14789W        W29920   1.519   1.417  12.178  0.1374 -0.0603 -0.1605
14790W        W29921   7.553  10.303   3.942 -0.3130  0.0960 -0.0029
14791W        W29922   6.114   2.721  14.679 -0.1335  0.3864 -0.4008
14792W        W29923  14.050   9.533  15.031  0.3505 -0.2717 -0.0624
14793W        W29924   3.996   2.164   0.662  0.2029 -0.0469 -0.3578
14794W        W29925   8.498  13.250   4.597  0.4852  0.0934 -0.0123
14795W        W29926   4.226   7.292  15.364  0.0398 -0.1640  0.1087
14796W        W29927   6.971  16.883   9.772  0.2490  0.1214 -0.0465
14797W        W29928  13.455  17.829  11.337 -0.2454 -0.1925  0.3788
14798W        W29929  13.193   7.008  11.262 -0.0762  0.1467  0.1014
14799W        W29930  12.333   0.335   4.501 -0.3416 -0.4270 -0.0563
14800W        W29931  17.512  12.690  13.502  0.0069 -0.1057  0.2319
14801W        W29932   4.406  11.880  14.818  0.0696  0.1718 -0.1921
14802W        W29933  15.095   6.300  12.138 -0.0944  0.4246 -0.1729
14803W        W29934   4.622  16.459   4.923  0.3027 -0.2849  0.3371
14804W        W29935   8.074   9.640  15.404  0.1184 -0.0555 -0.1673
14805W        W29936  16.750  16.664  13.174  0.1024  0.0594 -0.3607
14806W        W29937  14.503  14.381   4.194 -0.0991  0.3775  0.0089
14807W        W29938   3.901   5.286  10.925  0.1311 -0.1669  0.1743
14808W        W29939   5.271   9.907  10.860  0.0119 -0.3183  0.0446
14809W        W29940   5.518   4.054   3.475  0.1124  0.4549  0.2437
14810W        W29941   1.646   6.272   1.871  0.0806  0.1075 -0.1617
14811W        W29942  12.956  12.072   5.344 -0.0980 -0.1623 -0.0379
14812W        W29943   0.531   2.981  11.798  0.1579  0.2276 -0.3074
14813W        W29944  16.912  12.304  11.083 -0.0849  0.1613  0.3585
14814W        W29945   0.297  17.024   1.094 -0.0440 -0.1769  0.0945
14815W        W29946   7.591  15.757   3.561  0.0909  0.1066 -0.2536
14816W        W29947   6.020   7.878  14.504 -0.0151  0.0288 -0.3541
14817W        W29948   0.076  18.250  15.803 -0.3201 -0.0829  0.2939
14818W        W29949   7.362   7.352  15.085 -0.1338  0.1614  0.0562
14819W        W29950  11.733  16.581   0.027  0.0157  0.3119 -0.2069
14820W        W29951  14.065  10.549  14.555  0.0130  0.1009 -0.0907
14821W        W29952  15.969   6.588  12.259 -0.0912  0.1240 -0.2435
14822W        W29953   6.113   9.370   1.616  0.2532 -0.0141  0.0452
14823W        W29954  16.386   3.581   2.847 -0.1091 -0.6112  0.0552
14824W        W29955   4.779   6.019  15.010  0.0949 -0.0845 -0.1040
14825W        W29956   0.373   1.602  10.737  0.1535  0.2543 -0.0108
14826W        W29957  18.549   8.696   2.133 -0.1406  0.0237  0.3487
14827W        W29958  16.134  12.885   0.201  0.3447 -0.1089 -0.2374
14828W        W29959   7.544   8.417   2.595 -0.1733 -0.2653 -0.0716
14829W        W29960   0.554  15.859  12.548  0.2423  0.0624  0.2073
14830W        W29961  12.207   6.927   4.596 -0.1302  0.1256  0.0984
14831W        W29962   9.094   3.492   4.943  0.0118  0.1786  0.1242
14832W        W29963   8.962   6.214  13.276 -0.2874  0.4854 -0.0211
14833W        W29964   0.268   1.995  11.772  0.1354 -0.1640  0.0830
14834W        W29965   1.349  12.253  12.448  0.1541  0.3399 -0.0997
14835W        W29966   1.316  16.916   4.673  0.2130  0.0988 -0.3797
14836W        W29967   1.196  10.214   3.826  0.2111 -0.2028  0.1651
14837W        W29968  11.581   9.435  12.906  0.3365 -0.0403 -0.0340
14838W        W29969  13.075   9.815  13.865  0.2972 -0.2100  0.0518
14839W        W29970   5.508  10.231   4.598  0.1266 -0.0730  0.2120
14840W        W29971   1.756   0.090   4.765 -0.1033  0.0323 -0.2164
14841W        W29972   6.498  15.731   2.826 -0.2151 -0.0214  0.1804
14842W        W29973  18.507   9.930   0.130  0.1921  0.1685 -0.0423
14843W        W29974   8.618  10.265  13.165  0.0702  0.1174 -0.1123
14844W        W29975  11.372   0.231   2.905 -0.1282  0.0077  0.0752
14845W        W29976   8.563  16.191   2.335 -0.0473 -0.0603  0.4514
14846W        W29977  17.653   7.565  13.771  0.1771 -0.0892  0.0512
14847W        W29978  16.940   5.833   5.094  0.0411  0.2540 -0.3250
14848W        W29979   1.223  12.732  14.356 -0.1833  0.0390 -0.0928
14849W        W29980  12.845   9.803  13.349 -0.0637 -0.2625  0.0376
14850W        W29981   6.467   0.788  12.901  0.3033 -0.1227 -0.0295
14851W        W29982  14.605   0.314   3.071 -0.1430 -0.0369 -0.1127
14852W        W29983  12.728   7.606  15.722 -0.0166 -0.0538  0.3433
14853W        W29984   2.129   5.272  14.352 -0.0575 -0.0838 -0.0663
14854W        W29985  14.560  17.566   4.845  0.1273  0.0188 -0.0519
14855W        W29986   8.503  14.291  12.393 -0.0120 -0.0103 -0.3738
14856W        W29987   7.190  13.143  15.672 -0.1738 -0.2239  0.2353
14857W        W29988   5.868  11.185   4.559 -0.0267 -0.1305  0.3548
14858W        W29989  12.621   5.877  11.613  0.2435 -0.3236 -0.1921
14859W        W29990   2.843  14.796   5.077 -0.1904 -0.1364 -0.3207
14860W        W29991   9.805  13.973   4.789  0.1435 -0.2312  0.0003
14861W        W29992   6.729   2.342  12.086 -0.0957 -0.2040  0.1375
14862W        W29993   3.799   7.109  13.070 -0.0591 -0.0707 -0.0630
14863W        W29994  18.121  17.928  12.770  0.0721 -0.1906 -0.0271
14864W        W29995   7.807   9.876  11.154  0.2007  0.1690  0.0114
14865W        W29996   1.213   1.157  13.010  0.1388 -0.0784  0.0513
14866W        W29997  16.800  15.604  12.421 -0.0659 -0.1176 -0.2835
14867W        W29998   2.796  11.254  11.566  0.0159 -0.3565  0.1844
14868W        W29999  15.679   9.639   2.458 -0.2775 -0.2199 -0.2590
14869W        W30000  10.875   6.815  12.378  0.0147  0.1167  0.0350
14870W        W30001   3.562  18.220  11.551  0.3678 -0.1794  0.2448
14871W        W30002  13.809   6.854  12.384 -0.1357  0.4956  0.1457
14872W        W30003  16.197  13.151  11.040 -0.2727 -0.0652 -0.2861
14873W        W30004  17.007   9.749   1.555  0.0230  0.0753  0.2820
14874W        W30005   3.219   0.232   5.639  0.0324  0.1344  0.1042
14875W        W30006   8.192   5.735  14.050  0.2043 -0.0014 -0.0894
14876W        W30007   1.684   4.160  15.716 -0.1797  0.1390 -0.0345
14877W        W30008   7.381   0.049   0.136  0.2629  0.2086 -0.1305
14878W        W30009   5.350   4.350   0.467  0.2052 -0.2812 -0.1617
14879W        W30010   7.912   5.431   2.753  0.0191 -0.1041  0.0082
14880W        W30011  16.753   6.330   0.256  0.3057  0.1863 -0.0874
14881W        W30012   6.979  10.765  10.093 -0.1256  0.1876 -0.0042
14882W        W30013  14.745  15.335   2.637  0.2046 -0.0120 -0.1102
14883W        W30014   2.795  11.519  15.832  0.0856 -0.1064  0.0632
14884W        W30015  10.687  17.501  14.309  0.1994 -0.0571 -0.0534
14885W        W30016   2.844  13.848  12.117 -0.0723 -0.0349  0.1499
14886W        W30017  14.876  10.566   1.018 -0.0625 -0.0964  0.0457
14887W        W30018   1.789  11.850   1.887 -0.2402  0.0596  0.4479
14888W        W30019   6.617   2.731   4.119 -0.0636  0.1801 -0.1347
14889W        W30020   8.386   0.600   2.522  0.0818  0.1048 -0.4356
14890W        W30021   0.214   4.066   0.298 -0.0764  0.0245 -0.1011
14891W        W30022   7.703  11.515   2.010 -0.0953  0.0050  0.0393
14892W        W30023  14.674   2.790   0.425 -0.0355  0.0643 -0.0137
14893W        W30024  17.467   6.302  11.929  0.0838 -0.0993  0.1724
14894W        W30025  11.983   0.294   5.321  0.2406  0.2346 -0.0354
14895W        W30026   1.659  15.770  13.349  0.0084 -0.3253 -0.0074
14896W        W30027  17.326  12.151  13.075  0.0552 -0.0017  0.3912
14897W        W30028  15.378   0.024  13.941 -0.1804  0.0267  0.1380
14898W        W30029   6.408   1.122  10.614 -0.4757 -0.4981 -0.0965
14899W        W30030   2.067   9.616  12.428 -0.0130 -0.2923 -0.1027
14900W        W30031  13.796   5.398  11.630  0.0139 -0.0259  0.0331
14901W        W30032   3.556   3.104  13.272  0.0145  0.2106  0.0012
14902W        W30033   8.830   9.084   1.010 -0.1047 -0.1063 -0.1563
14903W        W30034  18.053  11.065  12.253  0.1861 -0.0627  0.0718
14904W        W30035   9.139  10.919  13.204  0.2828 -0.0153  0.1805
14905W        W30036  12.472  15.213  15.895  0.1133 -0.1764 -0.1395
14906W        W30037  14.733  14.170   3.153 -0.2053 -0.0706 -0.2005
14907W        W30038   0.595  13.863  10.914 -0.1566  0.1968  0.2741
14908W        W30039   5.899  14.475  12.765 -0.0080  0.0910  0.2338
14909W        W30040  17.996  14.236   3.078  0.5524  0.0894 -0.2353
14910W        W30041  12.822  16.745  13.866  0.2770 -0.1459  0.0823
14911W        W30042   4.057   4.373   3.516 -0.2909 -0.1976 -0.0896
14912W        W30043   3.074   9.749   3.106 -0.0123 -0.1684  0.0987
14913W        W30044   6.261  18.046   5.589  0.1649 -0.2310  0.0518
14914W        W30045   0.912  16.378  11.411 -0.0265  0.2152  0.2977
14915W        W30046   3.263  17.547  14.104  0.2686 -0.1632  0.1166
14916W        W30047  16.849  14.073   2.991 -0.1663 -0.1029 -0.0436
14917W        W30048  10.129  11.551   3.849 -0.2885 -0.1092 -0.1085
14918W        W30049  12.945   9.547   1.020  0.0203  0.4558 -0.1706
14919W        W30050   8.445  15.636   2.976  0.3969  0.2316  0.2629
14920W        W30051   6.800   3.637   0.798  0.0361  0.0492 -0.0201
14921W        W30052  12.306   1.595   2.782 -0.1305  0.0556  0.0514
14922W        W30053  15.881   9.984   3.017 -0.0110 -0.2062  0.1253
14923W        W30054  15.866   0.867   1.440 -0.0773 -0.0649 -0.2503
14924W        W30055   1.663   4.229   4.216  0.3123 -0.1787 -0.0444
14925W        W30056  11.460  12.898  15.093  0.0137  0.2332  0.2188
14926W        W30057  12.612   1.599  10.640  0.1461 -0.1299 -0.2113
14927W        W30058   9.052  14.295  12.880  0.2672  0.0335 -0.2002
14928W        W30059  13.627  17.654  15.846  0.1176  0.0191 -0.2285
14929W        W30060   9.312   3.651   4.423 -0.0677 -0.1627  0.0222
14930W        W30061   7.101   8.949   5.313  0.0254  0.1008 -0.2427
14931W        W30062   2.050   6.594   5.062  0.2237  0.1843  0.1593
14932W        W30063  14.606  15.152  10.721 -0.0799 -0.1432  0.0987
14933W        W30064  16.453   7.280   0.035 -0.0666  0.2103  0.4093
14934W        W30065   0.064   1.931   6.039 -0.0413  0.3059  0.3166
14935W        W30066   5.268   0.352   9.668 -0.2470  0.0705 -0.1022
14936W        W30067  11.931  16.599  11.580 -0.0221 -0.0778 -0.1477
14937W        W30068  13.386   3.122   4.924 -0.0260  0.1302  0.0532
14938W        W30069   4.813   8.131   1.304 -0.0858  0.0382 -0.0799
14939W        W30070  11.616  10.732   4.544  0.0883 -0.2266  0.1791
14940W        W30071   4.592  12.864  14.641 -0.2953 -0.1324  0.3900
14941W        W30072  11.747   8.027   3.977  0.2401 -0.2145  0.2252
14942W        W30073   4.018  17.993  14.837 -0.0630  0.0647 -0.3828
14943W        W30074   9.331  11.215  15.786 -0.1329  0.1239 -0.0366
14944W        W30075  10.150  14.547  12.010  0.1852  0.0525  0.0442
14945W        W30076  10.100   0.151  10.972  0.2441 -0.3537  0.1983
14946W        W30077   6.464   3.421  12.753  0.3064 -0.0392  0.3408
14947W        W30078   1.502   6.130   1.043  0.1135  0.1683  0.1000
14948W        W30079   5.313  13.888   3.833 -0.1679 -0.0248 -0.0729
14949W        W30080   2.797   4.376  13.876  0.2167 -0.1890 -0.0697
14950W        W30081  13.825  10.256   0.101  0.0172 -0.4034 -0.4406
14951W        W30082   8.872   0.557   1.433 -0.0967 -0.0538  0.1380
14952W        W30083   9.018  14.016   5.045 -0.0347  0.1786  0.0536
14953W        W30084   8.386  15.828  11.570  0.0661 -0.0794 -0.1766
14954W        W30085   8.268  12.744  14.574 -0.2143  0.2799  0.1396
14955W        W30086   2.757   0.131  10.618 -0.0135 -0.1840 -0.1676
14956W        W30087   9.319  12.139  14.449  0.3174  0.3394  0.0996
14957W        W30088   5.950  17.558  12.877 -0.2986  0.0868 -0.1795
14958W        W30089   5.651  10.816   1.865  0.0555 -0.0395 -0.1694
14959W        W30090  16.558   1.457  11.918  0.0173 -0.1061 -0.2790
14960W        W30091  14.164  17.362  13.682  0.1884 -0.0759 -0.0645
14961W        W30092   1.227  12.510   4.980  0.0033  0.1663  0.0129
14962W        W30093  17.534  11.694   1.678  0.0579 -0.0677  0.2215
14963W        W30094   3.101   4.413  11.118  0.3145 -0.1903  0.2118
14964W        W30095  12.354  14.151   4.186 -0.1206  0.3495  0.0972
14965W        W30096   8.467  12.436  14.233 -0.0575 -0.0812  0.0152
14966W        W30097   0.500   3.742   1.723  0.1131  0.1426 -0.0742
14967W        W30098  16.585  10.332   0.191 -0.0166  0.1228 -0.0809
14968W        W30099   0.233  16.402  14.781  0.1820 -0.0528 -0.1882
14969W        W30100  12.805  15.764  12.100  0.6819  0.1488  0.4782
14970W        W30101  12.002   8.396   5.716 -0.0054  0.1286  0.1984
14971W        W30102  16.640  10.464  14.981 -0.0063  0.2082 -0.5497
14972W        W30103  10.988   0.139   4.682  0.2678  0.1721  0.2455
14973W        W30104   2.893  14.419  10.781  0.0023 -0.1718 -0.2129
14974W        W30105  10.718  15.090  12.639  0.1497  0.4447  0.0979
14975W        W30106   0.108   0.814   0.742  0.2097  0.0668  0.1127
14976W        W30107   8.042   7.748   0.214  0.2868  0.1694  0.1204
14977W        W30108  12.561  11.824   2.869  0.0023  0.1304  0.0877
14978W        W30109   5.738   7.908   0.738 -0.1653  0.0814  0.0972
14979W        W30110  14.334  15.377   0.836  0.0833  0.2019  0.0552
14980W        W30111  18.436  12.164  12.185  0.1813 -0.0797 -0.0324
14981W        W30112   9.250   6.512  15.320 -0.0350  0.3999  0.0356
14982W        W30113   3.554  17.169   2.350  0.3729 -0.0642 -0.0732
14983W        W30114   0.549  12.333   1.318  0.0391 -0.0228  0.0700
14984W        W30115   3.801   6.362  13.905  0.2040  0.2166  0.1732
14985W        W30116  12.234  14.571   5.284 -0.0821 -0.1584  0.0251
14986W        W30117  17.624  10.499   4.731  0.1057 -0.1700  0.0246
14987W        W30118  13.340  13.924  13.203 -0.2955  0.0777  0.0848
14988W        W30119   2.832   7.283   3.564  0.0544 -0.1587 -0.4649
14989W        W30120   0.585   8.904  13.107  0.2151  0.2529 -0.2804
14990W        W30121  17.803   6.051  13.166 -0.0005  0.0091 -0.0273
14991W        W30122   7.646  13.519   2.070 -0.0589 -0.0573  0.0137
14992W        W30123   8.971   2.823   0.540 -0.0289  0.3469  0.2871
14993W        W30124   3.961   2.578   3.786  0.1236  0.4826 -0.0913
14994W        W30125   9.267   5.795  13.793 -0.2513 -0.2167 -0.2463
14995W        W30126   0.892   3.378   2.714  0.0398 -0.1364 -0.0942
14996W        W30127  14.351   1.239   0.650 -0.0631  0.1235  0.0543
14997W        W30128  13.050   7.578  11.447  0.0298  0.1464  0.0394
14998W        W30129   7.405   3.588   0.726  0.2463 -0.1586  0.2007
14999W        W30130   3.345   2.455  12.602 -0.3039  0.2431  0.1562
15000W        W30131   2.599  10.851  13.042  0.1127  0.1874 -0.0848
15001W        W30132  11.843  10.039  12.168  0.2243  0.2632 -0.1525
15002W        W30133   6.970  14.409  12.766 -0.2406  0.0479  0.1147
15003W        W30134   5.959  18.090   0.985 -0.3005  0.1070 -0.0351
15004W        W30135   9.887   0.214   2.013 -0.1182  0.1338 -0.1821
15005W        W30136   2.206  17.845  11.452  0.3221  0.1628  0.1992
15006W        W30137  14.584  13.675   4.629  0.1799  0.0604  0.1484
15007W        W30138   9.195  10.960   4.393  0.0299  0.0231  0.1996
15008W        W30139   3.641   0.692   4.834  0.0090 -0.1128  0.0916
15009W        W30140  16.670  11.234   0.615  0.1564  0.0786 -0.2711
15010W        W30141   3.761   3.202   1.058  0.2065  0.1014 -0.1507
15011W        W30142  17.493   8.150  12.356  0.0690 -0.0161  0.3299
15012W        W30143  10.863  13.263   2.185 -0.0135  0.1185  0.0364
15013W        W30144  14.717  10.707  11.411 -0.2037 -0.2280 -0.1999
15014W        W30145  16.748   9.645  12.262 -0.4319 -0.0537  0.1939
15015W        W30146  11.350   7.482   3.600  0.0472 -0.0834 -0.0603
15016W        W30147   8.049   4.057   0.105 -0.2068 -0.1310 -0.0095
15017W        W30148  17.940   7.228  11.335 -0.3222 -0.1893 -0.2280
15018W        W30149  11.931   9.975   0.149 -0.0570  0.2241 -0.0201
15019W        W30150   9.039  17.680   4.875 -0.2910 -0.1623 -0.2147
15020W        W30151  11.221   0.370   1.305 -0.3107  0.0986 -0.1943
15021W        W30152   5.725   5.162  10.704  0.3797 -0.3192 -0.2485
15022W        W30153   5.236   0.301   1.515  0.0938  0.1115 -0.0373
15023W        W30154   4.565  16.376  10.793  0.0897  0.1960  0.2378
15024W        W30155   1.679   0.638  15.865  0.2303 -0.0877 -0.2547
15025W        W30156  15.681   3.482  12.696  0.0675  0.0991 -0.1576
15026W        W30157   3.021  16.911   4.478 -0.3503 -0.2493  0.3695
15027W        W30158  18.289   7.492   6.010 -0.0265  0.2928  0.1066
15028W        W30159  11.068   4.464   2.209 -0.0048  0.1830 -0.0641
15029W        W30160   9.364  16.367   3.828  0.1855 -0.0828  0.2151
15030W        W30161  13.551  14.354   1.110  0.2278  0.0601  0.3294
15031W        W30162   0.172  17.449   0.755  0.2596 -0.0074  0.2886
15032W        W30163   4.056  11.325  11.902 -0.3773  0.3762 -0.1715
15033W        W30164   9.129  10.085   9.699 -0.3077  0.2045  0.0390
15034W        W30165   6.056   4.893   1.887  0.3517 -0.2766 -0.4649
15035W        W30166   1.342   8.595   2.046 -0.2462 -0.0756  0.1874
15036W        W30167   8.048   1.139  14.060 -0.0559  0.0924  0.2616
15037W        W30168   6.387  10.903   0.658  0.1152 -0.0999 -0.2054
15038W        W30169  12.751   8.060   5.216  0.0898  0.0422  0.1004
15039W        W30170  17.280  14.985   2.534  0.3540  0.2855  0.0072
15040W        W30171   6.409  11.532  14.935  0.0865  0.0427  0.0867
15041W        W30172   0.730   2.228   1.401 -0.1651  0.3233  0.0389
15042W        W30173   4.645  12.074  14.085  0.1036 -0.0247  0.0704
15043W        W30174   3.802   4.318  15.040  0.4262  0.0893  0.0387
15044W        W30175  13.424  12.254  14.455 -0.0426 -0.0046 -0.3238
15045W        W30176  10.352   6.977  15.385  0.0609 -0.1127  0.0179
15046W        W30177   1.653   3.024  11.465  0.1125  0.0092  0.0891
15047W        W30178  15.334   4.400   1.452  0.2474 -0.1503  0.0452
15048W        W30179   6.591   2.255   4.934 -0.1262 -0.2394  0.0030
15049W        W30180   0.735   8.803   3.158  0.0215  0.0736 -0.0896
15050W        W30181   3.110  13.170   1.542 -0.2369 -0.2011  0.1773
15051W        W30182   3.722   3.840   2.302 -0.0777 -0.0142 -0.2091
15052W        W30183  13.641  14.456  15.587 -0.0640  0.0318  0.1476
15053W        W30184   5.061   9.163   5.172 -0.2642  0.1741  0.0005
15054W        W30185   8.333   8.434  13.449  0.4472  0.1891  0.1288
15055W        W30186   4.288  17.083   3.367 -0.2814 -0.2192 -0.0518
15056W        W30187   4.240   3.421   2.801  0.2384  0.0337  0.1416
15057W        W30188   1.029   1.895   3.464  0.2746  0.1164  0.1297
15058W        W30189   7.782  12.386   5.324  0.4916  0.3667 -0.2038
15059W        W30190   4.114  11.211  10.952 -0.0960  0.1913 -0.0329
15060W        W30191  17.882  12.358  12.840  0.0102 -0.0072  0.3592
15061W        W30192   1.700   4.020   5.344  0.1733  0.1060 -0.0316
15062W        W30193   5.608  13.891  10.656  0.2391  0.0929  0.1553
15063W        W30194   5.421   5.349  12.070 -0.0427  0.4252 -0.2426
15064W        W30195   6.580   1.828   2.016  0.1654  0.0856 -0.1526
15065W        W30196   7.513   2.408  10.186  0.3051 -0.0098 -0.3130
15066W        W30197  16.789  16.752  14.116 -0.1059  0.1100  0.0265
15067W        W30198  16.393  11.619   0.740  0.0273  0.2652 -0.2688
15068W        W30199  15.317   6.680   5.688 -0.0427 -0.1067  0.0254
15069W        W30200  11.814   1.179  15.606 -0.4671 -0.1045  0.0509
15070W        W30201  11.551   9.111  13.293  0.2385 -0.3818  0.4079
15071W        W30202  14.929   2.265  13.612  0.0788  0.0293  0.0451
15072W        W30203   5.213  18.055  10.526  0.3466  0.2479  0.1124
15073W        W30204   1.692   6.186  14.526  0.4149 -0.0924 -0.0133
15074W        W30205  12.899   9.695  10.925  0.2694  0.1533 -0.1792
15075W        W30206   5.009  12.588  15.437 -0.0673  0.1164 -0.2456
15076W        W30207  17.298   2.847   4.353  0.2527 -0.1021 -0.0443
15077W        W30208  12.621  11.316   3.003  0.1013 -0.1264 -0.1876
15078W        W30209  10.492   8.181  15.487  0.0521 -0.1548  0.0617
15079W        W30210   1.548  15.115  14.730  0.0726 -0.0529 -0.1304
15080W        W30211  17.914   9.201   2.056  0.0718  0.1379 -0.0976
15081W        W30212   2.997   8.573   5.422 -0.0263 -0.0940 -0.0079
15082W        W30213  13.723  13.700  11.595  0.1270 -0.1362 -0.0255
15083W        W30214   9.750  11.918   0.695 -0.1164  0.1858 -0.2868
15084W        W30215  13.316   6.046  13.763 -0.0945  0.1807 -0.0558
15085W        W30216  11.147   4.396  10.599 -0.4692 -0.2338 -0.2425
15086W        W30217   5.312  18.347   4.628  0.1124  0.2521  0.2823
15087W        W30218  14.896   0.949   5.278  0.0493  0.0516 -0.0689
15088W        W30219  11.180  17.240  12.854  0.1859 -0.0685  0.1188
15089W        W30220   8.265   1.485  13.074 -0.3151  0.0281 -0.0738
15090W        W30221   4.238  14.314   5.528  0.2076 -0.0607 -0.0889
15091W        W30222  11.433   7.414   4.498 -0.4267 -0.1220 -0.0614
15092W        W30223   6.281  10.743   1.649  0.1255  0.2534  0.0042
15093W        W30224  16.326   0.077  11.188  0.1087  0.1082  0.0203
15094W        W30225   1.592  14.085   4.722 -0.0045  0.0228  0.2283
15095W        W30226  14.053  11.627   1.713  0.1661  0.0495 -0.3239
15096W        W30227  14.248   0.806  10.017  0.2008  0.2970  0.2226
15097W        W30228   2.163   6.345   5.516 -0.0345 -0.4520 -0.0918
15098W        W30229   1.890   5.156  15.630  0.0851 -0.0139  0.0086
15099W        W30230  14.522  11.083   4.617  0.1496 -0.0113  0.1993
15100W        W30231  11.406   9.695  11.596  0.1596 -0.0630  0.1099
15101W        W30232  11.628  11.548  14.266  0.0190 -0.0594 -0.1658
15102W        W30233  14.005   3.349  15.322 -0.1822  0.1236  0.2225
15103W        W30234  18.097  11.134  11.496  0.0833  0.2270 -0.2037
15104W        W30235   7.100  12.163   0.569 -0.0263 -0.0401  0.1948
15105W        W30236   3.531   1.930  12.103  0.0956 -0.3302  0.1809
15106W        W30237   9.755   6.713  15.238  0.0583  0.4248 -0.2618
15107W        W30238  12.572  14.520   1.952 -0.1122  0.0766  0.2453
15108W        W30239   3.622  17.699  10.464  0.1035  0.1717  0.4163
15109W        W30240   3.249   2.156  10.963 -0.0265  0.0026  0.1405
15110W        W30241   0.341   1.397  14.797  0.0492 -0.1787  0.1429
15111W        W30242   0.757   3.194   0.028 -0.2459  0.1075  0.1913
15112W        W30243  15.662  17.750  14.778  0.0454 -0.0032  0.1408
15113W        W30244   0.069   1.720   3.387  0.5908 -0.1240  0.0074
15114W        W30245   3.242  15.209   0.686 -0.1501  0.2608 -0.0293
15115W        W30246   4.677  12.751  12.393  0.3759 -0.1215 -0.1926
15116W        W30247  14.942  10.498  14.379  0.2047  0.0938 -0.1571
15117W        W30248  13.608  12.728   2.428  0.1627 -0.1605 -0.3290
15118W        W30249   6.809  15.962   3.225 -0.3619 -0.0146 -0.3192
15119W        W30250   9.293  12.469  12.220  0.0755  0.4531 -0.2034
15120W        W30251  11.796  16.324   0.909  0.3022  0.2229  0.1849
15121W        W30252  11.550  10.484   2.845  0.0215  0.1086  0.3396
15122W        W30253  10.540   5.995  12.754  0.3608 -0.0473 -0.1436
15123W        W30254  16.192  17.565  11.801  0.0463  0.0716  0.0649
15124W        W30255   7.629   5.862  13.107  0.2255  0.0825 -0.0819
15125W        W30256  10.140   4.189  13.245 -0.1520 -0.0475  0.1487
15126W        W30257   6.128   8.854  14.528  0.0314 -0.0532 -0.1849
15127W        W30258  12.594  14.007  13.884 -0.0831  0.2077 -0.0325
15128W        W30259  18.365  10.481  15.923  0.3962  0.3871 -0.3789
15129W        W30260   1.924  17.415  15.301 -0.0670 -0.0832  0.0235
15130W        W30261  16.414  18.516   0.059  0.2365  0.2615 -0.4822
15131W        W30262   1.827  17.099  13.288  0.0584  0.1036  0.0570
15132W        W30263   2.871   6.462  13.233  0.1736  0.1745 -0.2102
15133W        W30264  10.939   5.642  15.628 -0.0010 -0.2222 -0.3864
15134W        W30265  16.814  15.807  15.604 -0.0887  0.0113  0.0207
15135W        W30266  16.737   5.664  11.463  0.1780  0.0721 -0.2975
15136W        W30267  18.551   0.918  13.525 -0.1281  0.0278 -0.2829
15137W        W30268  10.023  11.722   5.426  0.0483  0.1548  0.3893
15138W        W30269   0.454   6.796   0.078  0.0282 -0.3225 -0.0169
15139W        W30270  13.363   9.334   4.532  0.3641  0.0556 -0.0993
15140W        W30271   0.906  16.845  13.418  0.0880  0.0999  0.1891
15141W        W30272   8.697  16.452  12.912  0.0103  0.0361 -0.2855
15142W        W30273  12.050   8.969   1.415 -0.7991  0.1487  0.1729
15143W        W30274  13.924  16.566   3.762  0.0929 -0.2303  0.2767
15144W        W30275   5.258  11.853   3.683 -0.1810  0.1414  0.2945
15145W        W30276  17.401   3.288   4.709 -0.1121  0.0889  0.1289
15146W        W30277   8.686  15.712  11.944  0.1729 -0.5628  0.1317
15147W        W30278   3.833  17.089   0.439  0.0627  0.1564 -0.0682
15148W        W30279  11.680  13.710  10.296  0.1373 -0.0541  0.1249
15149W        W30280   5.007   9.642  10.554 -0.1469 -0.0871  0.1294
15150W        W30281   3.073  15.717   4.881  0.2220  0.4527 -0.1748
15151W        W30282   7.245   0.725  15.333  0.0569  0.0666  0.0066
15152W        W30283   8.856  16.853  11.294  0.2106  0.3197  0.2396
15153W        W30284  17.041  10.241   1.809 -0.0539  0.1009  0.2822
15154W        W30285  11.602   6.072   1.848 -0.0472 -0.3615  0.1631
15155W        W30286   0.266   0.232  13.520  0.2022 -0.4596  0.1396
15156W        W30287  12.493  11.496  12.540 -0.1686 -0.2170 -0.1375
15157W        W30288  10.272   6.698   0.025 -0.2532  0.1075  0.1451
15158W        W30289   0.648   9.819   4.928  0.0371  0.1812  0.0201
15159W        W30290   8.364  14.338  11.722 -0.1993  0.2017  0.1233
15160W        W30291  11.282   8.909   3.747  0.0621  0.4590  0.2639
15161W        W30292  18.573   8.924  14.022  0.0185  0.1597  0.3178
15162W        W30293   0.391   1.812  14.419  0.2874  0.2904  0.0221
15163W        W30294   1.426   7.831   1.587  0.0129 -0.2653  0.0612
15164W        W30295   8.423   3.314   3.022  0.0387 -0.1481 -0.1250
15165W        W30296  15.872   7.659   1.360 -0.1635  0.1690 -0.0839
15166W        W30297   2.102   2.323   1.825  0.1217  0.0753 -0.0863
15167W        W30298  15.804  18.533   3.749  0.3037  0.0817 -0.1314
15168W        W30299   2.315   8.990   0.084  0.1804  0.2331  0.0962
15169W        W30300  12.964  18.251  10.665  0.1104  0.2933  0.0218
15170W        W30301  10.015  12.334   2.556  0.0955  0.0451 -0.2773
15171W        W30302  14.048   1.600  14.747 -0.4251  0.0599  0.0523
15172W        W30303  18.078   2.642  13.018 -0.1743  0.3848 -0.0821
15173W        W30304  11.254  14.599  13.628  0.0601  0.3435 -0.0178
15174W        W30305   5.811  11.599  15.463 -0.3179  0.3421  0.1685
15175W        W30306   5.593   7.503  14.931  0.1178  0.0045  0.2157
15176W        W30307  17.370   5.143  11.823 -0.3691 -0.0310 -0.2569
15177W        W30308   2.276  12.833   4.600  0.0540  0.2314  0.2623
15178W        W30309   1.084   5.364   5.009 -0.2986 -0.1187 -0.0288
15179W        W30310  12.421  16.409  12.352 -0.2942 -0.0718 -0.2313
15180W        W30311   8.341   1.397   1.867 -0.2913 -0.3693 -0.1962
15181W        W30312  14.281   1.154  11.269 -0.2488  0.1169  0.0863
15182W        W30313   1.051   9.207  14.121 -0.2006 -0.0828  0.0967
15183W        W30314   7.506   9.644  13.905 -0.6175 -0.2664  0.0909
15184W        W30315  16.065  15.886  12.779 -0.3776  0.0356  0.0385
15185W        W30316   6.608   0.405  10.431  0.1305 -0.1272 -0.0155
15186W        W30317   6.472   0.838  14.656  0.1620 -0.1689 -0.2222
15187W        W30318  16.419   7.245  14.602 -0.0679 -0.0181  0.0494
15188W        W30319   4.992   9.593   5.472  0.4902 -0.2185 -0.1389
15189W        W30320  11.301   2.509  11.845 -0.2164 -0.0631  0.2132
15190W        W30321   3.342   4.697  13.390  0.0346  0.1279  0.0422
15191W        W30322   3.043  11.884  11.432  0.0116 -0.0701  0.0704
15192W        W30323  17.900  16.228  12.929 -0.0810 -0.2022  0.0209
15193W        W30324   7.141   9.854  14.800 -0.2433 -0.2472  0.0670
15194W        W30325   6.571   3.960   0.380 -0.1088 -0.0144  0.1322
15195W        W30326   7.098   7.373   3.961 -0.1651 -0.1434 -0.3987
15196W        W30327  12.095   1.703   0.287 -0.3062 -0.1198  0.2338
15197W        W30328   2.225  16.889  11.244  0.2700  0.0867 -0.0297
15198W        W30329   4.143   5.843  14.760  0.2120  0.1491  0.3873
15199W        W30330   9.503   8.485   3.420  0.0970  0.1047  0.4413
15200W        W30331  11.634  15.412   4.814 -0.1173  0.3900  0.1796
15201W        W30332  16.221   6.748   2.593 -0.1667  0.1660 -0.0412
15202W        W30333  10.480  12.061  10.425 -0.0230  0.2064 -0.1766
15203W        W30334   4.942   0.772  13.735 -0.3873  0.3156  0.0275
15204W        W30335  10.979  14.425  15.082  0.0798  0.0441  0.0340
15205W        W30336  13.776  13.802   4.855  0.0806 -0.1137 -0.4659
15206W        W30337   0.632   1.439  11.152  0.0140 -0.3823  0.1154
15207W        W30338  10.282   9.199   4.139 -0.1521 -0.1671  0.0165
15208W        W30339   5.808  10.005  12.497 -0.2488  0.0644  0.0168
15209W        W30340  17.145   3.090  14.765  0.0290 -0.0829 -0.0561
15210W        W30341   1.011   2.489   2.648  0.0949 -0.3721 -0.1465
15211W        W30342   7.302  11.651   0.659  0.1594  0.3204  0.1197
15212W        W30343  15.578   8.827   3.116  0.0958  0.4429  0.2125
15213W        W30344  15.100   2.831   2.794  0.1423  0.1736  0.1921
15214W        W30345  13.525   7.805   0.968  0.1683  0.0106 -0.1029
15215W        W30346  18.278   1.684   4.264 -0.0633 -0.0829 -0.0196
15216W        W30347  12.135  11.586   3.030  0.2933  0.3792  0.3225
15217W        W30348   0.239  13.183   3.940 -0.0908  0.0591  0.2225
15218W        W30349   1.229  17.651  13.486  0.0392  0.0123 -0.0059
15219W        W30350   0.710   4.588  11.075 -0.0758 -0.1875  0.0826
15220W        W30351   8.608  13.741  15.453  0.0775 -0.0561 -0.2133
15221W        W30352   4.861   9.056   5.642 -0.1029  0.1194 -0.1363
15222W        W30353  18.504  16.855  14.710 -0.0001 -0.0324 -0.0960
15223W        W30354   8.581   5.118   0.840  0.2641 -0.3265 -0.1239
15224W        W30355  15.464  16.030  13.400 -0.3642 -0.1635 -0.2656
15225W        W30356   5.576   9.021   2.987  0.3215 -0.0125 -0.1713
15226W        W30357   4.295  17.668  13.409  0.0614  0.0806  0.0193
15227W        W30358   6.481  12.405   3.808 -0.0158 -0.0370  0.1612
15228W        W30359   5.839  10.999   1.340  0.1732  0.0036  0.0135
15229W        W30360   6.512  16.257  13.285  0.0589 -0.0182 -0.0071
15230W        W30361   3.174   5.254   3.993 -0.3258 -0.0106 -0.0311
15231W        W30362   4.138   7.062  13.473 -0.0535  0.0571 -0.0436
15232W        W30363   2.316   9.459   6.095 -0.2911 -0.1104  0.1198
15233W        W30364   2.358   4.055   4.320  0.1885 -0.0511  0.0048
15234W        W30365   1.469   3.250   4.188 -0.0847  0.1016  0.1620
15235W        W30366   3.251  14.036  11.368  0.0860  0.0335 -0.2006
15236W        W30367  10.659   5.254  15.458  0.1246  0.2165  0.2236
15237W        W30368   3.770  15.701   1.737  0.0125  0.2496  0.2073
15238W        W30369   1.222  10.257   2.628 -0.0097  0.4015 -0.4568
15239W        W30370  15.119  16.346  11.506  0.1676  0.1521 -0.0203
15240W        W30371   9.290  18.215   2.512 -0.4011  0.0174 -0.3960
15241W        W30372  17.064   9.857  14.143  0.2414 -0.1304 -0.3219
15242W        W30373  18.154  13.723   1.490 -0.1665  0.4026 -0.0710
15243W        W30374   5.460  15.888  10.926  0.4479 -0.1986 -0.1087
15244W        W30375   5.468   6.571   0.579 -0.1495 -0.0336 -0.0726
15245W        W30376   5.594   6.618   4.654 -0.0524 -0.0817  0.2335
15246W        W30377  15.755   5.354   1.856 -0.3484 -0.0753  0.0082
15247W        W30378  17.452   8.593  11.493  0.1258  0.0243 -0.1244
15248W        W30379   5.129   9.808  12.396 -0.2327  0.1400  0.5442
15249W        W30380   3.415  16.076  12.181 -0.2885  0.3289 -0.0098
15250W        W30381   0.979  16.905   3.549 -0.1657  0.1764  0.2144
15251W        W30382   3.853  11.410  13.027  0.0521  0.1042 -0.0848
15252W        W30383  15.984   0.055   1.362  0.0796  0.2306 -0.1664
15253W        W30384   5.323  17.315  13.323 -0.0033 -0.1203 -0.3972
15254W        W30385  12.517  17.818  11.869  0.1891 -0.4097  0.0370
15255W        W30386   1.806   9.688   4.307 -0.1050  0.0183 -0.1179
15256W        W30387  10.124   0.140  11.613 -0.0774 -0.0780  0.1631
15257W        W30388   6.359   6.746  11.251 -0.3577 -0.1344 -0.1375
15258W        W30389  13.468   3.541  12.062 -0.2107 -0.0413  0.1944
15259W        W30390  16.958   9.359   2.966  0.0320  0.0601  0.0033
15260W        W30391   9.879   9.054  11.446  0.0022 -0.0495  0.2448
15261W        W30392  11.579  12.568  12.240 -0.1665  0.2459  0.4102
15262W        W30393  18.171  12.510   1.655 -0.1676  0.3516 -0.0071
15263W        W30394   8.644   3.975   3.047  0.5727  0.1221 -0.3507
15264W        W30395   2.018   8.022   9.879 -0.0527  0.0292  0.0586
15265W        W30396   0.035   1.449   5.271  0.2335 -0.0661 -0.3003
15266W        W30397   6.604   4.991   3.905 -0.1476  0.1222 -0.0707
15267W        W30398   0.936  18.092  10.688 -0.1164  0.4034  0.3556
15268W        W30399   8.032  15.418   1.009  0.0315  0.1689  0.1246
15269W        W30400  14.029  11.965   4.080 -0.0981  0.2567 -0.0359
15270W        W30401  10.795  12.937   2.979 -0.2307 -0.0573 -0.2057
15271W        W30402   2.015  16.443   3.929  0.1443  0.2668 -0.1249
15272W        W30403  16.451  10.181  14.585 -0.0550  0.0672 -0.1561
15273W        W30404   3.067   7.084  11.500 -0.1268  0.2055 -0.3043
15274W        W30405   5.464   6.462  11.636 -0.3211 -0.1052  0.1319
15275W        W30406  16.179   0.896   1.041  0.0965 -0.0875 -0.1002
15276W        W30407   5.815  13.480   0.339 -0.1766  0.0737 -0.1444
15277W        W30408   7.512   9.711   2.854  0.0781  0.0773 -0.1516
15278W        W30409  11.088  16.517  13.867  0.1894 -0.1656 -0.3438
15279W        W30410  14.577  15.536  14.879  0.3269 -0.0260 -0.2875
15280W        W30411   8.320   3.084  11.399  0.0103 -0.0872  0.2448
15281W        W30412  12.500   7.070  14.816 -0.0701  0.0664 -0.1447
15282W        W30413  10.248   7.808   2.459 -0.1267  0.0003  0.2618
15283W        W30414  15.391  16.880  13.644  0.3322  0.2218  0.0578
15284W        W30415  10.745  11.797  12.273  0.1141 -0.0032 -0.3226
15285W        W30416  16.963  10.173  13.302 -0.1062 -0.1581 -0.0411
15286W        W30417   4.638  17.406   3.473 -0.1109 -0.0114  0.0369
15287W        W30418   5.297  14.338   1.375  0.0898  0.0172  0.0734
15288W        W30419   7.526   7.953  11.660 -0.1063  0.1167 -0.3058
15289W        W30420  12.310   6.795  12.599  0.1832  0.0790 -0.0719
15290W        W30421  15.475   4.233  12.241 -0.1740  0.2195  0.0501
15291W        W30422  12.964  11.465  15.017 -0.0721 -0.0527 -0.0354
15292W        W30423  17.326  13.800  11.633  0.2608  0.0567 -0.3413
15293W        W30424   0.382  11.809   0.599 -0.0052 -0.2090  0.3149
15294W        W30425   5.208  10.729  14.594 -0.3563  0.0258 -0.1493
15295W        W30426  17.656   9.074  10.317 -0.0315  0.0889  0.0350
15296W        W30427  15.344   0.985  13.224 -0.1745  0.0013 -0.1076
15297W        W30428  13.494  17.875   3.202 -0.0791 -0.0462  0.1543
15298W        W30429  13.829  17.403  14.478 -0.0564  0.3672  0.2308
15299W        W30430  13.360   6.769  12.200  0.3805  0.0401 -0.2447
15300W        W30431   4.336   2.613   4.077  0.2108  0.0093 -0.2700
15301W        W30432  13.424  15.544  14.057  0.2099 -0.1427  0.1104
15302W        W30433   0.380   6.798   6.078  0.4317 -0.1005  0.1564
15303W        W30434   9.646  11.347  15.172  0.0318 -0.0685  0.1228
15304W        W30435   6.251   1.811  15.205  0.2698 -0.0160  0.1714
15305W        W30436  14.297   0.472  12.561  0.0787 -0.2955  0.0814
15306W        W30437  10.763  12.697  14.118 -0.2407 -0.1731 -0.1749
15307W        W30438   5.156  10.002   3.691 -0.0974  0.2244 -0.2574
15308W        W30439  12.415  14.745  12.809 -0.0913  0.0524  0.0602
15309W        W30440   6.216   3.674   4.659 -0.1606  0.0794  0.0584
15310W        W30441  15.523   3.959  15.450  0.1195 -0.0485  0.1159
15311W        W30442   7.492  18.198  12.214 -0.1969  0.1703  0.1416
15312W        W30443   4.353  12.349   9.637 -0.1070 -0.1635 -0.2427
15313W        W30444  15.200   9.696   5.591  0.1454  0.1249 -0.2190
15314W        W30445  11.639   7.122   4.935 -0.4294  0.1347 -0.0412
15315W        W30446  11.376  14.907   2.740  0.0446  0.0933  0.0149
15316W        W30447  16.529  18.325  14.740  0.0673 -0.3163  0.2006
15317W        W30448  16.540   1.455  13.365  0.1174  0.2995  0.0872
15318W        W30449  14.226  10.264   2.506  0.0091 -0.2846 -0.1803
15319W        W30450  13.598  17.942   2.646  0.2251  0.1529 -0.1602
15320W        W30451  10.656   5.518  11.406 -0.1339 -0.4540  0.2061
15321W        W30452   3.361  10.106  15.796 -0.0015 -0.0391 -0.0485
15322W        W30453  12.899  18.060   2.095  0.2299 -0.3342 -0.2247
15323W        W30454  17.511  17.238  11.543 -0.0237  0.0657  0.1019
15324W        W30455  15.387   2.971  13.347  0.0166  0.0174  0.1907
15325W        W30456   8.127   0.588   5.789 -0.2378 -0.1634  0.2975
15326W        W30457  12.552   9.731   3.031  0.5095  0.1381  0.0668
15327W        W30458   1.535   3.277   5.969  0.1424  0.1052 -0.0977
15328W        W30459   3.163   0.868  14.961 -0.1145  0.0740  0.0610
15329W        W30460   4.502   3.189  13.736  0.0325  0.2156 -0.2710
15330W        W30461   7.781   6.357  14.869 -0.2372  0.1769 -0.0157
15331W        W30462  12.931   0.565  10.618 -0.3251 -0.0886  0.1490
15332W        W30463  15.444  18.192  15.628  0.0206  0.0007 -0.0945
15333W        W30464   0.231  16.022   1.530 -0.0907 -0.2937  0.0645
15334W        W30465   7.460  12.201  12.421  0.2929 -0.0765  0.1325
15335W        W30466  13.575  16.253  13.354  0.0881 -0.2822  0.5120
15336W        W30467  10.831  17.558  12.655  0.3037 -0.4073 -0.2176
15337W        W30468  17.435  10.782   3.544  0.2103 -0.4143 -0.0641
15338W        W30469  14.235  13.475   3.756  0.4363  0.1776 -0.1299
15339W        W30470  16.908   7.240  15.109  0.0373 -0.1494  0.1722
15340W        W30471  11.362   2.575   9.971 -0.2301 -0.1577  0.0225
15341W        W30472  12.749  11.748   3.402 -0.1372  0.2895  0.0470
15342W        W30473  16.237   0.338   2.728 -0.0508  0.1570  0.0486
15343W        W30474   2.501   6.767   1.425 -0.4829  0.1620  0.1080
15344W        W30475   1.127   1.198  15.801  0.1217  0.0511  0.2701
15345W        W30476  14.799   3.521  14.150  0.0741 -0.4086  0.0073
15346W        W30477   5.646  14.950   2.431 -0.3043 -0.1861 -0.1596
15347W        W30478   0.846   9.068   1.970 -0.3942  0.1538 -0.0553
15348W        W30479   3.529  18.076   0.500 -0.0656  0.2032 -0.3242
15349W        W30480   0.347   5.912   0.127 -0.1353  0.0281 -0.1674
15350W        W30481   6.021  16.216  12.173  0.2924  0.2701 -0.1889
15351W        W30482  14.139  16.485  11.975  0.0065  0.2742 -0.1070
15352W        W30483   1.964   4.009   4.742  0.2266  0.1149 -0.2667
15353W        W30484   3.750   9.548  15.690  0.0723 -0.0672 -0.0183
15354W        W30485   4.768  13.569   1.633 -0.0829  0.4569  0.3386
15355W        W30486  15.426  14.145   1.166  0.0448 -0.1838  0.2038
15356W        W30487  17.529  12.656   3.694  0.1573 -0.3120 -0.2351
15357W        W30488  15.236   3.660   4.486 -0.3372  0.1134 -0.2680
15358W        W30489  18.292   6.056   0.929 -0.1132  0.0446  0.0161
15359W        W30490   1.021  15.417  14.084  0.1244 -0.0050  0.1743
15360W        W30491  10.028  17.182  13.289  0.1285  0.0389  0.2101
15361W        W30492   3.476   9.130  11.564  0.0691 -0.2414 -0.0168
15362W        W30493  12.316  13.688  13.632  0.1110 -0.0080 -0.0127
15363W        W30494  10.801   8.933  12.066 -0.0706 -0.0666  0.0428
15364W        W30495   3.657  11.531  12.058  0.2506 -0.1273  0.0446
15365W        W30496   0.363   5.090   2.015  0.3398  0.2583 -0.1012
15366W        W30497   4.983  12.948   3.555  0.2874  0.1576  0.0062
15367W        W30498  14.172   2.343  11.734  0.2131  0.1400 -0.3106
15368W        W30499  15.670   7.216   1.381  0.1723 -0.2398 -0.2196
15369W        W30500  12.225   3.870  13.446  0.1906 -0.1790  0.2050
15370W        W30501   8.433   1.072  12.862  0.1313 -0.0391 -0.0584
15371W        W30502   5.916  14.134  15.792 -0.0906  0.0762  0.1672
15372W        W30503  15.524  14.869  15.402 -0.5103 -0.0969 -0.0547
15373W        W30504  10.062  15.875  14.097 -0.3908 -0.2863  0.3254
15374W        W30505  10.538   9.579  15.600  0.1542  0.2523  0.2322
15375W        W30506   2.186   6.224  14.284  0.0545 -0.3118 -0.1201
15376W        W30507   0.353  14.354  12.961 -0.0596 -0.2522  0.0125
15377W        W30508  16.845   3.112  13.444  0.1329  0.0855  0.0559
15378W        W30509   8.923   9.563   2.703  0.0167  0.3415 -0.1282
15379W        W30510  10.836  11.829  13.661 -0.0019  0.3305 -0.1311
15380W        W30511   4.795  18.102  12.518  0.0878  0.4504 -0.0878
15381W        W30512   5.539   6.219   4.259  0.0823  0.1747  0.0461
15382W        W30513  16.076   9.083  13.674 -0.0073  0.1047  0.0369
15383W        W30514   2.572  10.666   2.857  0.0635  0.1534  0.1137
15384W        W30515  11.395   0.897   4.090 -0.2323 -0.0577  0.2933
15385W        W30516  10.807   3.939  14.956 -0.0631 -0.0197  0.0719
15386W        W30517  16.988  15.238  12.968 -0.0425  0.1920 -0.1415
15387W        W30518  17.516   4.001  15.213  0.0838 -0.0934 -0.0730
15388W        W30519   6.766   6.577  13.923 -0.0243  0.3781 -0.2784
15389W        W30520   7.750  17.329  13.433 -0.1995 -0.4933  0.0515
15390W        W30521   2.692   1.736  14.589  0.0036 -0.1516  0.0431
15391W        W30522  14.584  15.939  11.416 -0.1600  0.1008 -0.3815
15392W        W30523   7.664  12.887   1.137  0.1637 -0.5030  0.0631
15393W        W30524  16.594  15.902   1.049 -0.0398 -0.0013  0.1981
15394W        W30525  11.405   2.747  15.782  0.1056  0.0997 -0.0479
15395W        W30526  17.693  15.122   2.690 -0.1084 -0.2983 -0.3466
15396W        W30527  14.527   5.448  12.267  0.3929  0.1213 -0.2742
15397W        W30528  10.773  13.175  14.400 -0.0173  0.2519  0.0847
15398W        W30529  10.488   2.503   1.620  0.2872 -0.0225  0.2278
15399W        W30530   9.171   7.189   5.096 -0.1638  0.2360 -0.1602
15400W        W30531   6.493   8.472   0.656 -0.3809 -0.2474  0.3289
15401W        W30532   2.047   6.678   3.866  0.1963 -0.0244 -0.0875
15402W        W30533   5.047  11.290  11.105  0.0493  0.3059  0.1157
15403W        W30534   3.315  16.700  14.534  0.1608 -0.0857  0.3328
15404W        W30535  15.793   2.573  12.143 -0.1726 -0.0869  0.1512
15405W        W30536   2.581   5.418  10.926  0.0722  0.0716  0.3088
15406W        W30537   9.854  11.643   3.461 -0.1680  0.2673  0.0239
15407W        W30538   3.700  17.570   0.368  0.2540  0.2937 -0.0345
15408W        W30539   3.937  13.195   1.611 -0.1079 -0.0343  0.2600
15409W        W30540   5.111  11.616   2.811  0.0566  0.1535 -0.1943
15410W        W30541   6.923   9.138  11.101  0.0095  0.0164 -0.2873
15411W        W30542   2.113  13.857  13.085  0.0784 -0.1462  0.1240
15412W        W30543   2.182   9.140  15.243  0.0946 -0.0255 -0.0167
15413W        W30544  18.211  16.141   4.212 -0.0513  0.1197 -0.0135
15414W        W30545   0.750  14.610  14.411 -0.2014 -0.4387  0.2844
15415W        W30546  12.777  11.269   5.500  0.0032  0.2064  0.1927
15416W        W30547   5.890   7.032   0.945 -0.0887  0.1464  0.4206
15417W        W30548   8.349  14.312   2.643  0.2123  0.4443 -0.1449
15418W        W30549  14.010  17.095   3.837 -0.0895 -0.3152 -0.2643
15419W        W30550  14.614  17.017  11.659  0.1600  0.1406 -0.0133
15420W        W30551  13.810   6.430   5.801  0.1312  0.2301 -0.1237
15421W        W30552   7.637  15.086  15.944  0.0216  0.3345 -0.0826
15422W        W30553   9.255   8.147   3.079 -0.0182  0.0848  0.0454
15423W        W30554   3.071   0.802   1.466 -0.2004  0.5322 -0.0219
15424W        W30555   9.152  10.663  14.849  0.1969 -0.1642 -0.3173
15425W        W30556   5.074   9.990  11.867  0.1185  0.3177 -0.1295
15426W        W30557   1.245  11.218  12.779  0.2317 -0.4645 -0.4199
15427W        W30558  13.043   9.015   1.739 -0.2336 -0.1120  0.2281
15428W        W30559  16.357  15.299  15.030 -0.1594  0.0006  0.5409
15429W        W30560   1.872  11.155   5.617 -0.1864 -0.3965 -0.0729
15430W        W30561   8.483  10.289  15.595 -0.1122 -0.2357 -0.0409
15431W        W30562  17.667   4.470   6.666 -0.4691 -0.4198  0.0119
15432W        W30563   5.513   1.844   0.818  0.0642 -0.1552 -0.0390
15433W        W30564  14.815  17.229  15.499 -0.0797 -0.1131  0.0647
15434W        W30565   3.754  15.916  15.425 -0.0620 -0.4232  0.0568
15435W        W30566   4.969   0.430  13.377  0.1803  0.1464  0.2699
15436W        W30567  14.186  10.643   0.435  0.0050  0.0984 -0.1533
15437W        W30568  11.333   3.641  15.842  0.0820  0.4497 -0.0898
15438W        W30569  15.167   6.046  10.480 -0.1921 -0.3637 -0.3907
15439W        W30570   0.761   3.825  12.320 -0.0563  0.0641 -0.3126
15440W        W30571   6.298   5.458   2.443 -0.2650  0.0689  0.1046
15441W        W30572  15.271   7.651  15.437 -0.0891  0.1784  0.3629
15442W        W30573   1.253  14.872   4.585  0.2827  0.3407  0.0027
15443W        W30574   0.477   2.589  12.897 -0.0535  0.0897  0.1164
15444W        W30575  15.650   1.240  14.400 -0.0726 -0.2978 -0.0959
15445W        W30576   4.976   0.756  11.816 -0.0389 -0.2128 -0.1572
15446W        W30577   4.012   8.507   3.139  0.1179  0.0354 -0.3834
15447W        W30578   8.175   9.085   5.686  0.1521  0.0368 -0.2999
15448W        W30579  13.505   5.842  12.621 -0.0093  0.2048  0.5135
15449W        W30580   4.813   8.550  15.532 -0.1449  0.0164 -0.3007
15450W        W30581  15.585  10.237  15.611 -0.1284  0.2057  0.1476
15451W        W30582  15.903  11.787   2.773 -0.3449 -0.0930 -0.4482
15452W        W30583   8.849   4.329  15.857 -0.0367  0.1373  0.2079
15453W        W30584  14.164  12.696  15.116 -0.1716 -0.0055  0.1789
15454W        W30585  17.170  12.572   4.108 -0.3469  0.0777 -0.0266
15455W        W30586  11.142   1.199   2.066  0.0373  0.0006 -0.0777
15456W        W30587  16.711   7.645  15.784 -0.1014  0.4392 -0.1835
15457W        W30588   5.526   9.563  11.154 -0.3027 -0.0686 -0.1316
15458W        W30589   8.235   2.323  15.429  0.0096 -0.2856  0.0314
15459W        W30590   5.180  16.653   3.253 -0.3251  0.0718 -0.1266
15460W        W30591  16.515  15.864  11.525 -0.2944 -0.1960  0.1381
15461W        W30592   1.495   9.998   5.983  0.0310  0.0954 -0.1938
15462W        W30593   7.396  14.897  13.365  0.2211  0.2386  0.1648
15463W        W30594   0.608  10.417  13.556  0.0663 -0.1577 -0.4321
15464W        W30595   0.272   9.274   3.030  0.2275 -0.1517 -0.2689
15465W        W30596   8.293   8.725   5.248 -0.1398 -0.0479 -0.4858
15466W        W30597   2.557  13.712  14.681  0.1827 -0.2201  0.1132
15467W        W30598   2.132   3.578  12.296  0.2717 -0.1375  0.1424
15468W        W30599  15.120  10.385  12.561 -0.1568 -0.2419 -0.1653
15469W        W30600   6.548   2.512   1.340  0.1785  0.2268  0.0175
15470W        W30601  15.740  10.140   2.567 -0.1170  0.1113 -0.2815
15471W        W30602  16.072   0.129   3.153  0.1551  0.1078 -0.0918
15472W        W30603   4.504  18.146   0.099 -0.1553  0.1624 -0.0664
15473W        W30604  16.168  11.397  15.784 -0.1573  0.0133  0.4886
15474W        W30605   4.808  15.590   1.478  0.1033 -0.0362  0.0794
15475W        W30606  18.249  15.843  12.006 -0.0843 -0.0803  0.0759
15476W        W30607   6.703   4.127   3.445  0.0187  0.2273 -0.0849
15477W        W30608  10.650  15.801  13.233  0.0774  0.1382 -0.2646
15478W        W30609   2.785   1.429   1.513  0.0308 -0.1471 -0.0493
15479W        W30610   2.073  11.395  15.042  0.0441 -0.1024  0.0637
15480W        W30611   1.266  17.090  12.521  0.0392  0.0342 -0.0929
15481W        W30612   4.444   3.595  12.702  0.1015  0.0061  0.0023
15482W        W30613   4.845   7.972  15.603  0.1604  0.3070 -0.1055
15483W        W30614  17.346   1.903  14.602  0.1432  0.1521  0.1054
15484W        W30615  10.518   4.170   5.355  0.0575  0.0427 -0.2518
15485W        W30616  10.367   9.463   2.158  0.1840  0.2722  0.0764
15486W        W30617   2.119   7.006   2.341  0.2717  0.2817  0.4293
15487W        W30618   3.679  17.315   0.850  0.0512 -0.0161 -0.1110
15488W        W30619   7.303  10.173  11.138  0.1875  0.0738 -0.1119
15489W        W30620  10.543  16.249   0.198 -0.0786 -0.1439  0.2836
15490W        W30621  10.309   0.979  11.174 -0.2540  0.0049 -0.1002
15491W        W30622   7.669  12.122   0.661  0.1554  0.1855  0.0268
15492W        W30623   7.866  10.528   4.397  0.0269  0.0466 -0.0193
15493W        W30624  12.148   5.469  12.847  0.1463 -0.0482 -0.1779
15494W        W30625  10.748   4.795   1.924 -0.2083  0.0507  0.0038
15495W        W30626  12.432   2.673  11.548 -0.4505  0.1865 -0.1928
15496W        W30627  13.933  15.802  11.133 -0.0929 -0.3397 -0.0232
15497W        W30628   0.972   3.167  14.592 -0.1841 -0.1469  0.0157
15498W        W30629  14.184  12.123   2.649  0.2172  0.2762  0.0804
15499W        W30630  11.056  16.072   3.757 -0.2576 -0.0322 -0.1969
15500W        W30631   0.690  16.664  14.477  0.2329 -0.2394  0.1200
15501W        W30632   4.378   2.294   0.244 -0.0051 -0.2200 -0.0838
15502W        W30633   0.169  18.437   4.691  0.1829 -0.0045 -0.0836
15503W        W30634   3.867  13.622  10.954 -0.0243 -0.1964 -0.3332
15504W        W30635   5.252   8.419   6.104  0.1214 -0.0053 -0.2249
15505W        W30636  13.530   3.799   1.342 -0.1211 -0.1365 -0.0177
15506W        W30637   0.791   0.443  15.833 -0.0094 -0.0866 -0.0535
15507W        W30638  10.954  15.172   2.779 -0.2693  0.0768  0.0777
15508W        W30639   9.717  14.634   5.545 -0.5485  0.4575 -0.2585
15509W        W30640  11.974   3.435   2.274  0.2266  0.2896  0.0544
15510W        W30641  17.828   1.693   5.695  0.0530  0.1647 -0.1301
15511W        W30642   4.856  13.493  14.325  0.0521  0.3166 -0.0724
15512W        W30643   7.228   8.618  15.428  0.1727  0.0173  0.1624
15513W        W30644   7.766   6.079  14.146 -0.1864 -0.1579 -0.4382
15514W        W30645   3.738  13.653  11.941 -0.2306  0.0701 -0.2418
15515W        W30646  10.597   1.730   5.563 -0.0832  0.1311 -0.2688
15516W        W30647  10.295   3.375   1.713  0.1636  0.0643  0.1951
15517W        W30648  15.658   9.557  12.372  0.0387  0.1567 -0.0852
15518W        W30649   8.703  16.463   0.886 -0.2374 -0.1163  0.0880
15519W        W30650  15.134   3.983   5.102 -0.0750 -0.2185  0.1400
15520W        W30651   8.549  15.619   1.137 -0.3026 -0.2446 -0.0711
15521W        W30652   2.350   1.456  12.171 -0.0405 -0.3595  0.0039
15522W        W30653   1.709   5.048   0.494  0.1163 -0.1637 -0.0702
15523W        W30654   9.513   3.898   0.320  0.1922  0.1916 -0.2087
15524W        W30655   7.120   4.033  12.432  0.2547  0.0523 -0.2324
15525W        W30656   7.952  17.584  14.205 -0.2044  0.1745 -0.1225
15526W        W30657  17.441   9.095   3.177  0.0544 -0.2978  0.4693
15527W        W30658   3.346  10.331  14.703  0.0839 -0.0802 -0.2413
15528W        W30659  13.689  10.018   2.465  0.0242  0.3579 -0.3068
15529W        W30660   0.332  10.110  11.665  0.1921 -0.2596 -0.2343
15530W        W30661  10.934  12.164   0.942 -0.1028  0.1569 -0.0078
15531W        W30662  14.141   1.008   2.020 -0.0858  0.3116  0.0493
15532W        W30663   7.565   8.101  12.717 -0.6309  0.2177 -0.3054
15533W        W30664   1.136  13.562   5.763 -0.0978  0.2793 -0.5168
15534W        W30665   0.999  11.105   2.583 -0.0911  0.0184  0.1554
15535W        W30666   7.189   6.666  11.370 -0.0757  0.1855  0.0688
15536W        W30667   2.917   2.491  13.418  0.0551 -0.1528  0.0891
15537W        W30668   9.694  12.328  13.530  0.1274  0.0314 -0.2285
15538W        W30669  13.046   1.487  11.760 -0.1957 -0.0992  0.2105
15539W        W30670  11.343   7.775  10.273  0.1172  0.0156  0.1597
15540W        W30671  10.254   0.103   1.255 -0.0241 -0.1874 -0.2293
15541W        W30672   1.267   1.932  14.770 -0.0264  0.1055  0.2190
15542W        W30673  15.537  17.060  11.194 -0.1142 -0.1482 -0.0178
15543W        W30674   8.525   7.775  11.352 -0.0548  0.1874 -0.1734
15544W        W30675   3.621   3.287   3.459 -0.0937 -0.1887  0.0832
15545W        W30676  16.133   8.709  14.060 -0.1196 -0.1858  0.1905
15546W        W30677  15.019   5.459   4.072  0.0802 -0.2292  0.1325
15547W        W30678   5.396   5.676   2.615  0.3400  0.3832 -0.0207
15548W        W30679   7.921   9.509   2.645 -0.0087 -0.2807 -0.2618
15549W        W30680   5.966   8.271   0.244 -0.1899  0.0825 -0.0670
15550W        W30681  13.323   8.053  11.811  0.0885 -0.0642  0.2034
15551W        W30682   1.701   8.151   2.851  0.1185 -0.4293 -0.3373
15552W        W30683   7.048  18.517  10.600 -0.0693 -0.3318  0.2214
15553W        W30684   3.294   7.733   4.377 -0.1415 -0.2012 -0.0773
15554W        W30685   3.473  11.043  13.523 -0.0081  0.1686 -0.1670
15555W        W30686  18.056   7.209  14.339  0.1376  0.0418 -0.0529
15556W        W30687  12.582   5.310  15.561  0.4026 -0.1800 -0.0149
15557W        W30688   7.083   4.914  15.594  0.0445  0.2600  0.1170
15558W        W30689  11.271   7.046  13.733 -0.0147 -0.1691 -0.2647
15559W        W30690   1.705  13.650   3.086  0.0353  0.2437  0.1836
15560W        W30691  14.353   8.906   3.275  0.1287  0.0429  0.2616
15561W        W30692  17.084  12.051  14.927 -0.2483  0.3753  0.3044
15562W        W30693  15.834   2.412  14.160 -0.0898  0.1489  0.1629
15563W        W30694   9.460   5.017  13.275  0.0733 -0.1542  0.1486
15564W        W30695   3.992   8.975   0.262 -0.0565  0.4005  0.3423
15565W        W30696  13.151   1.363  14.248 -0.0535  0.2046 -0.0812
15566W        W30697   2.560   1.459   4.540  0.2210  0.2215 -0.0570
15567W        W30698   4.290   2.402   3.490  0.0228  0.2835  0.1584
15568W        W30699  14.843  14.127   0.596 -0.3014 -0.3104 -0.2104
15569W        W30700   8.420   7.446   0.121 -0.2286 -0.0151  0.2306
15570W        W30701   6.734   7.662   1.980  0.3642  0.0148 -0.2620
15571W        W30702   6.538   9.816   3.818  0.1135  0.0839 -0.0535
15572W        W30703  17.628   6.450  13.368  0.1303 -0.0031 -0.0578
15573W        W30704  17.915   0.729   3.950 -0.0562 -0.1125  0.1229
15574W        W30705  12.737   8.812  15.105 -0.0562  0.0635 -0.0750
15575W        W30706   3.203   4.809   2.730 -0.1988  0.3805  0.2336
15576W        W30707  12.788  13.506   1.608 -0.1766 -0.2463 -0.1848
15577W        W30708   2.434   7.584   0.230 -0.1988 -0.3734 -0.2021
15578W        W30709   9.070   4.450  14.178 -0.0529  0.1534 -0.2421
15579W        W30710   8.047  13.841   3.803  0.1237  0.1773  0.2306
15580W        W30711   0.611  17.286   2.512  0.0571 -0.2639  0.0830
15581W        W30712   2.251   7.744  13.695  0.1254  0.2113 -0.2435
15582W        W30713   7.403   1.424   0.119 -0.2161 -0.1015 -0.2142
15583W        W30714   8.199   4.411   1.526 -0.0839 -0.0807  0.2283
15584W        W30715   3.783  10.249   3.347  0.1219 -0.0207 -0.0871
15585W        W30716  13.946   6.601   4.364  0.1453 -0.1172  0.2328
15586W        W30717  16.656  14.522   4.242  0.3416 -0.2326 -0.2620
15587W        W30718   1.361   2.732   4.087  0.2512  0.3553 -0.0492
15588W        W30719   2.387   3.167   3.818 -0.1603 -0.1031  0.1476
15589W        W30720   5.504   9.718   4.722  0.0855 -0.1822 -0.3091
15590W        W30721  14.942   0.533   0.541  0.0711  0.0084  0.1781
15591W        W30722   8.085   2.635   1.610 -0.0601  0.1750  0.0145
15592W        W30723  14.521   0.232   1.374 -0.0082  0.1108  0.0923
15593W        W30724   8.649   7.535  15.546 -0.1407 -0.2268  0.0738
15594W        W30725  16.209  16.806   0.930 -0.3755 -0.2047 -0.3154
15595W        W30726  12.303  11.376   3.439  0.0703  0.0704  0.0390
15596W        W30727   3.287   7.688   5.073 -0.1526  0.0740  0.0630
15597W        W30728  13.189  18.248  12.077  0.1532  0.3957  0.2541
15598W        W30729  13.658  11.534   2.065  0.1655 -0.0159  0.1706
15599W        W30730  12.822   5.302  14.756  0.5373 -0.2383 -0.0893
15600W        W30731   4.747  11.435  14.477 -0.3328  0.2559 -0.0350
15601W        W30732   1.962  12.282   2.158 -0.0775  0.1031  0.0638
15602W        W30733  18.466   9.756   6.093  0.0331  0.1057  0.1716
15603W        W30734  18.450  14.029   4.379 -0.3466  0.1205 -0.1804
15604W        W30735  12.608  10.269   2.646  0.3000  0.4191  0.0539
15605W        W30736   6.725   6.214   1.110 -0.2120  0.3808 -0.1023
15606W        W30737  10.485  10.701  14.390 -0.4250  0.1915  0.3302
15607W        W30738  17.404  16.151   4.794 -0.0592  0.5432  0.1954
15608W        W30739  17.170   9.919   5.679  0.0344 -0.3152  0.2755
15609W        W30740  11.999   1.773  11.416  0.0005 -0.0344 -0.0904
15610W        W30741  16.789   2.236  12.327  0.0168 -0.2713  0.2109
15611W        W30742  11.145   6.020   0.362  0.1886  0.0454 -0.2575
15612W        W30743   8.601  12.089   0.804 -0.1062 -0.1385  0.0104
15613W        W30744   6.944   0.589  12.832 -0.1625  0.2054  0.1161
15614W        W30745   4.239  15.155  13.321  0.2112  0.1848  0.1637
15615W        W30746   1.036  12.571   3.273  0.1932 -0.1737  0.0704
15616W        W30747  16.717   0.967  14.541 -0.1268 -0.1135 -0.0622
15617W        W30748   1.485   0.786   1.004 -0.1794 -0.1543  0.0691
15618W        W30749   1.218   0.403  10.970 -0.2685  0.0474 -0.0453
15619W        W30750  16.454   6.368   6.230  0.0302 -0.0957 -0.0646
15620W        W30751   4.302   2.777   2.134 -0.0001 -0.1359 -0.0854
15621W        W30752  15.694  11.612   1.344  0.0175  0.2909 -0.0329
15622W        W30753  12.561  12.347  15.109  0.0912 -0.1675  0.0469
15623W        W30754   8.499  18.430   4.304 -0.0799  0.1932  0.1611
15624W        W30755  14.073   3.173   2.629  0.2465 -0.1791  0.4419
15625W        W30756  18.177  15.304  11.011  0.0144 -0.2969 -0.1414
15626W        W30757   8.309  14.813  10.701  0.1963 -0.1156 -0.2332
15627W        W30758   5.962   3.767  14.940  0.1254 -0.3417  0.0295
15628W        W30759  18.069  13.963   5.516  0.0385  0.0460 -0.1577
15629W        W30760  11.819  16.020   2.657 -0.2972  0.0342 -0.1669
15630W        W30761   7.106   2.644  14.572  0.0404  0.1275 -0.0610
15631W        W30762   3.991   1.163  15.336 -0.1603  0.2542 -0.3595
15632W        W30763   5.323   4.142   5.037 -0.0678 -0.4043 -0.1104
15633W        W30764  14.319  13.624   0.617  0.0055 -0.0927  0.1002
15634W        W30765  17.240  11.194   3.388  0.1890  0.3706 -0.1138
15635W        W30766   0.826  14.178  14.854  0.0136  0.1819 -0.0886
15636W        W30767   1.869   9.623  14.281 -0.1784  0.2193  0.1065
15637W        W30768  17.836   4.307  15.456  0.2244 -0.0851  0.0517
15638W        W30769   1.371  15.477  10.684 -0.0837  0.1850  0.1512
15639W        W30770   7.164  12.085  14.405 -0.1088  0.1203  0.0137
15640W        W30771  11.766  17.131   1.978  0.0010 -0.1356  0.1004
15641W        W30772  16.088   1.100  11.039 -0.1341 -0.1530  0.1026
15642W        W30773   7.228  16.146  11.468 -0.2469  0.0179  0.1134
15643W        W30774   8.619  16.692   2.192 -0.0336  0.0463 -0.3169
15644W        W30775  11.143   3.250   5.216 -0.2503  0.4247 -0.0914
15645W        W30776   6.511  14.694   4.458 -0.1011 -0.1429  0.2592
15646W        W30777   6.557  14.356   4.825  0.1154  0.2008  0.1320
15647W        W30778  10.721  16.378  12.334 -0.0475 -0.3123  0.1591
15648W        W30779   1.076  15.712  12.250  0.2221 -0.2057 -0.1493
15649W        W30780  18.460  16.586   4.712  0.0853  0.0157  0.2246
15650W        W30781   3.312   0.093   2.443 -0.0029  0.3206  0.3125
15651W        W30782   1.457   2.156  10.454 -0.0694 -0.1660  0.1611
15652W        W30783  11.091  18.350  13.816  0.4251  0.1024 -0.0111
15653W        W30784  14.874   6.678   4.131  0.0407  0.3118 -0.1569
15654W        W30785  11.002   7.424  13.984 -0.0160  0.1825 -0.3037
15655W        W30786  14.597   0.763   3.249 -0.2379 -0.3343  0.2267
15656W        W30787  15.641   9.553   4.369  0.0648  0.1308 -0.1521
15657W        W30788   3.706   1.082  12.478 -0.0945 -0.1603 -0.0802
15658W        W30789  18.250   7.556  12.574 -0.1800  0.0364  0.2120
15659W        W30790   2.546  12.156  12.510 -0.2150 -0.2287 -0.1251
15660W        W30791  14.392  17.631  12.760 -0.1049  0.3619  0.1327
15661W        W30792   3.324  13.389  14.706 -0.2914  0.0735  0.0355
15662W        W30793  13.643  14.923   2.701  0.0657  0.1795 -0.2693
15663W        W30794   6.354  13.692  12.544  0.1504  0.0717 -0.0829
15664W        W30795   2.832   3.417   0.256 -0.0456 -0.2735 -0.0427
15665W        W30796  17.622   2.848   4.962 -0.0246 -0.2520 -0.0772
15666W        W30797  17.504   6.339   5.769  0.3827 -0.3192 -0.1114
15667W        W30798   7.298  12.704   2.081 -0.1498  0.2215 -0.0875
15668W        W30799  17.772  17.336   4.376 -0.0125 -0.1995 -0.0141
15669W        W30800  10.359   3.035  11.773  0.1145  0.2004  0.0140
15670W        W30801   2.599   0.772   1.655  0.1084  0.1114 -0.0938
15671W        W30802   9.851   5.971  14.661 -0.0328 -0.2606 -0.1457
15672W        W30803  10.677  16.411  10.816 -0.1005 -0.0524 -0.1103
15673W        W30804  15.595  13.643  11.396  0.2393 -0.2214  0.1522
15674W        W30805   7.879   5.366  13.803 -0.1552 -0.3196  0.1800
15675W        W30806  13.035   0.339   1.479 -0.0809 -0.1298  0.0217
15676W        W30807   0.466  12.406   4.058  0.1921  0.1026  0.2419
15677W        W30808  12.536   9.819  14.000 -0.0521  0.2547  0.0750
15678W        W30809  18.182   7.370  10.961 -0.0496 -0.0517 -0.0212
15679W        W30810   9.858  12.905  15.911 -0.1764 -0.1887 -0.0709
15680W        W30811   5.943   9.169   4.403 -0.1594  0.2169  0.1227
15681W        W30812   6.804   7.745  12.194  0.0922  0.2398 -0.0029
15682W        W30813   5.596  13.833   1.197  0.2654 -0.0477 -0.0007
15683W        W30814  15.158   5.351  15.094  0.3403 -0.2554 -0.4662
15684W        W30815  11.890   5.443   5.661 -0.1335  0.2658 -0.2187
15685W        W30816  14.561   9.017   2.788 -0.0328 -0.0354 -0.0388
15686W        W30817   2.960   1.872   4.453  0.3018 -0.0919 -0.0137
15687W        W30818  14.468   6.575   5.757  0.4487 -0.2366 -0.3696
15688W        W30819  16.412  16.679  11.645 -0.0763  0.1975  0.4471
15689W        W30820  12.396  12.236   0.716 -0.0442 -0.0825  0.0504
15690W        W30821   2.481  10.046  13.107  0.1055  0.0501 -0.0291
15691W        W30822  17.084   8.734   5.107  0.0099  0.0446 -0.2081
15692W        W30823   6.682  16.048  13.719  0.1963  0.1435  0.2845
15693W        W30824   7.357   7.653  12.113 -0.3385  0.2265 -0.1461
15694W        W30825  16.237  14.303  12.526 -0.0834 -0.0847  0.0074
15695W        W30826   0.557   3.113   1.819  0.0034  0.2286  0.1257
15696W        W30827   2.348   9.091   1.615  0.1020 -0.3810  0.0481
15697W        W30828  15.095  10.345   1.977  0.1225 -0.1948 -0.0831
15698W        W30829  14.686  10.488  12.347 -0.2881  0.2127 -0.1992
15699W        W30830   0.171   2.531  12.484 -0.2197 -0.0025 -0.1217
15700W        W30831   3.887  15.327  11.357  0.0363 -0.1042  0.0996
15701W        W30832  16.166  14.259  15.793 -0.3835  0.1565  0.1391
15702W        W30833   7.590  18.364   3.037  0.0763 -0.0712 -0.1027
15703W        W30834   3.470   1.509  14.517  0.0603 -0.2041 -0.0498
15704W        W30835  18.498  11.606  12.819  0.2800  0.3120 -0.1943
15705W        W30836  10.380   8.649   0.914  0.1365  0.3811  0.1972
15706W        W30837  11.568  17.565   1.522 -0.1309 -0.2934  0.2054
15707W        W30838   1.194   1.043  15.067  0.0355 -0.0079  0.0831
15708W        W30839   2.642   0.600  14.810 -0.0428 -0.2755 -0.3238
15709W        W30840  13.401  12.993   2.896  0.0125  0.1642 -0.0548
15710W        W30841   1.723   4.944  10.237 -0.0428  0.3008 -0.1158
15711W        W30842  12.830  15.713  14.746 -0.1831  0.0873 -0.1704
15712W        W30843   2.180  16.710   1.171 -0.2450 -0.0027  0.0958
15713W        W30844  15.003   5.895  13.868  0.1729 -0.0754 -0.3977
15714W        W30845   3.628   4.503   3.901 -0.0148 -0.2374  0.0081
15715W        W30846  10.961   7.785   0.921  0.0810 -0.2538  0.1186
15716W        W30847  14.836  13.177  13.354  0.0975 -0.1571 -0.0417
15717W        W30848   7.055  11.988   1.022  0.1467 -0.1736  0.0214
15718W        W30849  16.543  11.693   4.443  0.0707 -0.2342 -0.0844
15719W        W30850   9.283   7.046   5.651  0.0334 -0.0110 -0.2077
15720W        W30851   6.597  11.457  13.051  0.1343 -0.0690 -0.0295
15721W        W30852  17.733  12.734  15.471  0.1643 -0.2415  0.0465
15722W        W30853   3.058  18.205  12.197 -0.1606  0.2565  0.0558
15723W        W30854  15.691   3.420   0.959 -0.1861  0.1237  0.2435
15724W        W30855  10.544   1.287   1.130 -0.1133  0.0891 -0.0584
15725W        W30856   2.487   3.841  10.546 -0.0772 -0.4439  0.0225
15726W        W30857   7.002  14.912  12.562 -0.1493  0.2323  0.3104
15727W        W30858  10.255   7.471  15.246 -0.1516 -0.1102  0.3567
15728W        W30859  13.366   4.653   3.561  0.3290  0.0630  0.0603
15729W        W30860  12.922   4.292   3.519 -0.1209 -0.2657  0.2946
15730W        W30861  11.549  12.130   4.062  0.3812 -0.1222  0.3532
15731W        W30862  12.470   3.892   0.205 -0.2749 -0.2040  0.1981
15732W        W30863   0.551  13.522  12.126 -0.1318  0.1025 -0.2913
15733W        W30864   5.795  10.848  13.844  0.0230  0.0145 -0.0632
15734W        W30865   9.154   6.530   3.822 -0.1477  0.0513 -0.1953
15735W        W30866   8.822   5.973  11.337 -0.0819 -0.2022  0.2956
15736W        W30867   5.004   4.128  10.835  0.0301 -0.1500  0.0502
15737W        W30868  18.071  13.340  13.630  0.1343 -0.0290 -0.2192
15738W        W30869   0.319   3.924  12.538  0.2130 -0.1514 -0.1651
15739W        W30870   8.533   3.892   2.298 -0.2358  0.0171  0.0318
15740W        W30871  12.529  15.999   4.858  0.2670  0.1222 -0.2058
15741W        W30872  16.439  16.826   1.437 -0.2382  0.1450 -0.2655
15742W        W30873  12.114   8.494  13.605 -0.1659 -0.3541  0.1712
15743W        W30874  12.690   8.834   1.087 -0.2670  0.2086 -0.1726
15744W        W30875   4.390  10.309  11.919  0.3586  0.0260 -0.0420
15745W        W30876   8.541  14.277   0.143  0.1583 -0.2467 -0.2643
15746W        W30877   3.622   3.603   4.569 -0.1611  0.1439 -0.3581
15747W        W30878  13.455   4.628  13.384 -0.4032 -0.0574 -0.1859
15748W        W30879  12.113  11.308   0.123 -0.0983  0.0534 -0.0838
15749W        W30880   3.640  12.434  10.397  0.1079 -0.0888 -0.1217
15750W        W30881   9.235  11.865  11.344  0.0267 -0.0320 -0.0353
15751W        W30882   9.224  11.067  12.519 -0.2713  0.2811 -0.2633
15752W        W30883   5.311   3.063   3.724 -0.0367  0.0242  0.2232
15753W        W30884   2.194  17.834  15.459 -0.0038  0.2122 -0.0220
15754W        W30885   1.572   7.419  15.464 -0.0123 -0.4619 -0.0380
15755W        W30886   0.769  10.194   3.538  0.1070  0.0968 -0.4428
15756W        W30887  18.507  16.578   2.293  0.1506  0.0140 -0.0531
15757W        W30888  14.221   9.024  14.962 -0.1407  0.1180  0.0605
15758W        W30889   4.520   0.626  13.484 -0.0856  0.3722  0.3254
15759W        W30890   9.752   4.557  12.427 -0.4403  0.0962 -0.0367
15760W        W30891   7.596   2.300   1.007 -0.2708 -0.1045  0.1492
15761W        W30892  15.337  17.446   4.512 -0.0340  0.1415  0.2911
15762W        W30893  11.014   6.853   0.057  0.1873  0.2952 -0.2454
15763W        W30894  17.377   0.843  14.420 -0.2554 -0.0933  0.1011
15764W        W30895  13.584  14.263  14.094 -0.0214 -0.0409 -0.2582
15765W        W30896  11.177   7.668   3.101 -0.1223  0.1867 -0.0856
15766W        W30897   9.101   9.315   3.492  0.0304 -0.0293 -0.0852
15767W        W30898   5.611   0.247   5.623  0.1002  0.0410 -0.1396
15768W        W30899   2.774   4.194   1.777 -0.5510 -0.0707  0.1288
15769W        W30900  11.791   9.348   0.876  0.0305 -0.1373 -0.1233
15770W        W30901  14.811   0.553   1.628  0.1409  0.1207 -0.1520
15771W        W30902   7.430  18.031  15.398  0.3179 -0.1368 -0.0378
15772W        W30903  17.579   5.749  15.220 -0.1410  0.0732  0.0887
15773W        W30904   1.135   9.840  12.642 -0.0359  0.1459 -0.1706
15774W        W30905  18.166   8.463   1.216 -0.0083  0.1137 -0.0812
15775W        W30906  15.203  11.828  11.086 -0.0349 -0.0217 -0.1424
15776W        W30907  11.859   1.612  10.913 -0.2472  0.3459  0.2062
15777W        W30908  15.724  10.773   5.312  0.0726  0.0478 -0.1026
15778W        W30909   9.188   8.840   3.638  0.0262 -0.1818  0.3693
15779W        W30910   8.505  16.512   4.658 -0.0920 -0.2353  0.2641
15780W        W30911  16.302  11.015  14.403 -0.1458 -0.3017 -0.1564
15781W        W30912  11.528  16.350  10.432 -0.0398 -0.2537  0.0002
15782W        W30913   4.399   7.603  12.369 -0.3479 -0.0657 -0.2177
15783W        W30914  10.641   8.469   5.454 -0.0102 -0.0140  0.2462
15784W        W30915   0.741  18.547  13.606  0.0198  0.1428 -0.1656
15785W        W30916  10.790  15.618  15.664  0.0892  0.3692  0.0464
15786W        W30917  11.316  16.885   0.658 -0.0972 -0.0360  0.0030
15787W        W30918  10.648   8.044   2.156 -0.0567 -0.0410  0.1727
15788W        W30919   9.597   3.593   3.605 -0.3673  0.1785 -0.1494
15789W        W30920   1.493  14.373   4.345  0.2792 -0.3934  0.1159
15790W        W30921  12.098   4.654   3.273 -0.3103 -0.3588  0.2045
15791W        W30922   8.712  18.167  13.007 -0.0372 -0.0365  0.1089
15792W        W30923  15.137   1.263  15.869  0.2124  0.0323  0.0179
15793W        W30924   3.760  10.591  14.402  0.2225  0.2864 -0.1650
15794W        W30925  12.996  15.365   3.825 -0.3764 -0.0387 -0.0011
15795W        W30926   3.561  12.098   4.351  0.0065 -0.2651 -0.0737
15796W        W30927   6.750  13.777  11.878  0.1366  0.1493 -0.2978
15797W        W30928  13.409   1.939   0.608  0.0157 -0.1664  0.2225
15798W        W30929   8.703  17.952  12.579  0.0220 -0.1373  0.0464
15799W        W30930   5.555   6.097   1.154  0.4260 -0.1599  0.0138
15800W        W30931   3.967   0.965  11.591  0.1399  0.4481  0.2464
15801W        W30932   4.050  14.883  15.710 -0.0392 -0.1809 -0.1229
15802W        W30933   0.366  16.363   2.456 -0.0701  0.1773 -0.0435
15803W        W30934   3.562   7.580   2.910  0.1988  0.1490  0.2392
15804W        W30935   2.643  12.589  13.361 -0.1937  0.1269 -0.2717
15805W        W30936  11.371   5.660  12.319 -0.2106 -0.0421 -0.2560
15806W        W30937   1.941   3.345   0.597 -0.2291 -0.1099 -0.3652
15807W        W30938   4.935  12.739   0.692  0.2415 -0.0881  0.2113
15808W        W30939   2.543  11.742  14.984 -0.4680  0.0506  0.2788
15809W        W30940   9.475   1.270  12.087 -0.1241 -0.0434  0.2411
15810W        W30941  12.202  17.762  11.384 -0.1495  0.0277 -0.0506
15811W        W30942  10.519  14.641  14.555  0.1786 -0.2729 -0.0477
15812W        W30943   7.122   5.173   3.935 -0.2260 -0.3069  0.0774
15813W        W30944   5.763  16.044   3.237  0.1063  0.0171 -0.2330
15814W        W30945  15.070  13.181  15.943  0.2235 -0.0088 -0.2373
15815W        W30946  18.089  10.719   1.278  0.1121  0.0181 -0.1853
15816W        W30947  12.557   8.108   3.300  0.3488  0.0243 -0.2559
15817W        W30948  10.550   4.488   3.934  0.1440 -0.2556 -0.0377
15818W        W30949   9.531   3.701  12.754  0.2374  0.0021  0.0433
15819W        W30950  17.746   6.406   0.241 -0.1762 -0.0251 -0.1007
15820W        W30951  12.675   2.950   3.672  0.1252  0.0822  0.0765
15821W        W30952   2.144  17.948  13.651 -0.0536 -0.0014 -0.0977
15822W        W30953  16.607   5.584  14.887 -0.0963 -0.2972  0.0727
15823W        W30954   6.537  12.612  13.750  0.0302  0.0497  0.2988
15824W        W30955  14.447   5.324   4.846  0.1342  0.0737 -0.1225
15825W        W30956   0.033   8.448   2.580 -0.0450  0.1492  0.2584
15826W        W30957  11.833   2.321  13.478 -0.0853 -0.1309 -0.0983
15827W        W30958  17.980   2.719  14.727 -0.3820  0.3128 -0.0260
15828W        W30959   2.861   3.325   5.867 -0.0391  0.0599  0.0675
15829W        W30960   1.287  12.315  14.603 -0.1050  0.1080 -0.0017
15830W        W30961   0.490   3.185  11.300  0.1050  0.4003  0.2388
15831W        W30962   1.063  16.767  10.620 -0.0210 -0.1264  0.0989
15832W        W30963   1.500  13.160  11.929 -0.3951 -0.1904 -0.1763
15833W        W30964  16.707   7.163   1.393 -0.0379  0.1460 -0.0573
15834W        W30965  17.333  17.448  12.969  0.1022 -0.0149 -0.0185
15835W        W30966   2.883   9.329  11.090  0.1165 -0.2563 -0.0247
15836W        W30967  15.849   3.378   2.066  0.1326 -0.0970  0.2259
15837W        W30968  15.856  11.403   3.639 -0.0863  0.0282  0.1258
15838W        W30969   6.871  13.903  14.523  0.0545  0.1074 -0.3193
15839W        W30970  15.985   2.144  12.904  0.1570 -0.0839 -0.1494
15840W        W30971  13.830  12.631   3.445  0.0643  0.1600  0.2274
15841W        W30972   7.369   5.523  12.690  0.0927 -0.1027 -0.1535
15842W        W30973   2.154  17.595  13.153 -0.2256  0.0010 -0.2438
15843W        W30974  16.203   4.258   5.141  0.1345 -0.0171 -0.2517
15844W        W30975  12.243  18.337   1.734  0.0484 -0.4302 -0.4226
15845W        W30976   8.204  11.669  11.124 -0.2122 -0.1214  0.1245
15846W        W30977  18.554   9.859  11.455 -0.0874 -0.1357 -0.0232
15847W        W30978   4.636   8.994  15.353 -0.0153  0.0403  0.3368
15848W        W30979  17.275   3.517   0.780 -0.0905 -0.1587  0.2369
15849W        W30980  12.931  17.770  12.082 -0.4604 -0.1080 -0.0316
15850W        W30981   7.516  15.740  11.491 -0.4311 -0.0677  0.0088
15851W        W30982  17.798  16.900  15.910 -0.2643  0.4430 -0.0561
15852W        W30983  12.440   2.179  14.466 -0.0486  0.1581 -0.0629
15853W        W30984  12.652  17.441  14.914 -0.1107 -0.1871 -0.1713
15854W        W30985   9.320  15.730   3.514 -0.0384 -0.0290 -0.1983
15855W        W30986   1.318  17.975  14.054  0.0365  0.0707 -0.1782
15856W        W30987   3.358   7.310   4.654 -0.1795 -0.2192 -0.3558
15857W        W30988  10.449   6.838  13.899  0.2509 -0.0260 -0.1779
15858W        W30989   9.997   1.403   1.159  0.1284  0.2028 -0.0452
15859W        W30990   2.105   7.291  15.276  0.1960 -0.4943 -0.3519
15860W        W30991   3.328  13.524   5.176 -0.1136 -0.1953 -0.3756
15861W        W30992   0.641  15.557   4.541 -0.0671  0.1370 -0.0958
15862W        W30993  18.050   3.985  11.306  0.0450 -0.3294 -0.0493
15863W        W30994  14.611  18.337  12.557  0.0850  0.0306 -0.3007
15864W        W30995  15.226  11.843  12.104 -0.4212 -0.1762  0.0824
15865W        W30996   7.799  17.641   1.777 -0.0803 -0.0590  0.2228
15866W        W30997   8.862   7.220  13.722 -0.0860 -0.0953  0.0966
15867W        W30998  12.660   5.281   5.031 -0.0348  0.3944  0.3791
15868W        W30999   5.874   5.388   4.074  0.3023  0.0652 -0.1327
15869W        W31000   9.989  14.755  12.510  0.2502 -0.5110 -0.0476
15870W        W31001   0.111  13.849  14.234  0.0792  0.0782 -0.0548
15871W        W31002  12.145   1.780   5.302 -0.5056  0.2360  0.2605
15872W        W31003  17.699   6.491   2.096 -0.0267  0.0793 -0.0734
15873W        W31004   1.426   9.645  11.750  0.0528  0.1951 -0.2473
15874W        W31005   2.372  10.468  11.430 -0.1789 -0.1117  0.0346
15875W        W31006   0.297   6.035   1.695 -0.1277 -0.2544  0.2760
15876W        W31007  14.123  17.918  12.079 -0.2133 -0.0339 -0.3596
15877W        W31008   5.965  15.743   0.286  0.2095 -0.4940  0.0866
15878W        W31009  15.517  18.228   1.251  0.3219 -0.1191 -0.4169
15879W        W31010   1.938   8.867  11.371 -0.0674  0.0031  0.0794
15880W        W31011   1.553   1.110  12.624 -0.3351 -0.0693 -0.1017
15881W        W31012   3.695  15.239  14.792 -0.0533  0.0068 -0.1458
15882W        W31013  14.904  17.623   3.951 -0.0579  0.1647 -0.1216
15883W        W31014  15.445  17.007  14.091 -0.3152 -0.1604  0.2438
15884W        W31015  13.538   4.243  11.337 -0.1396 -0.0830  0.1300
15885W        W31016  10.869   1.856   3.157  0.0108  0.0255 -0.0721
15886W        W31017   0.059   4.427  13.556  0.0719 -0.2272 -0.0484
15887W        W31018  15.297  10.704   5.046 -0.0982 -0.1225  0.0790
15888W        W31019  12.923  18.014   0.836 -0.0135  0.0247  0.1316
15889W        W31020   1.324  14.653   0.575 -0.2370  0.1945 -0.1696
15890W        W31021   6.149   1.090  13.252  0.1641  0.4238  0.2341
15891W        W31022   1.679  12.757   2.002 -0.0191  0.0812 -0.1431
15892W        W31023   4.724   3.856  15.149 -0.3298  0.0483 -0.1211
15893W        W31024  17.989   6.654   6.324  0.0472  0.0653 -0.0584
15894W        W31025  16.635   9.730   3.191  0.1771 -0.0529  0.3490
15895W        W31026   6.871   9.033   4.838 -0.2438  0.2363 -0.0097
15896W        W31027  17.521   7.583  15.032  0.1506 -0.1590  0.1375
15897W        W31028   8.310  11.049  13.582 -0.2311 -0.2606  0.1028
15898W        W31029  13.649  16.892   4.056  0.4191  0.0761  0.3824
15899W        W31030  17.755  13.166   1.706  0.2755 -0.0437 -0.2062
15900W        W31031  18.179  13.309   2.411 -0.0882 -0.1949 -0.2183
15901W        W31032  10.849  12.009   9.724  0.2907 -0.0513  0.2475
15902W        W31033   7.527  13.109   1.736 -0.4562 -0.2120 -0.1457
15903W        W31034   1.249   3.807   0.595 -0.0128 -0.4022 -0.2475
15904W        W31035   7.874  16.467  10.173 -0.2029 -0.0316 -0.3119
15905W        W31036  13.694  15.202   1.673  0.0663  0.2930 -0.4219
15906W        W31037   8.261  12.125  15.328  0.1548 -0.0365 -0.2391
15907W        W31038   3.885  16.444  13.226  0.2835 -0.0085  0.1664
15908W        W31039  17.929  11.418  10.948 -0.2092  0.0319  0.0539
15909W        W31040   5.676  17.707   0.872  0.0691 -0.0822 -0.0805
15910W        W31041   3.279   3.152   5.182  0.1111 -0.0409 -0.0115
15911W        W31042  17.111   0.357   3.686 -0.0156 -0.1495  0.3782
15912W        W31043  15.455  18.119  13.929  0.1276 -0.1715  0.1135
15913W        W31044  17.601  17.286   0.977 -0.2527 -0.0695  0.1531
15914W        W31045   8.981  13.379  15.492 -0.3672 -0.1452 -0.0541
15915W        W31046   0.757   5.468  15.323  0.3926  0.0888 -0.3869
15916W        W31047   7.866  12.697  13.571 -0.1209 -0.3310  0.2178
15917W        W31048  16.692  15.078  10.919 -0.0011 -0.0464  0.2946
15918W        W31049  14.473  14.001   0.269  0.0239  0.2183  0.1787
15919W        W31050   7.845   4.227  12.883  0.3737  0.1187  0.2528
15920W        W31051   4.699  11.923   2.881 -0.0409 -0.3601  0.1870
15921W        W31052   9.485   1.739  11.849  0.0439 -0.5465  0.0868
15922W        W31053   5.829   4.950  14.285  0.0886 -0.1162 -0.0463
15923W        W31054   8.285  14.866  13.647  0.1479  0.0216 -0.1441
15924W        W31055  16.729   8.771   4.685  0.1129 -0.1872 -0.4669
15925W        W31056   3.432   3.067   2.612  0.2008  0.0831  0.0250
15926W        W31057   8.701  16.451   3.678 -0.3701  0.1966  0.3340
15927W        W31058  17.548   9.473  11.877 -0.1644 -0.2316 -0.0489
15928W        W31059   0.819   4.078  10.839 -0.0830  0.1579 -0.2244
15929W        W31060   3.307  15.192   2.349  0.0853  0.0352 -0.4008
15930W        W31061   3.225  15.929  15.324  0.1533 -0.1651  0.1337
15931W        W31062   3.286   8.965  13.200 -0.1306 -0.1670 -0.2237
15932W        W31063   4.239  13.967   5.875 -0.2528  0.1120  0.3707
15933W        W31064  14.793  10.750  11.934 -0.1029 -0.1437 -0.1348
15934W        W31065  17.176  13.896   1.825 -0.0148 -0.1888  0.1409
15935W        W31066  14.788  11.867  10.793 -0.2181  0.2409 -0.4636
15936W        W31067  12.385  11.415  11.988  0.1371  0.0876 -0.4144
15937W        W31068  13.952  13.898  12.571 -0.1696 -0.1477 -0.1571
15938W        W31069   5.218   5.598   0.879  0.3124 -0.2555 -0.3467
15939W        W31070   3.517   8.999  12.717  0.0828  0.2034  0.1315
15940W        W31071   3.495  13.666   0.351 -0.1836  0.0818 -0.1104
15941W        W31072   6.983   7.013   2.676 -0.1661  0.0061  0.0375
15942W        W31073   8.274   1.381  11.936 -0.0168 -0.0923 -0.1004
15943W        W31074  13.313   6.043   1.394 -0.2416  0.0352 -0.3969
15944W        W31075  12.979   8.605   4.883 -0.2114 -0.0633 -0.1302
15945W        W31076  10.303  15.092   3.374  0.1110 -0.4563 -0.1367
15946W        W31077   2.820  16.612  14.715  0.1398 -0.3283 -0.3913
15947W        W31078  10.648   2.087   3.715 -0.0406  0.1065 -0.0601
15948W        W31079  16.993   0.187   4.786  0.0365 -0.0102 -0.0701
15949W        W31080   3.275   6.160   4.504 -0.1431 -0.0734  0.1942
15950W        W31081   4.560   8.782   0.343 -0.3295 -0.3034 -0.1930
15951W        W31082  10.753   7.311  12.199 -0.1527  0.0579 -0.2950
15952W        W31083  16.507  17.269   2.349  0.3149  0.0226 -0.2050
15953W        W31084  10.272  10.245   2.337 -0.0825 -0.0043 -0.3016
15954W        W31085   6.185  15.072   0.688 -0.2024  0.0694  0.1506
15955W        W31086   7.830   3.340   3.847 -0.0584  0.0225  0.1988
15956W        W31087   9.073   1.969  14.494  0.2645  0.0318  0.1042
15957W        W31088   1.651   0.298  13.385  0.1012  0.0219 -0.0244
15958W        W31089   3.286   6.883   1.299 -0.0154 -0.1602  0.1691
15959W        W31090  12.068  13.873   2.249 -0.1609 -0.0169 -0.0350
15960W        W31091  15.525   3.993   5.425 -0.0735 -0.2120  0.2392
15961W        W31092  13.556   0.958  12.978 -0.1165 -0.0932  0.2025
15962W        W31093  12.703  11.724  11.708  0.0811 -0.0428 -0.0431
15963W        W31094   7.563   7.274   1.800 -0.1490 -0.1912 -0.1110
15964W        W31095  15.489  10.773  15.698 -0.1417  0.0696 -0.0386
15965W        W31096  14.746  14.208  14.955 -0.0493  0.2185 -0.4814
15966W        W31097   2.046  15.495   1.269 -0.3121 -0.0363 -0.0815
15967W        W31098  11.980  17.040  13.641 -0.1315  0.2054  0.4870
15968W        W31099  13.095  16.748   2.505 -0.1603  0.1037  0.0259
15969W        W31100  11.102  17.977  11.732 -0.0733  0.0157  0.0371
15970W        W31101   5.382  10.155   5.074 -0.1789 -0.1180 -0.2492
15971W        W31102   6.591   8.215  13.711 -0.0477  0.0903 -0.1434
15972W        W31103   2.699   6.247   3.325 -0.0544 -0.2059 -0.0243
15973W        W31104  16.691   3.183  12.375  0.4990 -0.1206  0.2328
15974W        W31105  13.216   7.075   4.710  0.3785  0.1543 -0.0589
15975W        W31106  14.468   5.666  11.090 -0.0082 -0.4727  0.0249
15976W        W31107  15.162  10.013   0.331 -0.0918 -0.0637 -0.1722
15977W        W31108   0.167  14.616  12.573 -0.1300  0.0401  0.0874
15978W        W31109   2.310  16.480  11.591 -0.2552  0.2951  0.0291
15979W        W31110   5.689   0.210  15.755 -0.0232 -0.1360 -0.1484
15980W        W31111  13.851   6.048   1.554  0.1372 -0.0807 -0.2107
15981W        W31112   5.265   1.816   1.327  0.1988  0.0964 -0.0412
15982W        W31113  14.614   7.487   1.342 -0.0379  0.2653 -0.1514
15983W        W31114  16.439   9.284  11.582  0.0735  0.1388  0.0091
15984W        W31115  14.900  14.181  11.463 -0.0474  0.1459  0.3989
15985W        W31116   8.376  11.197  11.965  0.3319 -0.2192  0.1811
15986W        W31117  11.802  10.286   0.552 -0.0195  0.0065  0.0744
15987W        W31118   6.822  13.448  14.359  0.0329 -0.2014  0.2440
15988W        W31119  18.177  16.902  15.422  0.1750  0.2351 -0.0264
15989W        W31120   8.017   3.878   5.709 -0.1483  0.2592 -0.0202
15990W        W31121  18.343   0.629   1.085  0.2837  0.1807 -0.3414
15991W        W31122  17.565  18.232  12.401  0.3792  0.1500 -0.0048
15992W        W31123  14.913   3.162   6.287 -0.0035 -0.1569 -0.0277
15993W        W31124   5.984  14.856   4.331 -0.2192 -0.0502 -0.0975
15994W        W31125   6.002  10.059   2.777 -0.1116  0.0345  0.0430
15995W        W31126   4.018   1.291   2.671  0.1299 -0.1520  0.1556
15996W        W31127   7.056  15.905   0.166  0.0972 -0.2313 -0.0353
15997W        W31128  14.495  15.349   0.349  0.1827  0.2679  0.0085
15998W        W31129   9.407  13.999  12.694 -0.0207 -0.0109 -0.1697
15999W        W31130   2.609  11.063   2.143  0.0133 -0.2422 -0.1979
16000W        W31131  12.693   9.536   5.234 -0.0727 -0.0471  0.4643
16001W        W31132   4.416  14.710   2.858 -0.2529 -0.5507 -0.1503
16002W        W31133   2.601   7.453  15.727  0.2372  0.0265  0.1938
16003W        W31134   7.605   7.010   2.332  0.4156 -0.3750 -0.2846
16004W        W31135  13.182   8.939  13.670 -0.0390 -0.1314 -0.0520
16005W        W31136   5.632   7.523   1.119 -0.2632 -0.0439 -0.0998
16006W        W31137   2.252  13.795   4.333 -0.1921 -0.0768  0.0437
16007W        W31138  11.056   1.081  14.884 -0.1304  0.1349 -0.2259
16008W        W31139   7.497   5.479   4.597  0.0134  0.0489 -0.0083
16009W        W31140  17.060  16.539  11.013 -0.0221 -0.1030 -0.0894
16010W        W31141   2.174   8.387   3.841 -0.0081  0.0066 -0.5078
16011W        W31142   8.026   0.641  13.198  0.3305  0.0867  0.0005
16012W        W31143  16.876  12.497   4.476 -0.0246  0.0064  0.0127
16013W        W31144   3.278  10.692   4.088  0.3655 -0.3093  0.2904
16014W        W31145   3.558   9.729   3.194  0.2129 -0.0997  0.5507
16015W        W31146   3.308  15.302  12.972  0.1469 -0.3622  0.3784
16016W        W31147  14.068   5.488  15.540 -0.3290 -0.2604 -0.0892
16017W        W31148   6.707  17.906   3.014  0.0463 -0.3128 -0.2288
16018W        W31149   3.957   8.015   0.011  0.0759  0.1553  0.3065
16019W        W31150  18.241   6.683   4.324 -0.1501  0.2687 -0.5573
16020W        W31151  16.750  14.451  14.460  0.0079 -0.3986  0.1157
16021W        W31152  18.301  17.515  13.036  0.1400  0.1856 -0.1930
16022W        W31153  16.205  10.714   1.722  0.2322  0.0168  0.4319
16023W        W31154  15.942   7.451   0.125 -0.0098 -0.1570  0.1328
16024W        W31155   9.233  12.735   4.524 -0.2362 -0.0514  0.0099
16025W        W31156   8.727   1.281  12.341  0.1747  0.0022 -0.3265
16026W        W31157   7.637   3.805   4.624  0.0441 -0.2608 -0.1032
16027W        W31158   3.469   8.368  13.633 -0.0483  0.0944 -0.0744
16028W        W31159  15.795  17.745  13.857  0.2419 -0.0081 -0.1044
16029W        W31160   1.304   2.701  15.539  0.0963 -0.1062  0.2133
16030W        W31161  13.748   5.461   0.720  0.1079  0.0544 -0.1460
16031W        W31162   4.963   8.645   0.623  0.2141  0.1243  0.2039
16032W        W31163  10.458  12.485   2.309  0.2299  0.0243  0.5232
16033W        W31164   8.439   2.758  12.176  0.3247 -0.1587  0.0082
16034W        W31165  18.507  14.845  15.693  0.1337  0.1175  0.2356
16035W        W31166   8.604  16.531  12.263  0.2536  0.2175 -0.4115
16036W        W31167  16.878  13.931  14.466  0.2587 -0.1121 -0.1593
16037W        W31168  14.066   2.315  15.221  0.0030  0.0301  0.2350
16038W        W31169  15.980   4.384   4.499  0.0581 -0.3086 -0.1660
16039W        W31170  13.030  13.176  15.534  0.0809 -0.0838 -0.1835
16040W        W31171  12.462   3.696   4.912 -0.4497  0.3625  0.1878
16041W        W31172   5.276  18.424  14.639  0.1388  0.1842 -0.2464
16042W        W31173   1.970   4.698  12.175  0.1135  0.0451  0.0025
16043W        W31174   4.977   6.622   0.400 -0.0783  0.0037  0.1303
16044W        W31175   6.361   5.705  11.699 -0.1906 -0.2377  0.0123
16045W        W31176  11.870   9.967  10.041  0.2796 -0.0654  0.0440
16046W        W31177  16.486   2.653  12.541  0.4805 -0.2076 -0.2686
16047W        W31178   4.105   1.150  12.760  0.5508 -0.3885 -0.4146
16048W        W31179  14.680   6.037   1.352 -0.2853  0.1347 -0.0696
16049W        W31180  16.909  16.799   1.180  0.1169 -0.3322 -0.3693
16050W        W31181   9.523   1.910   4.157 -0.0282  0.2869 -0.0920
16051W        W31182  13.355  14.519  13.448  0.1139 -0.1585 -0.0567
16052W        W31183  11.745   7.906  12.314  0.3691 -0.1177  0.1649
16053W        W31184   3.057   2.291   0.422  0.2299 -0.0530 -0.2920
16054W        W31185   1.511  12.933   5.190 -0.1462  0.1898 -0.2708
16055W        W31186   2.259  16.379   5.043  0.3058 -0.0526  0.1341
16056W        W31187  18.251  15.431   0.513 -0.2819  0.1123 -0.0298
16057W        W31188   6.711  17.020   0.669  0.2136 -0.1215 -0.2131
16058W        W31189   4.661   4.842  11.305 -0.1386 -0.0740 -0.2001
16059W        W31190  13.468  16.175   2.260  0.3293  0.2342  0.2477
16060W        W31191  13.410   0.075  11.878 -0.0450  0.1104 -0.1006
16061W        W31192   4.318   5.229  12.031  0.3068  0.0184 -0.1307
16062W        W31193   2.034   4.152  10.607  0.0718 -0.0952  0.1985
16063W        W31194   2.958  14.892  15.753 -0.1154  0.1729  0.2145
16064W        W31195  17.279   7.823   4.333  0.2612 -0.2938 -0.2373
16065W        W31196   9.720  11.310  12.383 -0.0281  0.0499 -0.1632
16066W        W31197   6.882   4.674  12.568  0.0041  0.0885  0.2646
16067W        W31198   7.444   0.750   2.190 -0.3054 -0.1021  0.0646
16068W        W31199  15.198  17.573   3.522 -0.3259  0.1409 -0.1943
16069W        W31200  14.202   7.062   2.083  0.0743 -0.2195 -0.0865
16070W        W31201   4.081   6.691  13.186 -0.3533  0.1616  0.1346
16071W        W31202  17.023   6.460   4.040 -0.0244 -0.0269 -0.3180
16072W        W31203   7.078  11.273   2.756 -0.1039  0.2486 -0.0432
16073W        W31204   5.667   0.765  10.866  0.2140 -0.2654 -0.0696
16074W        W31205  10.018   5.598  11.991 -0.3332  0.0136 -0.2307
16075W        W31206  13.407  14.068   1.865  0.3332 -0.1066 -0.0333
16076W        W31207   7.982  18.375  12.507 -0.0035  0.0535 -0.0360
16077W        W31208  12.481  18.243  15.488 -0.0083 -0.2112 -0.1388
16078W        W31209  12.214   1.850   1.902 -0.2830  0.0400 -0.0804
16079W        W31210  11.705   1.321  14.361  0.0067  0.1394 -0.0269
16080W        W31211  12.165  10.850   4.368  0.0740 -0.0085  0.1754
16081W        W31212   5.649   5.617  10.965 -0.0289 -0.0842  0.1287
16082W        W31213   1.332   0.698  11.754  0.1522  0.0534 -0.0238
16083W        W31214   9.144  11.423   0.856  0.3113 -0.0949  0.0365
16084W        W31215   1.389   8.880   1.514  0.0012  0.4764 -0.0365
16085W        W31216  16.163   7.561   5.078  0.3454 -0.1735  0.0188
16086W        W31217  15.066  14.236   3.576 -0.2146 -0.1992  0.1246
16087W        W31218  16.445  12.530  15.290  0.1236 -0.0509 -0.0794
16088W        W31219   4.625   8.484  12.193  0.1416  0.1901 -0.3706
16089W        W31220  11.215   3.870   0.688 -0.0909 -0.3328  0.0487
16090W        W31221   7.398  15.677   2.538  0.5055 -0.2563 -0.1427
16091W        W31222  17.964   1.651  14.565 -0.2012  0.0688  0.0703
16092W        W31223   9.584   4.713  13.977  0.2731  0.0008 -0.1371
16093W        W31224  10.554  11.760  12.756  0.0174 -0.3560 -0.1446
16094W        W31225   9.410  18.396   0.981  0.1579 -0.0149  0.2114
16095W        W31226  10.504   2.457  15.562  0.1840  0.0780 -0.0768
16096W        W31227  16.746   9.779   3.961 -0.2430  0.1186  0.0198
16097W        W31228  16.442  17.795   6.072  0.2297  0.1452 -0.0780
16098W        W31229  10.294   5.095  11.695 -0.0378  0.0160  0.0876
16099W        W31230  10.297  13.152  11.516  0.0032  0.0792 -0.3785
16100W        W31231   1.619  10.096   1.479 -0.2968  0.0161  0.1452
16101W        W31232   1.779  12.213   2.680 -0.1750  0.3814  0.0213
16102W        W31233  15.267  11.638  13.024 -0.2403 -0.3649  0.1725
16103W        W31234  16.460  17.226   1.091 -0.4392  0.0993  0.1894
16104W        W31235  11.364   8.155  10.743  0.1301  0.0492  0.3215
16105W        W31236   7.413  12.582   0.486  0.0854 -0.0860 -0.1891
16106W        W31237   9.972   1.615   5.013  0.1087  0.2138 -0.4427
16107W        W31238   7.358   3.753   3.015 -0.0745  0.0656 -0.1703
16108W        W31239   2.764  12.855   1.717  0.0104 -0.1245  0.0683
16109W        W31240   3.374  14.809  11.491 -0.0115  0.0610 -0.1286
16110W        W31241   7.410  14.379  13.292  0.2171 -0.1526 -0.4337
16111W        W31242  16.830   0.032   0.835 -0.0147  0.0069  0.1311
16112W        W31243   3.514   0.094   1.082  0.2457  0.0266 -0.3373
16113W        W31244  14.059  11.249   4.825 -0.1128  0.4248  0.2075
16114W        W31245  17.323   4.518   0.183  0.3421 -0.2694 -0.0915
16115W        W31246  18.025  13.741   3.146  0.1242  0.2512 -0.0628
16116W        W31247   2.485  16.434   3.037  0.0875 -0.0150  0.2937
16117W        W31248  13.505  15.996  13.973 -0.3628  0.4656  0.2404
16118W        W31249  14.248  17.129   3.393 -0.2192 -0.2051 -0.0239
16119W        W31250   4.199  17.997   1.446  0.2726  0.0178  0.0430
16120W        W31251  10.207  16.367  13.861  0.0274  0.1790  0.0490
16121W        W31252   0.077   9.798  13.576 -0.0152  0.1268  0.3318
16122W        W31253   1.574  14.289  15.034 -0.0712  0.0168 -0.0760
16123W        W31254  18.050   1.554   0.001 -0.0523  0.2493 -0.1644
16124W        W31255   9.279   8.582  12.345  0.1002 -0.0516 -0.2542
16125W        W31256  13.932  15.257   3.874  0.0530  0.1591 -0.3392
16126W        W31257   6.070  12.584   3.549  0.0980  0.0380 -0.0136
16127W        W31258   3.429   6.691  15.415  0.1650  0.4303 -0.2119
16128W        W31259   6.658   7.855   4.569  0.0078 -0.0327 -0.0616
16129W        W31260  12.601   1.828  13.949  0.1766  0.2263  0.0191
16130W        W31261   2.792   6.949  14.065  0.1036  0.1066 -0.0634
16131W        W31262  12.500   1.232  14.819  0.3890 -0.0345 -0.0331
16132W        W31263  15.550  10.691   3.954  0.1940 -0.1584 -0.1969
16133W        W31264   8.534   2.032   1.055 -0.0044 -0.0623 -0.2408
16134W        W31265  13.673   6.480   3.733 -0.2088  0.1096  0.0536
16135W        W31266  16.696   7.201  11.954 -0.1558 -0.2143 -0.0900
16136W        W31267   6.597   0.636   2.673 -0.1077  0.1767 -0.2089
16137W        W31268  14.063   5.983  13.605  0.2291 -0.0005  0.2410
16138W        W31269  16.136   5.928   3.658  0.0436  0.0289  0.1275
16139W        W31270   9.369   9.388  13.100 -0.0208 -0.0122  0.0072
16140W        W31271   5.939   6.477  11.468  0.2622 -0.2863 -0.0717
16141W        W31272   1.615   1.680  15.790  0.3039  0.0483 -0.0120
16142W        W31273   7.511   9.478  10.834  0.1511 -0.0468 -0.4097
16143W        W31274   9.750   9.215  13.411  0.0157 -0.0329 -0.4216
16144W        W31275   0.299   4.376   4.213 -0.0890 -0.2884  0.2328
16145W        W31276  10.556  16.567  13.400 -0.2555  0.1072 -0.0137
16146W        W31277  13.782  17.644   4.615  0.3912 -0.3249 -0.0764
16147W        W31278  15.168   5.949   5.766  0.0229  0.0880 -0.1370
16148W        W31279  15.920   8.263  14.303  0.2974  0.0022  0.3108
16149W        W31280   9.904  13.006   1.450 -0.0128 -0.0278  0.0415
16150W        W31281   3.470  11.549   4.962  0.0514 -0.0972 -0.0558
16151W        W31282   9.259  12.946   3.589  0.1352 -0.0921 -0.1984
16152W        W31283   8.724  12.206  13.290 -0.0087  0.0044 -0.1232
16153W        W31284  16.216  14.832   1.496 -0.1226 -0.2620 -0.0518
16154W        W31285  11.121  11.891   4.965 -0.2239 -0.0506  0.0684
16155W        W31286  17.890   7.910   4.641 -0.1701 -0.3132 -0.0329
16156W        W31287   2.128   4.031   3.227 -0.2124 -0.1210 -0.1289
16157W        W31288  12.390   8.692  15.653  0.1407 -0.1508 -0.0449
16158W        W31289   5.214   8.528  14.182  0.0032  0.0458  0.0407
16159W        W31290  13.110   7.823   2.516 -0.1561  0.1340 -0.1157
16160W        W31291   1.104   8.936   5.685  0.1348  0.1821  0.1638
16161W        W31292   0.086   1.314  14.332 -0.0015  0.3747  0.1105
16162W        W31293  17.804   5.122  15.712  0.1022  0.1400  0.1220
16163W        W31294   2.576  14.719  13.030  0.3950  0.0283  0.1069
16164W        W31295  18.368   3.922  12.557  0.0133 -0.2097 -0.0506
16165W        W31296   9.381   7.505  14.432 -0.0772 -0.0071 -0.0426
16166W        W31297   2.604  12.343  14.244  0.0835 -0.2190 -0.1434
16167W        W31298   8.870  11.961   2.289  0.0121  0.1965 -0.1373
16168W        W31299  17.685   6.820  12.497 -0.0043  0.0248 -0.1220
16169W        W31300   6.215   1.023   2.422 -0.1516  0.2265  0.2415
16170W        W31301   0.238   8.856   3.271  0.0324  0.1987 -0.1145
16171W        W31302   0.596   6.605   2.721 -0.0645 -0.0406 -0.1440
16172W        W31303   1.973   8.283   0.917 -0.1497 -0.1293  0.1907
16173W        W31304   4.386   3.941  11.295 -0.0344  0.0786 -0.0839
16174W        W31305   7.537   1.433   4.576  0.1255 -0.0457  0.0045
16175W        W31306  12.885   7.426  13.925 -0.0209  0.3279  0.0245
16176W        W31307   0.874  12.801  15.505 -0.1056 -0.1059 -0.3023
16177W        W31308   3.413  11.768   2.150 -0.1418  0.0569 -0.1010
16178W        W31309  13.864   4.337  10.745 -0.0979 -0.0964 -0.0066
16179W        W31310   6.453   9.594   0.526 -0.1234 -0.3669 -0.2098
16180W        W31311  17.138   2.679  15.670 -0.2249  0.2924 -0.2172
16181W        W31312   3.144  14.187   2.184 -0.1222 -0.0659 -0.0621
16182W        W31313  13.045  10.387   5.159 -0.0067  0.1218  0.1240
16183W        W31314   8.431   7.127  15.529  0.2464  0.0925  0.2896
16184W        W31315   9.468   0.007   5.786  0.0278 -0.1576  0.2654
16185W        W31316  17.503  15.883   0.181 -0.0668  0.2792 -0.2136
16186W        W31317   4.776   8.774   3.712  0.0750  0.1755 -0.1092
16187W        W31318  15.904   1.185   3.440  0.0091 -0.3408  0.0620
16188W        W31319   9.650  12.338  15.256  0.0317 -0.2867  0.2537
16189W        W31320  15.750   0.318   1.745 -0.2298 -0.0789 -0.0573
16190W        W31321   5.057   6.231   1.930 -0.0659 -0.0991 -0.2271
16191W        W31322  11.936  17.668   0.023 -0.0343  0.1276 -0.3306
16192W        W31323   8.621   1.783  10.668 -0.0245  0.1416 -0.2010
16193W        W31324   9.726  17.143  13.967  0.0407  0.2862 -0.2383
16194W        W31325  11.003  18.487   2.713  0.1869 -0.3565  0.2412
16195W        W31326  14.390   9.425   3.101  0.0321  0.2268 -0.2521
16196W        W31327  11.825   3.307  12.175  0.0950 -0.0774 -0.2193
16197W        W31328   3.122  10.541  10.463  0.1263 -0.1556 -0.0303
16198W        W31329  12.369   7.167   1.176  0.3088 -0.3541  0.0898
16199W        W31330  16.094   5.481   4.498  0.2121 -0.0597  0.2292
16200W        W31331   7.263   0.515  13.677  0.1138  0.0737 -0.0635
16201W        W31332   3.156  14.989  10.248 -0.1347 -0.1918 -0.2427
16202W        W31333  12.215   8.409   4.080  0.2335 -0.0369 -0.4347
16203W        W31334   2.652   1.180  15.834 -0.1993 -0.0118 -0.5458
16204W        W31335  12.482   4.726  13.705  0.0445 -0.0841  0.1815
16205W        W31336  13.360  11.453  14.149  0.0457  0.3119 -0.5784
16206W        W31337   7.475   2.570   3.395  0.1742 -0.0571 -0.1087
16207W        W31338   0.490   2.449   0.337 -0.2112 -0.0089 -0.3596
16208W        W31339   2.638   6.543   0.235  0.1549 -0.1712 -0.1300
16209W        W31340   2.639   4.670   1.322  0.0880 -0.0998 -0.1840
16210W        W31341  15.788  14.247   0.430  0.0018  0.4216 -0.1106
16211W        W31342  11.191  11.150  13.492 -0.0218  0.0058  0.0975
16212W        W31343  14.238  12.196   3.209  0.1576  0.0791 -0.2830
16213W        W31344  17.243  15.710   4.326 -0.1856  0.0980 -0.0753
16214W        W31345   0.655  12.828   1.010 -0.0817 -0.1912  0.1998
16215W        W31346  17.872   3.609   3.432 -0.1515 -0.0352  0.1403
16216W        W31347   5.042   6.693  10.017  0.1198 -0.1824  0.3019
16217W        W31348  14.107  14.476   0.966  0.0497 -0.1274  0.0791
16218W        W31349   3.896  18.494  15.786  0.0725  0.2066 -0.3345
16219W        W31350  15.311   6.857  13.282 -0.2669  0.0657 -0.0467
16220W        W31351   0.121   6.183  13.644  0.0273  0.2752  0.0574
16221W        W31352   7.039  12.300  13.450 -0.3196  0.0392 -0.0295
16222W        W31353  15.580  12.017   0.118  0.0471 -0.0708 -0.0877
16223W        W31354   7.700   8.786  15.346 -0.1709  0.1468  0.0052
16224W        W31355   6.729  10.105   5.700 -0.3688  0.2186 -0.2275
16225W        W31356  11.462  14.892  14.618  0.0946  0.0596 -0.1612
16226W        W31357   3.856   1.505  14.921 -0.1992 -0.0715 -0.0394
16227W        W31358   4.570   2.130  10.663 -0.0314 -0.0809 -0.1808
16228W        W31359  16.174   9.271   2.360 -0.2444  0.0340  0.0935
16229W        W31360   1.998   5.944   4.269 -0.0616  0.0445  0.1897
16230W        W31361   4.685  15.994   3.571  0.1534 -0.2573 -0.0451
16231W        W31362  17.507   0.925   3.034 -0.1657  0.1254  0.2049
16232W        W31363   7.766   1.534  12.641  0.0040  0.6094  0.4043
16233W        W31364  13.879   6.577   2.339  0.2231  0.0534 -0.1215
16234W        W31365   6.481   6.690  14.384 -0.0126  0.2832 -0.1857
16235W        W31366  17.274  10.960  15.799 -0.1708  0.1495 -0.1592
16236W        W31367   0.663   7.247  15.618 -0.3253 -0.0223 -0.2156
16237W        W31368  15.878   0.271  15.169 -0.0501  0.1501 -0.1034
16238W        W31369  12.481   5.496   5.529  0.2483  0.0193  0.0368
16239W        W31370   5.555   0.702  11.981 -0.0403 -0.0814  0.1097
16240W        W31371  11.052  14.126   2.995  0.0420 -0.2624  0.1409
16241W        W31372   5.949  13.827   5.202 -0.1726 -0.2117 -0.3579
16242W        W31373   1.376   5.667   5.763  0.1102 -0.1157 -0.0662
16243W        W31374  11.871  17.748  12.329 -0.1134  0.0124  0.3280
16244W        W31375   1.657  15.110   3.716 -0.1595  0.1852 -0.2625
16245W        W31376   4.569   3.334   4.805 -0.1458  0.3047 -0.1941
16246W        W31377   2.619  14.848  10.967 -0.0447 -0.1040 -0.1168
16247W        W31378  12.571  11.300   0.311  0.0752  0.0523  0.2169
16248W        W31379   3.343   4.097  15.003 -0.1099 -0.1504 -0.0833
16249W        W31380  18.111  11.511   4.507  0.1853 -0.1485 -0.0003
16250W        W31381  10.565  11.322  12.954 -0.0179 -0.2525 -0.0694
16251W        W31382   7.395   0.874   1.643  0.0362 -0.2221 -0.1365
16252W        W31383  18.537   0.428   5.110  0.2276  0.0011  0.0395
16253W        W31384  12.762  11.620   1.136 -0.1382 -0.0915  0.2443
16254W        W31385   1.117  13.054  15.844 -0.2705 -0.2445 -0.1200
16255W        W31386  16.959   8.884   3.451 -0.0060  0.0176 -0.1368
16256W        W31387   4.652   9.443  15.235 -0.0301  0.1095 -0.0053
16257W        W31388  16.232   0.166  10.544 -0.0073  0.1648  0.2582
16258W        W31389  16.755   5.251  10.527 -0.7000  0.1504 -0.2102
16259W        W31390   1.788  11.721  15.735  0.0044  0.1419 -0.1454
16260W        W31391   2.653  16.649  10.279 -0.0522  0.1671  0.0525
16261W        W31392  13.800  16.647  14.849  0.1169  0.0762  0.1123
16262W        W31393  15.149  15.489  11.894  0.1484  0.0501  0.0141
16263W        W31394  14.254  15.818  15.168  0.0286 -0.4244 -0.0262
16264W        W31395  11.163   4.837  11.932  0.0533  0.1614  0.3499
16265W        W31396  16.799  10.373   1.189 -0.1362  0.3162  0.0101
16266W        W31397   8.271   7.283   3.767 -0.0642  0.0639 -0.5440
16267W        W31398  14.123   9.828  13.398 -0.1248  0.0528 -0.2150
16268W        W31399  11.100   1.635   0.569 -0.0336 -0.0746  0.2451
16269W        W31400  15.098  16.598  13.377 -0.4425  0.2635 -0.3155
16270W        W31401  12.172   0.723   2.271 -0.0014  0.0557  0.0692
16271W        W31402  14.045  14.169  13.990  0.0387  0.1721  0.1236
16272W        W31403  13.383  14.567   1.635  0.0971 -0.0107  0.3931
16273W        W31404   4.468   9.248   0.282  0.1206 -0.0560 -0.0129
16274W        W31405   7.589   6.239   0.962 -0.2360 -0.3248  0.2686
16275W        W31406   4.704  17.260  12.474 -0.1087  0.2553  0.0943
16276W        W31407  10.670  11.213   0.233 -0.0476  0.1898 -0.0888
16277W        W31408  15.405  15.398   3.258  0.3122  0.0456 -0.2565
16278W        W31409  12.614   3.729   1.406 -0.1387  0.0403 -0.3960
16279W        W31410   7.446   0.236   5.328 -0.3560 -0.2271  0.0182
16280W        W31411  11.657   9.966  14.055  0.1207 -0.0662  0.3004
16281W        W31412  15.667  18.040   5.034 -0.0731  0.0075 -0.0435
16282W        W31413   8.469   9.023   0.671  0.1058 -0.1072  0.0205
16283W        W31414  16.195   9.537  12.335 -0.1094  0.0182 -0.1630
16284W        W31415  16.438  13.901  12.641 -0.2018 -0.1765 -0.2629
16285W        W31416   3.438  13.194   4.677  0.0293  0.0115 -0.4273
16286W        W31417   8.093   8.043   3.526 -0.1147  0.1323  0.1647
16287W        W31418  16.905  17.239   4.716  0.0153 -0.2261  0.2013
16288W        W31419  17.071   9.852  11.205  0.1277 -0.1212  0.0931
16289W        W31420  14.132  12.183   4.517 -0.2257  0.2037 -0.2109
16290W        W31421   6.738  14.705  12.186 -0.0026  0.1044  0.0343
16291W        W31422  11.538   9.167  12.153 -0.4093 -0.2395 -0.2886
16292W        W31423  17.007   6.161   2.257 -0.1562  0.0039  0.0636
16293W        W31424  16.900   6.989   1.913 -0.0678  0.1504  0.3303
16294W        W31425   8.728  18.533  13.687  0.1633 -0.2907 -0.1710
16295W        W31426  11.639  18.030   4.892  0.2862 -0.0108 -0.1318
16296W        W31427  15.226   3.851  15.024  0.3551  0.0350  0.0111
16297W        W31428  12.772   7.785  13.387  0.2316  0.1354 -0.3970
16298W        W31429  14.158  18.523  15.495 -0.3172 -0.2406  0.0184
16299W        W31430   1.106  16.510   4.343  0.2260  0.1883 -0.1607
16300W        W31431   2.563  11.396  14.284  0.0281  0.0073  0.0898
16301W        W31432   1.953  11.481  10.325  0.2412 -0.2303  0.0072
16302W        W31433   3.408  10.982   0.659 -0.1146 -0.2895  0.4499
16303W        W31434   7.184  15.243   2.717  0.2510  0.2554 -0.1031
16304W        W31435  18.293  16.332  14.820 -0.2828 -0.0440  0.2008
16305W        W31436   2.257   3.899   5.958 -0.1895  0.5412  0.0292
16306W        W31437  17.946   3.772   1.259 -0.1573 -0.2936  0.0454
16307W        W31438   7.209   7.311   3.058  0.2535 -0.0107  0.1292
16308W        W31439   1.638   7.554   3.983 -0.0207 -0.1431 -0.1861
16309W        W31440   5.925   6.757   3.586  0.2219  0.1868 -0.2735
16310W        W31441   9.744  18.507  15.507  0.0726  0.0405  0.2938
16311W        W31442  13.623  11.670   5.114  0.1019 -0.0664  0.0731
16312W        W31443   8.510  14.842  12.362  0.0177 -0.1214  0.0860
16313W        W31444  17.076   7.275  13.099  0.0643  0.2011 -0.3608
16314W        W31445  14.751   3.270  13.147 -0.3413  0.0790 -0.1638
16315W        W31446  14.667   4.488   0.825 -0.0290  0.1914  0.0053
16316W        W31447  13.589   9.939   1.917  0.1352  0.0445 -0.1996
16317W        W31448   6.426  17.113  13.809 -0.0384 -0.0722 -0.3281
16318W        W31449   8.877   6.809  15.595  0.0678 -0.1505 -0.2132
16319W        W31450   0.336  10.468  12.216 -0.1177 -0.0812  0.1525
16320W        W31451  18.213   5.723  13.186  0.2552 -0.0873 -0.2095
16321W        W31452  13.593   3.426   1.717  0.2592  0.3462  0.0460
16322W        W31453   8.200  14.957   0.843  0.0251  0.3339 -0.0846
16323W        W31454  13.957  13.843   0.362  0.1263 -0.3056 -0.3367
16324W        W31455   6.171   8.729   0.391  0.2872 -0.1123  0.0423
16325W        W31456  11.000   8.631  11.537 -0.3158 -0.0170 -0.0938
16326W        W31457   5.304  16.519  11.949  0.1017  0.2210 -0.1896
16327W        W31458   4.280   5.120   2.304 -0.2718 -0.2940  0.1974
16328W        W31459  12.657   9.775   1.856  0.0670 -0.1784  0.1113
16329W        W31460  11.248  13.808   1.210  0.1337  0.0366  0.0262
16330W        W31461   4.622  16.466  13.705 -0.2110 -0.3364 -0.0250
16331W        W31462  14.774   9.766   3.249 -0.1326  0.0235 -0.0741
16332W        W31463   8.925   0.909   5.923  0.0221 -0.1073 -0.1211
16333W        W31464   1.279   5.869   2.552 -0.0127  0.4800 -0.5094
16334W        W31465  15.340  11.633   5.532 -0.2325 -0.1966 -0.0864
16335W        W31466   1.502  17.280  12.128 -0.1895 -0.1345  0.0759
16336W        W31467   4.704   9.526  13.139  0.2419 -0.0461 -0.1489
16337W        W31468  10.666   7.925   4.848  0.3439  0.0210  0.1401
16338W        W31469  15.165   3.379   3.717 -0.0913 -0.0721 -0.0884
16339W        W31470  11.445  14.477  14.154 -0.0775  0.1009 -0.0099
16340W        W31471  10.723   9.892   2.986  0.1647 -0.3688  0.2391
16341W        W31472  16.084  11.935   5.437  0.0739 -0.1159  0.1113
16342W        W31473   6.610   1.270  13.009  0.0279  0.0480 -0.0269
16343W        W31474  10.140  15.923   0.994  0.4950  0.1113 -0.2109
16344W        W31475   0.815  14.923  14.765 -0.0980 -0.1522  0.2428
16345W        W31476   6.044   7.798   2.471 -0.0237 -0.1404 -0.0939
16346W        W31477   3.645  13.716   3.781 -0.1555  0.0048 -0.1381
16347W        W31478   7.975   4.324   4.674 -0.0716  0.0185 -0.0700
16348W        W31479  11.251   3.388   4.746 -0.0842  0.0211 -0.3176
16349W        W31480   2.975  11.474   5.246  0.1539  0.0954  0.2276
16350W        W31481  18.070  13.972  14.265 -0.3310 -0.0589  0.1973
16351W        W31482   2.814   7.710  14.404  0.0423 -0.0616 -0.1181
16352W        W31483   5.405   7.073   4.551  0.2747  0.2418  0.0449
16353W        W31484   0.977   9.311   4.771 -0.0487  0.1713  0.0231
16354W        W31485   0.552   3.507   4.412 -0.1593 -0.0743  0.1922
16355W        W31486   3.363   1.011  15.441  0.1992  0.0463  0.1404
16356W        W31487  10.903  12.578   1.478 -0.0819  0.1917  0.0662
16357W        W31488   4.576   1.695   5.111 -0.1366  0.2311 -0.1401
16358W        W31489   6.669  15.123   0.807  0.2860  0.2823 -0.0764
16359W        W31490   8.897   3.036  14.727  0.0136 -0.6854  0.1978
16360W        W31491   6.290   7.709   2.922  0.3455  0.1289  0.0581
16361W        W31492  16.920  13.761  13.477  0.0614 -0.1209  0.3911
16362W        W31493   8.282  18.342  13.186 -0.2659  0.0820  0.3932
16363W        W31494  13.209  11.051  14.874 -0.1209 -0.1400  0.2569
16364W        W31495  18.079  11.258  15.407  0.2996  0.0697  0.1744
16365W        W31496   1.852   5.010  10.719  0.0147  0.2071 -0.1787
16366W        W31497  14.822   9.452   0.526  0.0750  0.0772 -0.0736
16367W        W31498  17.986   5.370   3.254  0.2909  0.1046  0.0499
16368W        W31499   4.439   3.914  10.442  0.2424  0.1124 -0.2663
16369W        W31500   5.096   0.543   0.127  0.2690  0.1351 -0.2040
16370W        W31501  12.194   0.737  15.713  0.0090  0.3540 -0.2922
16371W        W31502  12.993   4.757   4.829  0.1990 -0.2464  0.2645
16372W        W31503   9.999  13.701  14.140  0.0482 -0.1507  0.1233
16373W        W31504   4.375  10.369   4.846  0.2831 -0.3263  0.0595
16374W        W31505   5.601  14.908  12.649 -0.1009  0.1387  0.1540
16375W        W31506  12.026  12.371   3.531 -0.4543  0.0856  0.1179
16376W        W31507   6.509  14.045   5.192 -0.2391  0.0572 -0.1428
16377W        W31508  13.627   4.538  12.102 -0.1835 -0.2646  0.0640
16378W        W31509  12.216  14.705   4.715 -0.2312 -0.1996  0.0159
16379W        W31510  12.352   5.161   0.434 -0.1234 -0.1446 -0.1057
16380W        W31511  15.177  16.755  12.715  0.0236 -0.0042 -0.3531
16381W        W31512  18.552   3.080   1.822 -0.1124  0.3294 -0.1519
16382W        W31513   6.336  13.936  11.549  0.2571 -0.2067  0.1803
16383W        W31514   6.997   2.801   0.593  0.3004 -0.2573 -0.0091
16384W        W31515   9.547  13.586   0.586 -0.1891 -0.0769  0.2283
16385W        W31516   8.653   5.306   5.186 -0.0165  0.0555  0.2689
16386W        W31517  16.855   9.495  13.899  0.3103 -0.1701  0.1706
16387W        W31518   5.639   7.676   4.635 -0.0829 -0.0601 -0.1983
16388W        W31519   0.970  12.392  15.879 -0.1910 -0.0273  0.1829
16389W        W31520  14.791   8.002   0.764  0.0931  0.2353 -0.1070
16390W        W31521   8.171  11.348   9.755  0.3347 -0.0497  0.4802
16391W        W31522   6.985   1.678  11.663 -0.1484 -0.1281  0.1123
16392W        W31523   0.957   5.358   3.962  0.1436 -0.2040 -0.1206
16393W        W31524  16.999  11.696   2.485  0.0693 -0.1775  0.1090
16394W        W31525   8.167  18.329  11.332  0.0591  0.0057  0.0118
16395W        W31526  15.349   9.938  14.815 -0.2434  0.0242 -0.2836
16396W        W31527  10.101   7.307  11.663 -0.0359 -0.0292 -0.0250
16397W        W31528   3.858   5.163  12.190  0.1405  0.1012  0.2081
16398W        W31529   8.981   1.496   5.019  0.1241  0.0278  0.2598
16399W        W31530   3.406   8.633  11.536 -0.0814 -0.0652 -0.2211
16400W        W31531  14.948   7.247   2.807  0.4504  0.2428  0.2263
16401W        W31532   6.911  14.975  15.488  0.0394 -0.0067  0.0168
16402W        W31533  15.025   1.627   0.273 -0.1581 -0.2483  0.0603
16403W        W31534   6.417   8.838   4.160  0.0211 -0.2555  0.0485
16404W        W31535  17.751   4.879   2.310 -0.1771  0.1156 -0.0259
16405W        W31536  13.285  14.526  15.900 -0.0996  0.0428 -0.0460
16406W        W31537  10.311  11.786   4.529  0.1107  0.0994  0.2018
16407W        W31538   8.226   4.857  15.125 -0.3149 -0.2311  0.0605
16408W        W31539  13.395   4.534  10.585 -0.0064  0.1933  0.1476
16409W        W31540   1.343  10.793  14.086 -0.1624 -0.1153 -0.1467
16410W        W31541   3.249  13.396  15.228  0.3257 -0.1288 -0.1428
16411W        W31542   3.868   4.556  11.562 -0.2826  0.1052 -0.0294
16412W        W31543   8.137  10.453   3.008  0.2820 -0.0801  0.0510
16413W        W31544  13.797   9.232  10.560  0.0302  0.2171  0.0537
16414W        W31545   8.683   2.929  13.915 -0.0200  0.2202 -0.0764
16415W        W31546   2.930   4.272   1.302 -0.1039  0.0131  0.1442
16416W        W31547  10.511   6.721  12.950 -0.2203  0.0342  0.2210
16417W        W31548  14.416   3.099   3.027  0.2077  0.2096 -0.0394
16418W        W31549   9.912  16.439  14.646  0.1099 -0.2782 -0.1873
16419W        W31550   4.237   6.502  13.689  0.4536  0.2283 -0.1284
16420W        W31551   2.855   0.544   2.318  0.0721 -0.1020 -0.1710
16421W        W31552  15.496   6.657   3.696  0.2383 -0.2146  0.0526
16422W        W31553   6.710  11.566  10.638  0.0130  0.0430 -0.0799
16423W        W31554   0.904  18.077  13.769  0.0298  0.1293 -0.0126
16424W        W31555   3.459  17.429   1.816  0.1499 -0.2390 -0.0571
16425W        W31556  17.175   2.484  11.599  0.0407  0.2749 -0.0990
16426W        W31557   2.391   0.359   2.563 -0.0273  0.1787  0.0643
16427W        W31558   6.219  11.161  12.863  0.0037 -0.0877  0.3172
16428W        W31559   2.085   4.545   1.220 -0.1440  0.1361  0.1183
16429W        W31560  18.489  13.420  10.857  0.6171  0.1844 -0.0808
16430W        W31561   3.777   2.066   2.894 -0.0977  0.2005 -0.0376
16431W        W31562   0.595   6.443   4.064 -0.0009  0.0484 -0.4838
16432W        W31563  10.414   8.690   4.396 -0.1201 -0.0961 -0.0308
16433W        W31564   7.719   7.144   0.488 -0.1427 -0.1368 -0.0565
16434W        W31565  11.981   4.266   0.525 -0.2750  0.4141  0.2870
16435W        W31566   0.209  10.170   5.247 -0.0746  0.0757  0.1655
16436W        W31567  14.584   7.430  12.126 -0.1810 -0.0139 -0.0502
16437W        W31568  10.187   8.248  14.503 -0.1423 -0.1674 -0.0017
16438W        W31569   7.527   2.594  13.489 -0.1059  0.2271  0.1772
16439W        W31570   8.153   8.049  11.750  0.0155  0.1477 -0.2606
16440W        W31571   8.093  12.787  12.775  0.1245  0.1896  0.0876
16441W        W31572   3.911   3.797  15.658 -0.2276 -0.3742 -0.0567
16442W        W31573   2.480  14.399  11.037 -0.0824 -0.3472  0.1160
16443W        W31574   4.071   4.528  15.502  0.1128  0.0750 -0.1936
16444W        W31575   5.642   2.209   3.354 -0.3932  0.1813  0.1243
16445W        W31576   0.665  14.110   1.602 -0.2869 -0.0452  0.2639
16446W        W31577   2.728   4.786  10.860 -0.0651 -0.3522  0.1644
16447W        W31578  10.900   5.713   4.001  0.0866  0.1193 -0.0104
16448W        W31579  16.362  11.952  11.686  0.2357  0.0428  0.1510
16449W        W31580  14.972  16.038   3.392  0.7088  0.3130  0.3563
16450W        W31581  12.840  11.333   4.170  0.2233 -0.0172 -0.0642
16451W        W31582  16.340   2.769   3.669  0.0605  0.1468 -0.2099
16452W        W31583   7.935   0.037  11.006  0.0169 -0.1399 -0.1195
16453W        W31584  13.270  18.346   1.854  0.0661 -0.1573 -0.0641
16454W        W31585   3.100   5.032  12.323  0.1128 -0.1143  0.0588
16455W        W31586   6.680   2.404   2.737  0.0545  0.0620 -0.1412
16456W        W31587   3.399   9.584   0.982 -0.2458  0.1119  0.4398
16457W        W31588  12.130  14.364   2.422 -0.1060  0.0361 -0.0834
16458W        W31589   0.345  14.357  14.960 -0.0871 -0.0423  0.1190
16459W        W31590  16.558   6.496  13.504 -0.0147 -0.0800  0.0293
16460W        W31591   2.814  13.289  14.664 -0.0850  0.1356 -0.0136
16461W        W31592  18.093   9.683  11.280 -0.0949 -0.3715  0.0636
16462W        W31593  12.486   0.800   3.388  0.0843  0.0133 -0.1168
16463W        W31594  11.833  15.942  12.068  0.1486  0.2907 -0.1749
16464W        W31595  15.374  12.293  12.239  0.0449 -0.1777 -0.4679
16465W        W31596   5.207  16.142   2.830 -0.0891  0.0569  0.2442
16466W        W31597   2.013  17.546   3.768  0.0245 -0.1676 -0.1109
16467W        W31598   9.696  16.809  10.895  0.0677  0.1685  0.1435
16468W        W31599   3.981  10.704   4.653 -0.1107  0.2016 -0.0421
16469W        W31600   0.413   6.537   3.617 -0.0285 -0.0388  0.0329
16470W        W31601  11.237  11.654   0.286 -0.1139 -0.0622  0.2992
16471W        W31602   0.017  11.193  13.750  0.0846  0.1439  0.0707
16472W        W31603   4.858  16.787  14.939  0.1872  0.1557 -0.4243
16473W        W31604   2.105   0.655   5.207 -0.3694  0.2673 -0.0064
16474W        W31605  17.632  17.501  13.395 -0.0281 -0.1032  0.0937
16475W        W31606   6.637  15.233  10.471  0.0021 -0.2032  0.1027
16476W        W31607   1.186  11.553  14.739 -0.1682 -0.0677 -0.2798
16477W        W31608   7.399  18.067  15.899 -0.1391 -0.2725 -0.0869
16478W        W31609   1.679  16.499   1.807  0.0363  0.2116  0.0427
16479W        W31610   6.638  13.485  13.646  0.1462 -0.1649 -0.0933
16480W        W31611  14.381   5.227   2.984  0.0878 -0.2346 -0.0527
16481W        W31612   6.543   7.711   9.597 -0.2079 -0.3224  0.0887
16482W        W31613  14.630   4.898   1.810 -0.0530  0.0765 -0.2165
16483W        W31614   0.319   5.526  14.402 -0.0389 -0.0371 -0.1807
16484W        W31615   0.171  14.723   5.410 -0.0354  0.1447 -0.0248
16485W        W31616   2.183  17.403   1.163 -0.0229  0.0593 -0.1985
16486W        W31617  12.349  18.552   0.336  0.0554 -0.2111 -0.1902
16487W        W31618   5.683  15.233   2.974  0.1722 -0.1070 -0.5074
16488W        W31619   8.294   8.187   5.464 -0.1182 -0.1671  0.1094
16489W        W31620   6.614  16.112  12.273  0.1423 -0.2230 -0.2862
16490W        W31621   1.292  10.016  15.511 -0.0671 -0.1853  0.1938
16491W        W31622   9.800   0.992   4.435 -0.0300 -0.2195  0.2548
16492W        W31623   5.222  17.492   1.012  0.0249  0.0533  0.3099
16493W        W31624  18.555  17.762   3.784 -0.2481 -0.1498  0.2045
16494W        W31625   0.590  12.922   0.068 -0.1489 -0.0880 -0.5226
16495W        W31626  14.928  12.350  12.012 -0.1719  0.1199  0.1414
16496W        W31627  11.211  13.714   4.801  0.2100  0.1894 -0.0293
16497W        W31628  14.673   3.963   4.869 -0.5068 -0.0524  0.0821
16498W        W31629  15.360   6.154   5.363  0.0096  0.0061 -0.1260
16499W        W31630   0.379   6.205  14.676  0.3068  0.0865  0.0517
16500W        W31631  12.463   1.289  11.860  0.3901 -0.0124 -0.1957
16501W        W31632  17.167  14.162   5.244 -0.1796 -0.0108  0.0497
16502W        W31633   8.724   7.270  11.929 -0.3960  0.0429 -0.1027
16503W        W31634  11.261   5.728  13.968 -0.1229  0.1213 -0.1542
16504W        W31635  18.135   2.709  15.671 -0.0918  0.2084 -0.0296
16505W        W31636   9.343   9.117   0.453  0.1418  0.0601  0.0174
16506W        W31637  17.095   5.587  12.930 -0.0657 -0.4132  0.2892
16507W        W31638   1.012  18.525  11.188 -0.1088  0.1924 -0.1504
16508W        W31639  17.629  15.817  12.753 -0.0188 -0.2476 -0.0480
16509W        W31640  18.077  10.766  11.824 -0.1185  0.0821  0.2210
16510W        W31641  17.841   2.292   1.937  0.0616 -0.1026 -0.0869
16511W        W31642   2.943   9.550   0.548  0.1521 -0.1689  0.1404
16512W        W31643   2.314  13.015  11.774 -0.1857  0.3944 -0.2109
16513W        W31644  15.014  12.372  13.545 -0.1671  0.0953 -0.3407
16514W        W31645  17.412  18.470   6.278  0.3116 -0.0929 -0.0069
16515W        W31646  13.832   9.671   3.675  0.0139  0.1632  0.1239
16516W        W31647   8.884   7.436   3.670 -0.2194  0.1612  0.3177
16517W        W31648  16.016  11.138   1.307 -0.0247  0.5103  0.1434
16518W        W31649   0.090   6.410   4.494  0.4787 -0.1619  0.1123
16519W        W31650  12.037   1.452   4.183  0.1014 -0.2372  0.0208
16520W        W31651   2.009   5.905   1.942  0.0703 -0.0065 -0.0631
16521W        W31652  10.652   4.533  14.011 -0.0291  0.0882 -0.0217
16522W        W31653   1.440   3.029  12.480 -0.3244  0.1747 -0.0639
16523W        W31654  12.120   9.597  10.265 -0.0751 -0.1624 -0.0006
16524W        W31655   8.594  17.916   4.088 -0.0658  0.0328 -0.3005
16525W        W31656   5.552   3.273   4.574  0.1213  0.1771  0.0593
16526W        W31657   2.204   4.560  11.685  0.1829  0.2538  0.0326
16527W        W31658  11.997   4.331  15.364  0.0057 -0.3873  0.0288
16528W        W31659   7.971   9.181   2.231  0.2856  0.0050  0.1766
16529W        W31660  10.510   0.805   1.501 -0.0682  0.0701  0.0829
16530W        W31661   4.966  18.466  11.175  0.0063  0.3106 -0.3074
16531W        W31662   1.577   9.412   3.706  0.1686 -0.1017  0.0528
16532W        W31663  10.569   5.668   5.381  0.2915 -0.1407  0.1336
16533W        W31664   4.568  11.790  12.295 -0.0736  0.0736 -0.0986
16534W        W31665   5.632  14.550   4.157 -0.3971 -0.0854 -0.0129
16535W        W31666  11.304  10.244   3.813 -0.0941 -0.1135  0.2485
16536W        W31667  18.074   9.786   2.438 -0.0511  0.0128  0.2893
16537W        W31668  10.281  10.370  11.638 -0.2593  0.0791 -0.3505
16538W        W31669  12.329  17.829  15.779  0.0575  0.0811  0.1849
16539W        W31670   3.062   1.730  15.321 -0.4045 -0.2741  0.1677
16540W        W31671  15.586   6.793  14.045  0.0642 -0.2411  0.0613
16541W        W31672  11.731   4.392   2.364 -0.0948  0.2015 -0.1480
16542W        W31673  17.450  15.780   3.862 -0.3447  0.1592  0.1669
16543W        W31674   1.411  17.169  13.561 -0.0533  0.0039  0.0134
16544W        W31675  16.218   7.006   3.031  0.0370  0.1770  0.1261
16545W        W31676   6.753   1.525   4.341 -0.2567  0.3883  0.0098
16546W        W31677  10.008   0.634   2.860  0.1058 -0.0192  0.1770
16547W        W31678  15.315   2.126   1.014 -0.1394 -0.0817 -0.0720
16548W        W31679   9.713   5.752   4.747 -0.1016 -0.0064  0.2011
16549W        W31680  13.105  17.470  11.152 -0.0116 -0.0920  0.1983
16550W        W31681  17.826  14.127  15.926  0.1510  0.2615  0.0943
16551W        W31682   1.163   4.069   5.410 -0.1982  0.1410  0.0766
16552W        W31683   4.059   9.913  14.428 -0.0300 -0.2595  0.0298
16553W        W31684   2.856  14.426   1.920 -0.0937 -0.1868  0.3308
16554W        W31685   0.178   9.227  12.836  0.1914 -0.0908 -0.0816
16555W        W31686   8.745  17.612  13.681 -0.0186  0.1984 -0.2721
16556W        W31687   3.552   8.718   2.342  0.0369 -0.1176  0.0944
16557W        W31688   5.341   1.507   2.176 -0.3483 -0.4433 -0.1922
16558W        W31689   1.405  11.594  13.580 -0.1228  0.0951  0.2031
16559W        W31690  13.981   4.501   0.328  0.0702 -0.2193  0.0109
16560W        W31691  15.288   4.630   6.110  0.2114  0.1770 -0.2794
16561W        W31692   7.075   6.728   4.731  0.1837 -0.2382 -0.1968
16562W        W31693  15.361  14.031  15.806 -0.1541  0.1150  0.0236
16563W        W31694  12.682  16.088   1.207  0.2436 -0.0131 -0.0682
16564W        W31695   6.890  10.712  13.644  0.2089 -0.2789 -0.2657
16565W        W31696   0.756   3.084  12.797  0.0318  0.1193  0.1438
16566W        W31697   2.412  13.515   3.926 -0.1640 -0.3059  0.0442
16567W        W31698  10.103  15.695  12.484  0.0875 -0.0839 -0.0199
16568W        W31699  10.455   6.286   9.857 -0.1977  0.0371  0.2540
16569W        W31700  16.685   5.275  13.629 -0.6345  0.0183  0.0376
16570W        W31701  11.569   8.273  14.932  0.2220  0.0508  0.2476
16571W        W31702  17.442   1.705  15.885 -0.1246 -0.1512 -0.4976
16572W        W31703   7.352  17.271   2.722  0.2280  0.1732 -0.3814
16573W        W31704   7.982   7.039  11.121 -0.1750 -0.0435  0.1463
16574W        W31705  10.493  16.746   0.959 -0.2227  0.1794 -0.1775
16575W        W31706   0.612   4.340   0.129 -0.0133 -0.3280  0.0051
16576W        W31707   9.065  17.169  15.428  0.1060  0.0063  0.2640
16577W        W31708   9.038   0.109   4.775 -0.3466 -0.4389  0.1444
16578W        W31709  13.842   4.075   0.605 -0.3772 -0.1294 -0.0142
16579W        W31710  11.834   0.867  14.144 -0.3204 -0.0583  0.3551
16580W        W31711   6.577  14.668   3.977 -0.2553 -0.2067  0.1912
16581W        W31712   2.671  14.922   9.934 -0.2074  0.1353  0.3570
16582W        W31713   2.184  17.175  12.899 -0.1319  0.1408 -0.1146
16583W        W31714  14.598  12.295   0.030 -0.4506 -0.0744 -0.0331
16584W        W31715   4.767   9.561  15.737 -0.1297  0.3969 -0.0591
16585W        W31716   2.613  16.389   0.027 -0.2949 -0.0023  0.1321
16586W        W31717   4.441  11.276   1.581 -0.1600  0.0006 -0.0051
16587W        W31718  13.621  10.347   5.183 -0.1849 -0.2359  0.3412
16588W        W31719  10.293   3.829  13.636 -0.1112 -0.1781 -0.0216
16589W        W31720   4.492   9.135   3.329  0.0551 -0.1752 -0.3144
16590W        W31721   8.047  10.092  15.806 -0.1058 -0.2045  0.0951
16591W        W31722  11.370   2.612  11.367  0.1994  0.1475 -0.1449
16592W        W31723   5.140   5.180  13.685 -0.1151 -0.0115  0.2391
16593W        W31724  15.480   1.792  14.891 -0.1588  0.4482  0.1988
16594W        W31725   7.280  16.698  12.673  0.0742  0.2087  0.0024
16595W        W31726  11.144  12.344  12.654 -0.3439 -0.0163  0.3053
16596W        W31727   0.540  17.566   0.380  0.3190 -0.0557  0.1046
16597W        W31728  13.308  10.334  14.452  0.2222  0.1085  0.3067
16598W        W31729   1.804   7.305  14.401  0.2851  0.3784  0.1565
16599W        W31730   3.752   3.212  12.471  0.2761  0.2772 -0.3452
16600W        W31731  15.004   1.821   2.436  0.0352  0.1460  0.0692
16601W        W31732  18.245   4.099   0.001 -0.1469 -0.0771  0.0784
16602W        W31733   8.330  15.334  14.189 -0.0525 -0.3011 -0.6290
16603W        W31734   6.587  10.563   2.803 -0.1625  0.1108  0.0002
16604W        W31735  17.847  10.185   5.057  0.3912 -0.1319 -0.1185
16605W        W31736   3.588  11.970  12.344  0.2758  0.2179  0.1065
16606W        W31737  11.287   3.132   9.988 -0.2007  0.0485  0.0904
16607W        W31738   3.845   9.371  12.824 -0.0382 -0.0441 -0.1854
16608W        W31739   5.697  14.844   5.719 -0.1856 -0.0332 -0.0040
16609W        W31740  16.117   6.674  11.474  0.3145 -0.1568 -0.1105
16610W        W31741  12.038   3.640   5.249  0.0567  0.1631 -0.0652
16611W        W31742  15.740   2.406   5.319  0.0697  0.0676 -0.0142
16612W        W31743   4.836   0.129  14.554  0.0652 -0.0997 -0.0413
16613W        W31744  12.806   9.455  15.311 -0.0296  0.1550 -0.2035
16614W        W31745   7.537  15.214   3.446  0.1899 -0.0523  0.0301
16615W        W31746  11.669  16.238   3.877  0.3024  0.0710  0.0380
16616W        W31747   6.520   3.950  12.763 -0.1126  0.2923  0.0848
16617W        W31748   9.636  15.697   2.993  0.1596 -0.3538 -0.1460
16618W        W31749   5.892   1.678  11.176 -0.0611  0.0997 -0.1223
16619W        W31750  12.454  10.458   4.613  0.3288  0.2644 -0.1255
16620W        W31751   6.563   2.033  14.201  0.3021  0.3339  0.1262
16621W        W31752   4.663   3.530   0.985  0.3872 -0.1790  0.1939
16622W        W31753  14.113   8.947  13.801 -0.0622 -0.2798 -0.2945
16623W        W31754   1.092   5.793  13.886 -0.2867 -0.1460  0.1961
16624W        W31755   6.133  14.971  15.025 -0.0333  0.1007 -0.0848
16625W        W31756  18.092   3.649  10.689  0.1131  0.0244  0.0763
16626W        W31757  14.117   7.082  13.802  0.0505  0.2638  0.1067
16627W        W31758  16.844   8.024   1.548  0.0190  0.0761 -0.1896
16628W        W31759   0.137   0.249   2.868 -0.1633 -0.1414  0.2059
16629W        W31760   8.131   4.571  11.031 -0.1750  0.1465  0.1178
16630W        W31761   6.982  12.769  11.867  0.1945 -0.1757  0.1672
16631W        W31762   8.319   9.341   1.750 -0.1468  0.1148  0.1267
16632W        W31763  18.570  14.327   1.280 -0.0392  0.0908 -0.0022
16633W        W31764  10.491  15.356   4.208 -0.0679  0.2089  0.1049
16634W        W31765   9.079  10.430   0.719  0.0867  0.1490 -0.2652
16635W        W31766   4.692  16.914   3.107  0.1435  0.2254 -0.0498
16636W        W31767  12.991   3.516   0.269 -0.0323  0.3028 -0.0655
16637W        W31768  17.143  18.197   4.489 -0.1000 -0.1420 -0.2666
16638W        W31769  18.120   8.901   5.033 -0.1736  0.1319  0.0297
16639W        W31770  10.684   0.192  13.089 -0.1981  0.1929 -0.0938
16640W        W31771   2.865  13.524  11.196 -0.2865 -0.0898  0.0335
16641W        W31772   4.176   9.970  12.244  0.3814  0.1152 -0.1518
16642W        W31773   7.809  17.832  15.782 -0.2416  0.0400  0.0678
16643W        W31774   1.927  13.076   1.695  0.0517  0.2410 -0.2313
16644W        W31775  16.955  11.236   4.233  0.0206  0.0886 -0.4454
16645W        W31776   5.572  17.781  13.152 -0.1193 -0.0988 -0.0661
16646W        W31777  15.456  11.350  12.582  0.1021  0.2943 -0.0287
16647W        W31778   0.544   7.000   3.438 -0.1421 -0.0571  0.2275
16648W        W31779  13.558   5.420  15.260 -0.0230 -0.0513  0.2550
16649W        W31780   2.548   0.610  15.914 -0.1400 -0.1731 -0.2739
16650W        W31781  15.027  15.954  13.056  0.1845 -0.3021  0.4220
16651W        W31782  16.195  16.858   4.144  0.0566 -0.1048 -0.3054
16652W        W31783  18.309   6.256  13.310  0.1187  0.0004  0.0017
16653W        W31784   1.651   9.915  12.382 -0.0713  0.2306 -0.0924
16654W        W31785  14.290   8.804  11.537 -0.2648 -0.1070  0.1881
16655W        W31786  17.404   0.937   4.956 -0.0660 -0.0870  0.2482
16656W        W31787  10.204   7.790   1.435 -0.1403  0.0371 -0.0833
16657W        W31788  16.640  11.056   1.830 -0.0793  0.2253  0.0884
16658W        W31789   0.102  17.893  11.606 -0.4154  0.2503 -0.0496
16659W        W31790  10.119   3.394   5.026 -0.0338 -0.0034 -0.2246
16660W        W31791   1.569  15.698  12.144  0.1849  0.3176  0.3647
16661W        W31792  13.564   5.828   2.946 -0.1582  0.1151  0.1291
16662W        W31793   5.033  15.534  11.179  0.3879  0.1933  0.0296
16663W        W31794   8.748   3.316  12.239 -0.1024 -0.1734 -0.1910
16664W        W31795  11.281  10.329  13.897 -0.0802 -0.1316 -0.2310
16665W        W31796  17.536   0.071  11.693 -0.1032 -0.1841 -0.1874
16666W        W31797   4.513  14.867  11.491 -0.1199  0.3134  0.1668
16667W        W31798   7.562  17.666   3.141 -0.0035  0.1459 -0.0308
16668W        W31799  11.763  17.925   2.593 -0.0085  0.2577  0.2394
16669W        W31800  12.407   4.073   3.553  0.0507 -0.0503 -0.0564
16670W        W31801   8.174   7.502   5.938 -0.1213  0.5085 -0.1897
16671W        W31802   5.404  15.230  10.952  0.1915  0.0499  0.0012
16672W        W31803  15.447  10.632  14.326  0.0811 -0.0204  0.1161
16673W        W31804  16.858   9.076   2.530  0.1191  0.0047  0.2246
16674W        W31805   2.843  14.068   5.798 -0.0968  0.1609 -0.1259
16675W        W31806  17.030   2.091  10.294 -0.1420 -0.1795  0.3039
16676W        W31807   8.017  16.010  13.630  0.0795  0.0638  0.2301
16677W        W31808   8.878  10.284  13.560  0.3167 -0.0832 -0.2252
16678W        W31809  13.058  16.269   2.557  0.1641  0.1508  0.0193
16679W        W31810   7.660   9.670   0.467  0.2319 -0.1680 -0.2990
16680W        W31811  13.951  13.104  14.931 -0.2984  0.1916 -0.0990
16681W        W31812  13.555   0.599  15.809 -0.0361 -0.1090 -0.1954
16682W        W31813   3.473  11.506   0.858  0.1541  0.0851 -0.3683
16683W        W31814   7.400   3.570  11.870 -0.1665  0.0532  0.4149
16684W        W31815   6.796   3.523  10.181 -0.0945 -0.3429 -0.2249
16685W        W31816  12.647  16.250   1.661 -0.0137 -0.1425 -0.4450
16686W        W31817   9.123  12.567  15.347 -0.0997 -0.3129 -0.0873
16687W        W31818  18.074  14.335  11.742 -0.0888 -0.0659 -0.2062
16688W        W31819  14.822  15.081   2.125  0.2779 -0.0490 -0.1815
16689W        W31820   3.067   5.746   4.210  0.2835 -0.0750 -0.0966
16690W        W31821  11.113   5.125  13.888  0.0197  0.1239 -0.1417
16691W        W31822   3.845   6.491   5.400 -0.1108  0.0204 -0.0703
16692W        W31823   9.363  12.188   5.675 -0.0157 -0.0030  0.1258
16693W        W31824  11.326   6.203  14.952 -0.0245 -0.1346 -0.0202
16694W        W31825   2.342   1.013  10.125 -0.0265  0.2744  0.1634
16695W        W31826  14.061  16.152  14.702 -0.0773  0.2732  0.1741
16696W        W31827  16.932   9.078   5.445 -0.2062  0.2481  0.3031
16697W        W31828  11.386   5.571   4.184 -0.0082  0.1841  0.2151
16698W        W31829  14.644  13.724   1.585  0.1154 -0.0287  0.2122
16699W        W31830  10.168   3.395   4.074 -0.1395  0.2851  0.0630
16700W        W31831   7.745  14.495   1.447 -0.1861 -0.0800 -0.4461
16701W        W31832   6.777  11.707  15.197 -0.0195  0.0458 -0.0489
16702W        W31833   1.993   7.755  15.458 -0.1578  0.1607 -0.2857
16703W        W31834  17.560  11.892   5.380 -0.1673  0.0400 -0.0513
16704W        W31835  13.292   1.091   1.221 -0.1117 -0.1192  0.1872
16705W        W31836   7.729   1.542   5.573  0.1824  0.1315 -0.1954
16706W        W31837   2.794   3.348   5.197 -0.1336  0.1506 -0.0591
16707W        W31838  13.982   5.691  12.658  0.1706  0.2797  0.1454
16708W        W31839  11.812  13.687  12.917 -0.1556 -0.4367 -0.0975
16709W        W31840   2.012   3.445  13.205 -0.1818 -0.0163 -0.1379
16710W        W31841  13.451   2.729  11.894 -0.2078 -0.2871 -0.0820
16711W        W31842   4.289   9.722  12.796 -0.1782 -0.2520 -0.0800
16712W        W31843   5.581  10.487  14.867  0.1264  0.0620  0.1067
16713W        W31844   8.787   1.770   2.660 -0.1618 -0.1451 -0.3031
16714W        W31845   4.946   3.955   1.752 -0.0554 -0.0202  0.0188
16715W        W31846  11.611   0.571   2.537  0.1541  0.0464  0.0243
16716W        W31847   3.303   1.446   0.839 -0.2102  0.1131  0.2473
16717W        W31848  13.907   3.227   0.757  0.0061 -0.0867 -0.0709
16718W        W31849  14.225  10.043  11.662  0.0493 -0.0486  0.1588
16719W        W31850   2.702   7.204  11.093 -0.1118  0.2826 -0.1370
16720W        W31851   6.379   4.755   0.082  0.4174 -0.0804 -0.0927
16721W        W31852  11.947   4.941  10.806 -0.2683  0.0761 -0.2216
16722W        W31853   4.677  15.492  10.695  0.3138  0.2623 -0.0603
16723W        W31854   4.605   1.529  12.815 -0.2474 -0.0416  0.1642
16724W        W31855  15.043  16.831  14.487 -0.0563  0.2121  0.0219
16725W        W31856   3.792   2.717  12.631  0.0568 -0.0355 -0.2176
16726W        W31857  14.187  16.035   3.041 -0.0379  0.0453  0.2894
16727W        W31858   5.597  10.237   5.917  0.0009  0.1529 -0.3023
16728W        W31859  10.376   7.570   3.778  0.3069  0.1854  0.2459
16729W        W31860   2.268  15.150   2.345 -0.0766 -0.3581  0.0118
16730W        W31861   4.509  18.263   4.411  0.1931  0.1333  0.1336
16731W        W31862  18.490   8.649  10.376  0.4437  0.3219  0.3614
16732W        W31863   1.870   5.892  11.839  0.0783  0.2009  0.0058
16733W        W31864  13.987   8.917  12.511  0.1638  0.0446 -0.1122
16734W        W31865  17.065   0.210  11.675  0.1151  0.1179  0.1115
16735W        W31866  15.478  18.273  13.450 -0.2005 -0.0918 -0.0471
16736W        W31867  13.423  10.705   4.242  0.1774  0.0472 -0.0977
16737W        W31868  18.026  17.409  14.241 -0.2000  0.0958 -0.3347
16738W        W31869  12.495   0.827  14.064 -0.1623  0.1728  0.2655
16739W        W31870  17.393  18.396  13.078 -0.1291 -0.0614  0.0394
16740W        W31871  17.359  13.852   0.915 -0.0713  0.0996  0.6620
16741W        W31872   8.594  17.274  11.964  0.0928  0.1918 -0.2222
16742W        W31873   1.075  10.562   1.254 -0.0836 -0.2291 -0.0126
16743W        W31874   8.034   6.064   2.346 -0.0228  0.1474 -0.0164
16744W        W31875  10.122  11.997   4.973  0.2213 -0.2225 -0.2565
16745W        W31876  18.254   6.774  10.061 -0.1358  0.0935 -0.0514
16746W        W31877  16.799  14.685  13.774 -0.1184  0.0528  0.0644
16747W        W31878   6.711   1.012  13.848 -0.1356  0.1015  0.1623
16748W        W31879  13.349  11.706   5.704 -0.0217  0.3055 -0.0003
16749W        W31880  14.329   7.446   0.825 -0.3358 -0.0524  0.0245
16750W        W31881  17.204   7.059   4.641  0.0568 -0.1074 -0.0279
16751W        W31882   8.278  10.302  14.023  0.0670  0.1456  0.0508
16752W        W31883  15.822   4.266   1.666 -0.1749 -0.1600  0.3198
16753W        W31884   9.721  12.944  10.886  0.1751  0.0169 -0.2320
16754W        W31885  11.703   6.009  11.165  0.2012 -0.0985  0.1063
16755W        W31886   8.042   3.969  15.051  0.4005  0.1383 -0.2895
16756W        W31887  13.607   7.081   3.181  0.0276  0.1431 -0.0662
16757W        W31888  13.204   2.997  14.326  0.0321  0.2390  0.0020
16758W        W31889   4.382  17.948   2.055 -0.1374 -0.1726 -0.1086
16759W        W31890   3.836   4.796  15.171  0.2434 -0.0963  0.1107
16760W        W31891  14.130  11.965  15.003 -0.0892  0.2501 -0.0325
16761W        W31892   0.995  14.079   1.239 -0.0887  0.1101 -0.1284
16762W        W31893  13.864   1.185   3.415 -0.0254  0.1030  0.3269
16763W        W31894   9.359   0.315   1.807 -0.1720  0.1852 -0.0487
16764W        W31895   9.503  17.507  12.447  0.0424  0.0336 -0.4598
16765W        W31896  16.310  14.381  15.328 -0.0513 -0.1925 -0.1321
16766W        W31897   8.148   1.201   0.906  0.0079  0.0058 -0.1311
16767W        W31898  11.895  15.034  10.228  0.0670  0.2089  0.1044
16768W        W31899   6.299  15.029   5.323 -0.1126 -0.0133 -0.0745
16769W        W31900  11.752  10.459   0.083  0.0853  0.0003 -0.0611
16770W        W31901  12.316  13.391   0.788 -0.3768 -0.0385  0.2590
16771W        W31902  12.271  13.973  15.044 -0.0151 -0.1114  0.2024
16772W        W31903  13.600   5.533   3.359 -0.0680  0.3616  0.3457
16773W        W31904   8.657  11.971   5.150  0.2635  0.0562  0.0969
16774W        W31905  18.363   8.852  12.188 -0.0183  0.0116 -0.2400
16775W        W31906  10.120   8.594  14.154 -0.1847  0.1427  0.0507
16776W        W31907  14.884   2.692  14.335 -0.2155  0.0328 -0.1647
16777W        W31908  11.779  12.642   1.439  0.1944 -0.2210  0.2397
16778W        W31909  11.229  14.109   5.192 -0.0837  0.0093 -0.0697
16779W        W31910   3.844   6.923  15.326  0.2351  0.1948  0.2163
16780W        W31911   1.816  14.556   2.715 -0.1357 -0.1489 -0.1574
16781W        W31912   0.830   8.533   2.008 -0.2976 -0.0252 -0.0680
16782W        W31913   9.786   0.400   2.467 -0.1659  0.1671 -0.5980
16783W        W31914  13.790   2.986  15.752  0.1443 -0.1650  0.1648
16784W        W31915  15.388   5.709  15.302 -0.1959 -0.1525  0.1074
16785W        W31916  15.966   6.032   3.087  0.0240  0.2171  0.2927
16786W        W31917  12.745  15.266   1.865 -0.3596  0.0268 -0.0509
16787W        W31918  10.307  11.549   0.185 -0.1741  0.0147  0.1663
16788W        W31919  12.725   8.299   1.539 -0.3933 -0.3124 -0.0669
16789W        W31920  16.619  14.499   5.316 -0.1328  0.0788  0.1393
16790W        W31921   8.235  17.400   1.853  0.0054 -0.0947  0.0041
16791W        W31922  15.122  16.175   1.384 -0.1076  0.2778 -0.0497
16792W        W31923  16.313   6.822  13.104  0.1037 -0.0320  0.1618
16793W        W31924   4.525  13.520   4.100  0.0890 -0.0278  0.5086
16794W        W31925   2.554  10.613  15.085  0.0257 -0.2848  0.2445
16795W        W31926   1.892  13.507   0.762  0.1878  0.0612 -0.1721
16796W        W31927   2.784   8.400  10.901  0.1378  0.0547  0.0788
16797W        W31928   6.030   7.239  13.131  0.1783  0.0950  0.1250
16798W        W31929   4.822   8.514  12.763 -0.2223 -0.1495 -0.0858
16799W        W31930   1.107   3.380  12.312  0.3438 -0.1180 -0.3340
16800W        W31931  17.225   4.568  15.598 -0.1688 -0.0011  0.0079
16801W        W31932  10.623   5.126   4.754  0.1149  0.1007  0.0603
16802W        W31933   8.858   1.137   2.057 -0.2669  0.1353 -0.2716
16803W        W31934  15.661   0.727   3.571 -0.1165  0.1235  0.1541
16804W        W31935  14.658   6.417   3.279  0.1090  0.0200 -0.1181
16805W        W31936  16.619   4.247  10.713 -0.0385 -0.1265 -0.0140
16806W        W31937   3.868  16.913   3.505 -0.1414 -0.0305  0.0591
16807W        W31938   3.570   9.843  10.347  0.4013  0.2739  0.0903
16808W        W31939  15.908   7.048  15.385 -0.1683  0.0375 -0.3670
16809W        W31940   2.515  13.268   3.520 -0.2535  0.3582  0.2113
16810W        W31941   5.158   2.215  13.267 -0.0968  0.1174 -0.2626
16811W        W31942   2.482  10.643   4.978  0.2166  0.0771  0.1739
16812W        W31943  16.383  16.044  14.404 -0.2715 -0.2537  0.2202
16813W        W31944   6.778   6.265   5.024 -0.2633 -0.0385 -0.2781
16814W        W31945   7.744  10.254  12.949 -0.1172  0.3591 -0.1250
16815W        W31946   7.564   1.733   4.154 -0.1851  0.1597 -0.4033
16816W        W31947   8.947   9.877  13.289  0.0644 -0.0208 -0.0848
16817W        W31948  11.871  13.450  10.689 -0.0784  0.2167  0.0839
16818W        W31949   0.976  18.505  15.796  0.1002 -0.1045 -0.1331
16819W        W31950   2.348  18.183   4.518 -0.1266  0.1339 -0.2062
16820W        W31951   6.462  14.055   1.986 -0.0630  0.4864 -0.0890
16821W        W31952   4.881   2.805  13.932 -0.1039  0.0412  0.3277
16822W        W31953   5.321  15.822  14.055 -0.2173  0.3307 -0.1557
16823W        W31954   1.092   9.047  13.082 -0.0962  0.4813 -0.1419
16824W        W31955   0.999   5.030  10.897  0.3044 -0.1816  0.1090
16825W        W31956  11.724   1.096   3.714  0.0461  0.3822  0.0191
16826W        W31957  10.630   3.899   0.363 -0.2045  0.0459  0.0770
16827W        W31958   0.195  16.631   1.361 -0.0158 -0.2505  0.1048
16828W        W31959  16.164  10.471   2.525  0.1510  0.0793 -0.1948
16829W        W31960   4.883  10.103  13.365  0.1196 -0.1975 -0.2039
16830W        W31961   3.346  13.788   2.885  0.1395  0.1247  0.1686
16831W        W31962   5.624   9.809   3.708 -0.3737  0.0753 -0.2050
16832W        W31963   4.072  11.528   2.198 -0.0684  0.1128  0.3826
16833W        W31964   2.599   1.093  10.587 -0.1100 -0.1259 -0.3220
16834W        W31965  18.177   0.847  13.822 -0.3643  0.1149 -0.3552
16835W        W31966   1.871   2.818   1.918 -0.3001 -0.0366  0.1581
16836W        W31967   6.322   2.832  13.972  0.0823  0.0735  0.1316
16837W        W31968   4.920   8.521   5.684  0.1695 -0.1030  0.0267
16838W        W31969   9.395   4.702   4.151 -0.1380 -0.1033  0.0965
16839W        W31970   5.473  15.735  12.664 -0.1854  0.0669 -0.1628
16840W        W31971   8.712   1.887  11.163 -0.0569 -0.3749 -0.1941
16841W        W31972   2.201  16.419   2.145  0.1778  0.3628 -0.1635
16842W        W31973   1.755  17.032   2.984  0.1025  0.0215  0.2484
16843W        W31974  18.526  16.498   5.286 -0.2729  0.4384 -0.1570
16844W        W31975   8.867  16.208   4.337 -0.1203  0.1574  0.0647
16845W        W31976  17.745  17.071  14.612 -0.1722  0.4147 -0.1795
16846W        W31977   1.756  15.116  15.202 -0.0532 -0.3514  0.0017
16847W        W31978   3.923   8.471  13.994  0.0365 -0.1004  0.2066
16848W        W31979   3.717  13.291  13.957  0.1158 -0.2130 -0.1257
16849W        W31980  10.377  12.594  11.585 -0.0434  0.0231 -0.3041
16850W        W31981  10.888   9.134  11.620 -0.2548 -0.1211  0.1688
16851W        W31982   1.022  10.336   5.976 -0.0813 -0.0182 -0.1903
16852W        W31983  17.009  16.195   3.111  0.2959  0.0916  0.2296
16853W        W31984   6.438  14.721  15.847 -0.0712 -0.4611  0.0826
16854W        W31985   2.114  13.782  11.676  0.1287  0.0569  0.0394
16855W        W31986  13.465   8.885   1.548  0.0938  0.2423 -0.1917
16856W        W31987   4.180  13.183   4.054 -0.0842  0.3245 -0.0672
16857W        W31988   0.700  16.103  13.066 -0.4472 -0.0053  0.1497
16858W        W31989   3.911   2.531   1.935 -0.1164 -0.2392  0.1005
16859W        W31990  15.246  18.123  11.013 -0.0247  0.0532 -0.0171
16860W        W31991  15.758  10.333  13.984  0.0170  0.2242 -0.0209
16861W        W31992   2.341   6.238   0.476 -0.0546 -0.2084 -0.0590
16862W        W31993   0.937   1.863  12.497  0.0682 -0.1884  0.1100
16863W        W31994   6.422  12.453   2.765 -0.2047  0.3989 -0.2853
16864W        W31995  18.504  18.424  13.391  0.0405  0.3985 -0.2317
16865W        W31996   2.754  11.706  11.024  0.2840 -0.2063  0.1385
16866W        W31997  11.004  15.478   5.436  0.1994 -0.0036 -0.1918
16867W        W31998  14.945  11.048   5.057 -0.0470  0.0512 -0.0166
16868W        W31999   0.987   9.280  10.927  0.1103  0.0422  0.3487
16869W        W32000  13.636  17.267  11.709  0.2269  0.0685 -0.2777
16870W        W32001   7.664  18.314  13.803 -0.1603  0.0258  0.1003
16871W        W32002  10.850   6.648   2.774 -0.3152 -0.0401 -0.0551
16872W        W32003  17.942   9.643  12.916 -0.0387  0.3507  0.1155
16873W        W32004   8.921   1.478   4.355 -0.0851 -0.0747 -0.0581
16874W        W32005   6.369   7.060   1.032 -0.1475 -0.1122  0.1456
16875W        W32006   8.450  14.343  13.935  0.1121 -0.1517 -0.1481
16876W        W32007   1.483   6.013   4.375  0.2954 -0.0842 -0.5892
16877W        W32008   6.925   4.885   4.327  0.0156  0.0312 -0.1167
16878W        W32009   4.949   7.702   3.209 -0.1110  0.1448 -0.2470
16879W        W32010   3.880  11.592   5.217  0.0872  0.0132  0.2247
16880W        W32011   4.434   0.437  14.415  0.0416 -0.0545 -0.0668
16881W        W32012  17.072  10.834   1.303  0.0080 -0.1167  0.3196
16882W        W32013  13.873   0.962  15.915 -0.1330  0.0596  0.2078
16883W        W32014   5.427   1.768   3.126  0.0818  0.0637 -0.0872
16884W        W32015  14.312  18.471   0.878 -0.1712 -0.1431  0.0580
16885W        W32016  11.229   3.030  13.543 -0.1587  0.1609  0.1005
16886W        W32017  16.389  17.062  13.849 -0.2618  0.1549  0.0348
16887W        W32018  18.398   3.045   2.876  0.0372 -0.0595  0.0480
16888W        W32019  13.898   5.706   2.058  0.1391 -0.1166  0.3023
16889W        W32020  14.404   5.898  12.469 -0.0668  0.2423  0.1975
16890W        W32021  12.537  14.496  14.734  0.1615  0.2430  0.2729
16891W        W32022  12.621   6.808  12.090  0.0301 -0.0054 -0.1978
16892W        W32023   5.761  14.094   3.949 -0.1192  0.0401 -0.0552
16893W        W32024   2.351   5.550  11.965 -0.1206  0.2282 -0.4399
16894W        W32025   8.974   0.910   2.997  0.1395  0.2976  0.2901
16895W        W32026   5.483   6.757   4.152 -0.1250  0.2942 -0.0514
16896W        W32027   7.447   5.591   4.085 -0.3647 -0.0836 -0.0269
16897W        W32028  15.637  17.908  11.396 -0.2133  0.1511 -0.3552
16898W        W32029   8.633   4.781  15.777  0.1795  0.0591 -0.0568
16899W        W32030  12.547  10.688  13.794 -0.1306 -0.0155  0.1268
16900W        W32031   3.581   2.272   5.235 -0.2545 -0.1413  0.1139
16901W        W32032   4.070   4.989   1.682 -0.3298  0.0577  0.2730
16902W        W32033  15.088  15.325   4.823 -0.0845  0.1821  0.0732
16903W        W32034  16.753   6.760   0.009 -0.0907  0.2415 -0.1166
16904W        W32035   0.021  15.693   5.555 -0.1473 -0.0759  0.5743
16905W        W32036  17.780  13.891   4.637 -0.1079 -0.0284  0.2134
16906W        W32037   1.082  17.043   4.073 -0.3272 -0.0543 -0.1065
16907W        W32038   5.275   0.503   2.418 -0.0300  0.1657 -0.0894
16908W        W32039  14.684  14.130  12.898  0.1375 -0.0121 -0.0913
16909W        W32040  10.423   6.744   5.000 -0.1176 -0.0755 -0.3646
16910W        W32041   9.428   4.842  11.633 -0.3762 -0.0465  0.0132
16911W        W32042   1.280   8.152  13.151  0.0352 -0.0401 -0.0357
16912W        W32043   0.408   2.423  11.956  0.0890 -0.0808  0.0149
16913W        W32044  17.534  10.381   3.920  0.1445  0.0579  0.2891
16914W        W32045   4.865   2.430  12.364 -0.0160  0.0594 -0.1623
16915W        W32046  10.587  11.200   1.887  0.2681 -0.0862  0.0362
16916W        W32047   3.524  10.855  13.084 -0.0646 -0.1253 -0.2994
16917W        W32048  12.988   1.271   2.209 -0.0916 -0.2050  0.0033
16918W        W32049  14.976   0.700   4.270 -0.0601 -0.1554  0.0106
16919W        W32050  17.791  18.544  11.306 -0.2544  0.0208 -0.2651
16920W        W32051  10.494  10.027   1.739  0.4614  0.1015  0.1355
16921W        W32052  11.143   2.881  13.020 -0.0740 -0.0851 -0.1092
16922W        W32053   7.018   7.495  13.063 -0.1015 -0.0735 -0.0654
16923W        W32054   0.630  11.708  11.425  0.1196  0.1855  0.4223
16924W        W32055   8.085   3.150  15.394 -0.0720 -0.2262 -0.2526
16925W        W32056  12.196  11.024  15.149  0.1833 -0.2518 -0.2279
16926W        W32057  15.647   8.782  13.824  0.2396 -0.2507 -0.2177
16927W        W32058   4.779   4.027  14.654  0.1109  0.0588 -0.2772
16928W        W32059  11.886   3.978   5.574  0.1082 -0.1672  0.0845
16929W        W32060  17.833   4.515   5.751  0.1305 -0.2234  0.0531
16930W        W32061   9.384  16.103  12.199 -0.0708  0.1761 -0.0304
16931W        W32062   7.359   6.568   5.759 -0.0586 -0.2006  0.1717
16932W        W32063  12.606  17.348  15.846  0.2219  0.1068  0.2590
16933W        W32064   7.632   8.319   4.492  0.0436 -0.0890 -0.1962
16934W        W32065  14.890   3.384   4.972 -0.1626 -0.1313 -0.2787
16935W        W32066   9.337   3.426   1.329  0.0214 -0.2736 -0.1459
16936W        W32067   9.267   1.823  14.035  0.2794  0.0470 -0.0437
16937W        W32068   0.130  11.455   0.967  0.1302 -0.0613  0.0664
16938W        W32069   5.079   8.194  15.191 -0.5003 -0.0236  0.2405
16939W        W32070  12.918   2.463  14.467  0.3385  0.0025 -0.2524
16940W        W32071  17.849  14.217   3.589 -0.0703  0.1409 -0.0063
16941W        W32072  12.658  16.235  11.926  0.2812  0.0482  0.2548
16942W        W32073   6.648  13.416  10.302  0.2300 -0.0689 -0.1831
16943W        W32074   5.602   8.320   1.127 -0.2264  0.0844 -0.0177
16944W        W32075   7.318   8.667  14.072  0.3471  0.2771  0.0909
16945W        W32076   0.022   6.447   6.033  0.0398 -0.2378 -0.0627
16946W        W32077   3.162  12.846   3.800 -0.0899 -0.2976  0.0893
16947W        W32078  15.999   2.684  15.696  0.0286  0.1710  0.2871
16948W        W32079  16.208   0.632   3.165  0.0776  0.4615 -0.1040
16949W        W32080  17.271   9.815  13.168 -0.1738 -0.2088 -0.0002
16950W        W32081  10.611  17.597   0.701 -0.1020 -0.0067  0.0897
16951W        W32082  12.143  12.841   1.741 -0.0895  0.2016 -0.2684
16952W        W32083   1.261  17.996  15.208  0.0703 -0.2375 -0.1453
16953W        W32084  18.239  17.934  11.820 -0.3105  0.2328  0.0399
16954W        W32085   9.101  17.940  12.313 -0.0387  0.1782  0.2692
16955W        W32086   6.424  10.121  15.335  0.1529 -0.2008  0.3160
16956W        W32087  11.561   1.583  10.519 -0.2483  0.2434 -0.0992
16957W        W32088  17.803   5.899  11.785  0.1364  0.2010 -0.0046
16958W        W32089  15.667   3.727   4.990  0.0260  0.1952  0.1797
16959W        W32090  17.307   9.487   4.797 -0.0596  0.1563 -0.1329
16960W        W32091   1.200   7.012   1.863 -0.0104 -0.0491  0.1855
16961W        W32092   2.570   9.097   4.130  0.0498  0.2465  0.2573
16962W        W32093   5.910   2.095   1.647  0.0578  0.0904 -0.0010
16963W        W32094   5.220   0.058  13.603 -0.3290 -0.6224  0.0129
16964W        W32095  11.902  11.282   2.478 -0.0457  0.3023 -0.1817
16965W        W32096   3.871  14.008  15.487 -0.1373  0.3757 -0.0836
16966W        W32097  10.341   3.897  15.238  0.0330 -0.2069  0.3175
16967W        W32098  11.795   5.257   5.020 -0.1642 -0.3640  0.1817
16968W        W32099   6.851   9.383   5.245 -0.1877  0.0386 -0.1353
16969W        W32100  11.607   6.851  14.525 -0.0010 -0.0886 -0.3183
16970W        W32101   6.922  18.206  12.023  0.2343 -0.1108  0.0607
16971W        W32102  13.943  10.187   1.043  0.0542 -0.1876  0.2789
16972W        W32103  17.820   1.212  13.172 -0.2443  0.2318 -0.0771
16973W        W32104   8.922   4.812   0.669 -0.3801  0.0741 -0.1055
16974W        W32105   1.135  13.394   5.294  0.3505  0.0137  0.0153
16975W        W32106  13.736  14.087   1.535  0.1503 -0.1546  0.0239
16976W        W32107  13.097  12.794   3.308  0.2087  0.1990 -0.0185
16977W        W32108  13.750  14.021   4.407  0.3239 -0.1723  0.0516
16978W        W32109   3.928  13.942  12.350 -0.0423  0.0081  0.2300
16979W        W32110  16.415  16.491   0.438  0.0297 -0.0857  0.0135
16980W        W32111  12.132  13.881  10.718  0.2843  0.0573  0.4104
16981W        W32112  10.158  17.370   4.279 -0.3128  0.0214  0.2344
16982W        W32113   9.899   4.459   0.992 -0.0543  0.1327  0.1072
16983W        W32114   8.382   2.584  11.346 -0.1148  0.1597  0.0699
16984W        W32115   8.890   8.523  15.108  0.3059 -0.0247  0.2619
16985W        W32116  17.316   1.163   4.448  0.0517 -0.0299 -0.3101
16986W        W32117   3.193   4.789   4.835 -0.0536  0.0333  0.1413
16987W        W32118  13.684   0.155  10.649  0.3216  0.0951 -0.1528
16988W        W32119  10.643   4.264   4.356 -0.1113  0.1201 -0.3628
16989W        W32120  12.402  10.383   0.815  0.0273  0.0318  0.1687
16990W        W32121   1.421  17.326  13.013  0.1071  0.0129 -0.1733
16991W        W32122   3.615   4.531  10.620 -0.3705 -0.2072 -0.1198
16992W        W32123   7.668  18.117   3.530  0.3252 -0.0615  0.2299
16993W        W32124  18.506  12.559  14.361  0.1559  0.1583 -0.0556
16994W        W32125  18.059   1.936  12.030 -0.3546 -0.0580 -0.0875
16995W        W32126  13.992   4.569  14.993  0.1649  0.2826  0.1466
16996W        W32127  11.594   8.580  11.535 -0.1509 -0.2174 -0.0732
16997W        W32128   7.126   9.082  13.020 -0.3476 -0.3558 -0.0262
16998W        W32129  14.678  14.624  12.319  0.2546 -0.1417  0.1305
16999W        W32130  12.732   3.701  12.093  0.2914  0.0002  0.1749
17000W        W32131  15.034  14.926  15.599 -0.2000  0.2402  0.1188
17001W        W32132   9.406  11.692   1.200  0.2594 -0.3159 -0.1055
17002W        W32133   0.041  11.534   2.479 -0.0883 -0.1243  0.0434
17003W        W32134  14.160   3.333  15.846  0.2649  0.0180  0.0951
17004W        W32135  10.706  16.438   4.567  0.2282  0.1081 -0.1059
17005W        W32136  14.647  15.983  13.981  0.2470  0.3198  0.0024
17006W        W32137   1.266   9.110  13.661 -0.1894  0.1752 -0.0294
17007W        W32138  10.001   4.570  10.988 -0.1012  0.1987  0.5351
17008W        W32139   8.658   0.407  10.906 -0.0089 -0.2135  0.1897
17009W        W32140  15.122   1.720  12.836  0.1961  0.0151  0.0580
17010W        W32141   5.333  14.587  11.557  0.3802  0.3113 -0.2231
17011W        W32142  17.775   6.283  14.156  0.2368 -0.3256 -0.2804
17012W        W32143  15.702  12.699   2.210 -0.1300  0.1595 -0.4504
17013W        W32144  14.434   0.871  15.317 -0.0945  0.4055  0.1350
17014W        W32145  16.349   3.354   3.550 -0.1383 -0.3733  0.1171
17015W        W32146  15.334   6.609   0.851  0.1468 -0.2089  0.0337
17016W        W32147   5.529  13.032  11.015 -0.3782  0.1322 -0.1851
17017W        W32148  15.167   2.347   5.086  0.2004  0.3752  0.1847
17018W        W32149   4.491   0.473   5.004 -0.3426 -0.0730 -0.3882
17019W        W32150  10.069   8.574  11.814  0.2236 -0.0229 -0.0421
17020W        W32151   5.000  11.284   5.099  0.1225 -0.3193  0.0530
17021W        W32152  17.478   4.288   5.442 -0.1799 -0.0366  0.0427
17022W        W32153  12.178   1.563   0.946 -0.1389  0.1556 -0.0862
17023W        W32154  15.021   5.888   3.926  0.1427  0.0388  0.0432
17024W        W32155   5.893  15.455  14.775  0.1204 -0.0360  0.1815
17025W        W32156   3.244  13.649   5.703 -0.2245 -0.1867 -0.1027
17026W        W32157   3.333   0.265  15.815 -0.3573  0.1049  0.0889
17027W        W32158   1.602  10.424  14.261  0.0435  0.1784  0.1397
17028W        W32159   4.910  11.531   1.063  0.2699  0.0262 -0.0546
17029W        W32160   9.358  17.507  11.553 -0.2964  0.1040  0.1046
17030W        W32161  17.576   9.666  13.994  0.0077 -0.3098 -0.1703
17031W        W32162  11.759  11.414   3.424 -0.4007 -0.1506 -0.3370
17032W        W32163  10.043  14.780  15.111 -0.4125 -0.0769 -0.0875
17033W        W32164  17.475   3.702   3.754 -0.0432 -0.0405  0.2339
17034W        W32165   2.354  16.198   4.584 -0.1937 -0.3565  0.2301
17035W        W32166  14.361   8.402   3.238 -0.0124  0.0610  0.2592
17036W        W32167  17.333   0.801  10.132 -0.0460  0.0086 -0.2904
17037W        W32168   5.204  10.227   2.213 -0.0399  0.0132  0.1021
17038W        W32169   2.082   4.751   2.161 -0.0334 -0.2571  0.3997
17039W        W32170  11.797   4.423   5.283 -0.1160  0.0207 -0.0122
17040W        W32171  13.406  13.754   3.449 -0.2262 -0.0943  0.1004
17041W        W32172   4.417   0.663   2.699 -0.1860  0.0321  0.0492
17042W        W32173  17.350   7.864   1.546  0.0889  0.3162 -0.1001
17043W        W32174   0.648  15.754   0.689  0.0501 -0.2052  0.3816
17044W        W32175   3.482  15.746   2.268 -0.1823  0.0575 -0.0003
17045W        W32176  16.103  11.872   1.090 -0.0250 -0.3825 -0.3237
17046W        W32177  13.316   9.542   6.084  0.0249 -0.1190 -0.0040
17047W        W32178  15.904   0.359   0.931 -0.3684 -0.2458  0.3639
17048W        W32179   2.636   5.230  13.514  0.0852  0.0199  0.0981
17049W        W32180   3.924   8.014   4.436 -0.4287 -0.2319  0.1273
17050W        W32181   9.570   6.612   5.353  0.1829  0.2134 -0.1187
17051W        W32182  11.332  10.582   1.982  0.0624 -0.2414 -0.2229
17052W        W32183  10.922  13.699   0.753 -0.3170  0.0359 -0.1143
17053W        W32184   9.891  13.341   4.449 -0.1651  0.1051  0.3418
17054W        W32185  11.050  12.281   5.261 -0.0592  0.1368 -0.1401
17055W        W32186  15.249  10.129  15.301 -0.0084 -0.0333  0.3010
17056W        W32187  17.731   5.766  12.341  0.1254  0.0336  0.2401
17057W        W32188   7.745   0.574  10.413  0.1666 -0.0520  0.3216
17058W        W32189   8.785  15.986   0.926  0.3930 -0.0938  0.2202
17059W        W32190  14.100  18.381   3.928  0.1375  0.1967  0.2426
17060W        W32191  17.180  17.639  10.802  0.2199  0.1305 -0.0379
17061W        W32192  16.328  13.619  11.264 -0.0974  0.3320  0.2051
17062W        W32193   3.927  15.793   0.980  0.0986  0.0140 -0.2110
17063W        W32194   4.461   9.285  11.627  0.0010  0.0466 -0.0424
17064W        W32195   7.321  11.190  15.297  0.1407 -0.1446  0.2381
17065W        W32196   3.163   2.165  12.933  0.0253  0.2064  0.1761
17066W        W32197   9.247  14.581  11.865 -0.0542  0.3884 -0.1506
17067W        W32198  11.922  15.359   4.208  0.0098  0.1712  0.2235
17068W        W32199   7.251   1.423   5.611  0.0636  0.0675 -0.0391
17069W        W32200   6.441   0.277  12.882 -0.1906  0.0063 -0.1261
17070W        W32201   7.883   2.572  11.296 -0.0546  0.2863  0.1759
17071W        W32202   2.411  13.187  11.098 -0.0627 -0.1443  0.0139
17072W        W32203  11.443   9.788  14.490 -0.1809  0.0894 -0.0581
17073W        W32204  12.969   1.966  11.556 -0.3047  0.1401  0.1246
17074W        W32205  15.793  12.884  10.219 -0.0871  0.3217  0.0630
17075W        W32206   4.954   3.914   5.729  0.5244  0.0885  0.2787
17076W        W32207  10.043   6.096  14.059  0.3670 -0.1514  0.3485
17077W        W32208   9.461  13.331   2.712  0.0217 -0.0829 -0.0846
17078W        W32209  18.411   9.847   3.734  0.1610  0.0514  0.3955
17079W        W32210  11.940  16.789   4.354  0.2951 -0.2931 -0.5670
17080W        W32211  12.934  11.704   2.071 -0.1224  0.2243 -0.0286
17081W        W32212  11.653   3.714   0.548  0.3191  0.2209 -0.0657
17082W        W32213  14.408   9.410  13.303  0.3401  0.0318 -0.1878
17083W        W32214  11.021  12.769   0.028 -0.0588 -0.2755  0.2812
17084W        W32215   1.980   9.040  11.869 -0.0594  0.2231 -0.0547
17085W        W32216  10.905  14.313  11.141  0.2547  0.0481 -0.0851
17086W        W32217   7.153  17.697  14.533 -0.1413  0.2047  0.2619
17087W        W32218  14.726   3.997  11.181  0.3573 -0.0153 -0.0527
17088W        W32219  12.373   1.304   0.084 -0.3617 -0.1162  0.0064
17089W        W32220  14.599   3.021   2.569  0.1866 -0.3480 -0.2992
17090W        W32221   9.485   6.696   0.672 -0.1337 -0.5083 -0.0024
17091W        W32222   6.029  14.565   9.544  0.0653 -0.0205  0.0036
17092W        W32223  15.127   7.639   5.477  0.0300  0.1530 -0.3140
17093W        W32224  12.707  11.165   1.315 -0.1264  0.0022 -0.3530
17094W        W32225  10.653   7.494  14.611  0.0182 -0.1573 -0.1156
17095W        W32226   5.233   1.103   1.934  0.1367 -0.1370 -0.0769
17096W        W32227  16.512  17.770   3.604  0.4422 -0.3117  0.1726
17097W        W32228   5.661  17.722  10.515  0.0189  0.1831  0.1899
17098W        W32229  14.679  14.974   4.071  0.2059 -0.0470 -0.0291
17099W        W32230   9.913  14.513   0.988  0.1181 -0.0299  0.0064
17100W        W32231  14.583  12.540  11.463 -0.1235  0.0755  0.1741
17101W        W32232  13.888   4.678   4.408  0.1036  0.3331  0.0692
17102W        W32233  17.656  16.219  10.184  0.1672  0.0377 -0.1340
17103W        W32234   3.516   8.437   2.868 -0.2609 -0.1888 -0.2481
17104W        W32235   7.703   9.175  13.017  0.0675 -0.0224  0.0377
17105W        W32236  15.159   9.539   3.443 -0.1669  0.1001 -0.0230
17106W        W32237  12.378   6.413  15.352 -0.3390  0.1049  0.0696
17107W        W32238  12.621   5.565  15.177 -0.0740 -0.0427  0.0640
17108W        W32239  16.270   4.604  10.875 -0.2850 -0.0853 -0.0384
17109W        W32240   9.051   4.678  11.321  0.1728  0.3114 -0.1313
17110W        W32241   1.898   7.319  10.329  0.0086  0.0793  0.1142
17111W        W32242  14.592   2.393   5.754 -0.2604  0.2270 -0.0788
17112W        W32243   3.867  17.385   3.195 -0.1912  0.0257  0.0352
17113W        W32244  17.683   0.116  12.201 -0.1969 -0.0614 -0.2655
17114W        W32245  10.607   7.881   0.549 -0.6360 -0.1150  0.0226
17115W        W32246   6.132   8.685  15.017 -0.2321  0.3906  0.1599
17116W        W32247  17.219   8.492   3.775  0.3467 -0.1884  0.2455
17117W        W32248   2.478  11.918  14.098  0.0405 -0.2816 -0.1453
17118W        W32249   3.685  11.093  14.458 -0.2543  0.2216 -0.1248
17119W        W32250   0.023  11.689   1.489 -0.3198 -0.0325  0.2409
17120W        W32251   4.441  15.492  12.357 -0.1533  0.2310  0.3731
17121W        W32252  14.102   5.590   4.242  0.0458 -0.2280  0.2310
17122W        W32253   0.833   9.718   2.815  0.2175 -0.2935 -0.0912
17123W        W32254   6.735   9.639  14.612 -0.0256  0.0832  0.1757
17124W        W32255   3.386  11.490  10.347  0.0511 -0.2644  0.0312
17125W        W32256   9.126   2.537  12.769  0.0787 -0.1129 -0.1574
17126W        W32257  11.961   5.863  11.654  0.1688 -0.0697  0.1141
17127W        W32258  13.423  11.759   0.311 -0.4579 -0.1150  0.1803
17128W        W32259  10.834  11.833  15.905  0.1522  0.1127 -0.0121
17129W        W32260   7.552   7.468  12.956 -0.1631 -0.2100 -0.0206
17130W        W32261  11.807  14.058   3.798 -0.3680 -0.0481 -0.0255
17131W        W32262   3.997   2.639   0.013  0.0884 -0.2481  0.3419
17132W        W32263   9.197  12.185  14.999  0.1095 -0.3308 -0.1251
17133W        W32264  16.795  16.075  13.553 -0.0281  0.0110  0.0571
17134W        W32265   5.776   3.755   2.135  0.0618  0.0920  0.3827
17135W        W32266   3.141  12.617  11.413  0.0778 -0.2135 -0.2865
17136W        W32267  17.155  16.201   1.840  0.3261 -0.1361  0.0321
17137W        W32268  17.275   1.346   3.444  0.1689  0.0212 -0.0586
17138W        W32269   8.505   3.098  12.634  0.0393  0.0541 -0.2343
17139W        W32270  15.184  17.906   5.483  0.0299  0.2745 -0.3905
17140W        W32271  15.770   7.806  11.425  0.0212 -0.3294  0.0672
17141W        W32272  12.337   9.450   1.667 -0.1454  0.1662  0.0013
17142W        W32273   3.819   5.915  12.520  0.0367 -0.0756  0.1362
17143W        W32274  15.044  13.696   3.941  0.2966  0.2326 -0.0256
17144W        W32275   0.589  10.608   1.378  0.3694  0.1131  0.0502
17145W        W32276  17.575  16.185   1.137 -0.0677 -0.2489 -0.1007
17146W        W32277   6.121   4.536  11.664  0.1749 -0.0738  0.2083
17147W        W32278  12.274  16.387  15.688  0.1054  0.2853 -0.0518
17148W        W32279  11.765  13.002  14.184 -0.0196  0.1289 -0.0201
17149W        W32280   5.576  15.759  15.233 -0.1616 -0.0394  0.1414
17150W        W32281   6.087  18.255   2.531 -0.0650  0.0100 -0.3319
17151W        W32282   7.189  12.847   2.615 -0.2868  0.1609 -0.0094
17152W        W32283   8.703   2.885  11.795 -0.2100  0.1562  0.1006
17153W        W32284   2.790   1.922  10.755 -0.0684 -0.0912  0.3775
17154W        W32285   7.120  16.565   2.596 -0.0220 -0.2450 -0.3341
17155W        W32286   4.112   7.282   4.467  0.3497 -0.1193  0.0615
17156W        W32287  16.819   4.647   4.007  0.2068  0.1546 -0.0054
17157W        W32288  13.693  13.800  14.294 -0.1876 -0.1684  0.1605
17158W        W32289   5.907   1.770   4.376  0.1499 -0.4440  0.3359
17159W        W32290   0.208   0.663   1.216 -0.1229  0.0145 -0.4548
17160W        W32291  11.961   2.859   0.011 -0.2616 -0.2689  0.4874
17161W        W32292   6.537   9.646  15.601 -0.1537 -0.4074 -0.1986
17162W        W32293   1.948   1.350  14.558 -0.1672 -0.1514  0.1488
17163W        W32294  17.319  14.293   2.104 -0.1301  0.0948 -0.2567
17164W        W32295  11.974  13.459   2.985 -0.0489 -0.2970 -0.2497
17165W        W32296   8.905  15.301   1.245 -0.2189 -0.3651  0.0023
17166W        W32297  17.799   6.415   4.133 -0.0190 -0.1003  0.0165
17167W        W32298  17.434   4.702  13.388 -0.0212 -0.0830  0.2108
17168W        W32299  10.165   9.843   4.393  0.0250  0.1530  0.3234
17169W        W32300   3.000  13.449  12.388  0.2342 -0.1333 -0.2781
17170W        W32301  16.880   5.066   1.438 -0.3023  0.0551  0.4624
17171W        W32302   0.070  16.691  15.146 -0.1867 -0.1403 -0.1262
17172W        W32303  15.290  11.963  10.489 -0.0016 -0.6236  0.0125
17173W        W32304  12.166   4.631   1.350 -0.3730  0.1948  0.0450
17174W        W32305   5.665  12.888  11.783  0.1091  0.2048 -0.1646
17175W        W32306   1.972  13.028  11.272  0.2476 -0.0012  0.0379
17176W        W32307   4.393   5.624   4.874  0.1778 -0.1194  0.0612
17177W        W32308  17.464  15.246  12.197  0.1539  0.3908  0.0653
17178W        W32309   0.482   9.599  12.680  0.0687  0.0215  0.1558
17179W        W32310   7.669   7.853   4.505  0.0765 -0.0906  0.4214
17180W        W32311   6.262   9.571  14.032  0.2536 -0.2401  0.1346
17181W        W32312   6.797  10.077  11.187  0.2194 -0.1987 -0.0042
17182W        W32313  12.859  15.158  14.491 -0.1744  0.2842  0.1770
17183W        W32314  12.488   9.511  12.633  0.1031  0.1228  0.1585
17184W        W32315   4.967  13.386  14.848 -0.0489 -0.0560  0.1892
17185W        W32316  11.687   3.220  15.638 -0.1299 -0.0245  0.1546
17186W        W32317   7.694   3.058  13.875  0.1525 -0.0584 -0.2815
17187W        W32318  15.422  12.392   1.048  0.1262  0.1454 -0.0952
17188W        W32319   2.616   9.636  11.661 -0.1757  0.1421 -0.1445
17189W        W32320  15.754   9.549   1.990  0.4200 -0.1896  0.0863
17190W        W32321   1.261   2.195  11.596  0.1813 -0.3894  0.1064
17191W        W32322   6.569   7.925   1.238  0.2050  0.1877 -0.0063
17192W        W32323  13.096  11.539   5.262  0.1489  0.2197  0.0984
17193W        W32324   3.456  16.465  13.974 -0.1834  0.3270 -0.0511
17194W        W32325  12.938   9.996   5.425  0.0164  0.0079  0.0621
17195W        W32326   9.615   7.342  13.109 -0.3775 -0.2513 -0.0156
17196W        W32327  12.999   7.348   4.243  0.1825  0.4171 -0.0489
17197W        W32328  12.432   0.045  13.923  0.0588  0.0750  0.0428
17198W        W32329   5.762   9.549   0.526 -0.2581  0.0323  0.0823
17199W        W32330  12.244   6.211  11.920 -0.1954  0.2514  0.1303
17200W        W32331  14.092   0.314   1.160 -0.0451  0.0242 -0.0708
17201W        W32332   8.056  14.175  12.511  0.2732  0.0545 -0.1856
17202W        W32333   0.519  14.025  14.479 -0.0908  0.2158  0.1681
17203W        W32334  17.516  15.365   4.092 -0.1291  0.2394  0.0559
17204W        W32335   9.702   7.444  14.876 -0.0494  0.0241  0.0366
17205W        W32336  11.251  11.453   5.215 -0.0966  0.0097  0.1481
17206W        W32337  16.926   0.529  12.584 -0.1188  0.1010  0.0054
17207W        W32338   4.332   4.712  13.994 -0.2185  0.1160 -0.1056
17208W        W32339   8.854  15.041  12.646 -0.1120  0.2005  0.1618
17209W        W32340   1.329  17.598  12.611  0.0878 -0.0653 -0.0701
17210W        W32341  18.278  10.958   1.768  0.0432 -0.3415 -0.0289
17211W        W32342   9.961   1.949   3.986  0.0337  0.1282 -0.1151
17212W        W32343  15.608  13.779  14.074 -0.0167  0.2234 -0.5078
17213W        W32344   6.289  13.566   2.579  0.3223  0.2214  0.0425
17214W        W32345  13.351   1.709  12.613  0.1447  0.3036 -0.0391
17215W        W32346  17.692   0.747   4.514 -0.0260 -0.0145  0.0769
17216W        W32347   4.751   1.538  13.892 -0.2455 -0.0346  0.0759
17217W        W32348   2.285  10.998  15.375 -0.2034  0.1469  0.4397
17218W        W32349   0.634  11.426   4.433  0.1713 -0.1473 -0.1233
17219W        W32350   0.600  12.638  11.183 -0.1491  0.1622  0.2266
17220W        W32351   6.063   5.526   3.349  0.1772  0.4252  0.0026
17221W        W32352   8.294  17.704   2.752 -0.1529  0.0717  0.5328
17222W        W32353  14.370  11.903   0.243  0.1239  0.0749 -0.3697
17223W        W32354   9.747  16.298  13.649  0.1190  0.3490  0.3250
17224W        W32355  14.303  12.344   3.669 -0.0210 -0.3740  0.0908
17225W        W32356   2.329   5.432  13.208 -0.2071  0.0369 -0.1492
17226W        W32357  13.085   8.190  13.225  0.0458  0.2183  0.0097
17227W        W32358   0.810   6.992   0.997  0.0525  0.1698 -0.0850
17228W        W32359  12.633   9.544  10.083 -0.0721 -0.4316  0.0288
17229W        W32360  10.927   3.747   4.755 -0.0063 -0.4256  0.1497
17230W        W32361  17.802   4.436   0.581 -0.2618  0.0626 -0.0441
17231W        W32362   4.744   2.175   5.378  0.1163 -0.1363  0.0801
17232W        W32363   0.998  13.086  11.851 -0.2355  0.4237  0.0467
17233W        W32364  17.228  16.597   3.322 -0.1990  0.1555  0.2557
17234W        W32365  16.633  18.118   2.029  0.3726 -0.1805  0.1336
17235W        W32366   9.046   0.170   3.101 -0.0191 -0.1236  0.1424
17236W        W32367   4.960   2.130   1.078  0.1525  0.2049 -0.0418
17237W        W32368   2.006  10.981  13.080 -0.0233 -0.0621 -0.2830
17238W        W32369  16.138   3.565   4.244 -0.0643  0.1160 -0.4571
17239W        W32370   6.415   9.832   1.318  0.0904  0.2878 -0.1817
17240W        W32371   2.793  12.536  12.248 -0.1059 -0.4702  0.2430
17241W        W32372   5.440   6.516   2.040  0.0484  0.2088  0.2207
17242W        W32373  17.729   5.632   2.403 -0.1417  0.0432  0.0608
17243W        W32374   2.787   4.626  15.118  0.2056 -0.4166 -0.1404
17244W        W32375   0.368   2.954   0.736 -0.1160 -0.1097 -0.2549
17245W        W32376   7.883  15.024   1.301 -0.0626  0.0679 -0.0512
17246W        W32377  12.632  15.431   0.864 -0.1019 -0.1363 -0.2692
17247W        W32378  15.718  12.845  13.413  0.3742  0.2545 -0.2168
17248W        W32379   5.414  16.094   4.125 -0.0579  0.2392 -0.2742
17249W        W32380   3.931   6.719   1.790  0.0302 -0.1095 -0.1674
17250W        W32381   5.319   2.903  13.645  0.0810 -0.1808 -0.0639
17251W        W32382  14.489   6.063  11.477  0.0110  0.1475  0.2724
17252W        W32383   6.625   3.103   2.102  0.0634 -0.3688  0.1169
17253W        W32384  13.886   6.178  12.812  0.2584  0.2052  0.0116
17254W        W32385   1.761  14.051  13.529  0.2520 -0.1356 -0.0828
17255W        W32386   0.175  17.674  11.086 -0.0448  0.0487 -0.3638
17256W        W32387   8.744  12.403  14.650 -0.0737  0.0889  0.0210
17257W        W32388  17.556  14.740   1.916  0.0297  0.0491  0.0808
17258W        W32389   7.224   7.814   2.056 -0.2297 -0.1367 -0.0482
17259W        W32390   4.652   0.923   1.314  0.0189 -0.2523  0.3681
17260W        W32391  10.323   3.151  14.162  0.1602  0.0483 -0.3282
17261W        W32392   9.646   6.996  11.641  0.3064  0.4216  0.2791
17262W        W32393   1.600  10.082   2.966 -0.0165 -0.3885  0.1519
17263W        W32394   0.846  16.638   2.081  0.2904 -0.1838 -0.0214
17264W        W32395   9.539   1.535   3.315 -0.0763  0.0578  0.2860
17265W        W32396   3.869  15.411  13.601 -0.2805 -0.0337  0.0330
17266W        W32397   7.796  14.349   4.525 -0.0394 -0.1330 -0.4267
17267W        W32398  13.205   5.512  13.880  0.1132 -0.3767  0.0356
17268W        W32399  16.326   7.037  12.325 -0.0554  0.2608  0.0687
17269W        W32400  17.239  14.443  12.218  0.0788  0.1390 -0.0458
17270W        W32401   3.383  17.397  11.867  0.6069 -0.2276  0.2359
17271W        W32402   1.746   9.746  15.889 -0.0670  0.1526  0.0302
17272W        W32403   3.978  13.893  10.340  0.2088  0.1476  0.0020
17273W        W32404  10.679  18.030  14.351  0.0853  0.0157 -0.1415
17274W        W32405   5.266   8.669   5.282  0.0686 -0.2418 -0.2010
17275W        W32406   3.241   2.602   4.354 -0.0255 -0.1081 -0.0245
17276W        W32407   9.280   0.362  11.920  0.0098  0.1073 -0.0050
17277W        W32408  10.168  10.561   2.668  0.3761 -0.0179  0.2421
17278W        W32409  13.116  15.100  14.044  0.2060  0.1069  0.0623
17279W        W32410   0.198  10.940  10.562  0.0962  0.1147  0.0405
17280W        W32411  10.957   5.200  11.200  0.0314 -0.0175  0.1255
17281W        W32412   3.260   7.980   3.063  0.0985  0.2006 -0.0703
17282W        W32413  13.709  11.651   1.403 -0.0401 -0.1986  0.1225
17283W        W32414  16.192   8.430   5.332 -0.1455  0.0335 -0.0004
17284W        W32415  12.014   6.792   1.778 -0.2508  0.3146 -0.1656
17285W        W32416   5.072   4.456  12.484  0.6169  0.1645  0.2729
17286W        W32417  11.838  10.986  12.607 -0.1339  0.3672 -0.0633
17287W        W32418   6.325  16.506  13.662  0.1438 -0.0690 -0.0193
17288W        W32419   4.382   9.750  15.900 -0.0347 -0.1210  0.0141
17289W        W32420  11.845   4.942  14.779  0.0146 -0.2043  0.0433
17290W        W32421   0.588   8.375   1.482 -0.0532  0.0298  0.0977
17291W        W32422   6.214   5.408   1.395 -0.1976  0.2300 -0.0097
17292W        W32423  16.040  14.391   2.724  0.3377 -0.1421  0.4463
17293W        W32424   3.309  18.353  10.476 -0.1761 -0.0694 -0.1003
17294W        W32425  14.186   5.951  13.131  0.1970 -0.2899  0.2374
17295W        W32426   9.018  15.444  11.177  0.2449  0.1589 -0.1712
17296W        W32427   3.306   0.668  12.455 -0.5667  0.0299 -0.1877
17297W        W32428   0.282   4.328   1.521  0.2294 -0.1077 -0.2858
17298W        W32429  10.247  10.662   3.697  0.0690  0.0033  0.2321
17299W        W32430  16.543  13.965   4.319 -0.0161  0.2323 -0.1678
17300W        W32431  18.503  14.899   4.336  0.3181  0.1302 -0.3080
17301W        W32432   1.494   4.587   2.890 -0.0724  0.1452  0.0999
17302W        W32433   8.723   0.824   0.428  0.1588 -0.3510  0.1539
17303W        W32434  18.346  11.354  15.828 -0.1568  0.1083  0.3006
17304W        W32435   8.740  10.500   0.322  0.1603  0.3614  0.0430
17305W        W32436   2.043  11.142  14.585  0.0035  0.2110 -0.3388
17306W        W32437   0.002  13.773   5.287 -0.1917 -0.0192  0.1208
17307W        W32438   8.755   3.503   2.429 -0.0419  0.2445 -0.1432
17308W        W32439  14.478  15.439   1.917 -0.1828 -0.1480  0.0196
17309W        W32440   1.508   8.361   0.147  0.1552  0.0850  0.3233
17310W        W32441  12.750   2.010   3.983  0.0550 -0.0287 -0.0401
17311W        W32442   4.424  15.163  15.330  0.2664  0.1895  0.3096
17312W        W32443   9.716   2.734  13.660  0.0485  0.1385  0.0820
17313W        W32444   1.835   8.411   5.101  0.3187 -0.1177 -0.1467
17314W        W32445   1.252  13.438  15.067 -0.1916  0.0228  0.0134
17315W        W32446   9.106  15.583  12.381 -0.3404 -0.0224  0.0367
17316W        W32447  10.532  10.448   3.234  0.0344 -0.0374 -0.0742
17317W        W32448   9.553  17.031   2.240 -0.3625 -0.3886  0.2113
17318W        W32449   9.744  12.141  14.793 -0.1579 -0.0260 -0.2765
17319W        W32450   1.862   8.063  13.917  0.3077 -0.0378  0.0086
17320W        W32451  14.682   8.861   1.059 -0.0103  0.1819 -0.1432
17321W        W32452   0.119  12.778  12.203 -0.2598  0.0100  0.4395
17322W        W32453   0.909   2.220   0.058 -0.0868  0.0923 -0.1953
17323W        W32454  14.586  11.816   3.372  0.0683  0.0403  0.0913
17324W        W32455  16.104   6.636   4.610  0.2221 -0.3318  0.0653
17325W        W32456  10.998   7.083  15.150  0.0985 -0.1446 -0.0346
17326W        W32457  15.757  10.583   3.411 -0.1506 -0.2514  0.0281
17327W        W32458  11.335  16.266   0.104 -0.0136  0.0497 -0.0556
17328W        W32459   9.310   4.372   1.896  0.0748  0.1761 -0.1624
17329W        W32460  11.593   2.182  14.625 -0.0069 -0.1540 -0.0066
17330W        W32461   9.057  15.430   3.852 -0.0918 -0.0005  0.0480
17331W        W32462   9.091  13.841  10.424  0.1890  0.2983 -0.2137
17332W        W32463  15.315   1.753   1.475 -0.1268  0.1973  0.0883
17333W        W32464   1.597  14.851  12.732  0.0394  0.0196  0.0869
17334W        W32465  18.061   4.114   1.945  0.2779  0.1462  0.1650
17335W        W32466  11.119  17.906   3.986  0.0969  0.1430  0.0485
17336W        W32467   8.255  17.050   4.143  0.1252  0.3243 -0.1002
17337W        W32468  14.847   2.918   3.193  0.1173  0.1200 -0.3376
17338W        W32469   6.158  17.546   4.279 -0.1196  0.1138 -0.1209
17339W        W32470  11.017   0.672   4.562  0.0709 -0.1625  0.0883
17340W        W32471   9.657   6.243  10.988 -0.2438 -0.0800  0.2392
17341W        W32472   7.910   8.945   2.661  0.2020 -0.1391  0.3592
17342W        W32473  15.616   5.688   3.248  0.0146  0.0067  0.0986
17343W        W32474   1.204  14.233   3.957  0.1903 -0.1353 -0.0724
17344W        W32475   8.772   6.142   5.036 -0.1521 -0.3507  0.1753
17345W        W32476   1.286  14.243  14.587  0.0630 -0.1295 -0.0787
17346W        W32477  13.799   2.596  13.076 -0.1710 -0.2368  0.1751
17347W        W32478  12.427  16.844  14.261 -0.0059  0.0822 -0.2320
17348W        W32479   3.267  11.259  15.886 -0.1949  0.1498 -0.1182
17349W        W32480  10.058  11.144   4.729  0.2425  0.6434  0.1097
17350W        W32481  18.452   3.759  15.616  0.0912  0.0127  0.2379
17351W        W32482  14.318  16.778   1.319 -0.0166  0.1840 -0.1572
17352W        W32483   0.903   0.394   2.966  0.1771  0.1235  0.0703
17353W        W32484  17.489  17.719  11.311  0.0751  0.0087 -0.0526
17354W        W32485   5.466   6.636  14.385  0.2675  0.0967 -0.1756
17355W        W32486   4.805  15.592  13.681  0.1023 -0.0340  0.1841
17356W        W32487  13.835   5.982  12.227  0.1869 -0.1996 -0.2820
17357W        W32488   8.120  13.329  12.313 -0.0862 -0.1991 -0.0176
17358W        W32489   4.439  12.606  13.682 -0.2148 -0.2296 -0.2647
17359W        W32490  13.629   2.186  10.087 -0.1083  0.1667  0.0117
17360W        W32491   5.576   2.056   4.053 -0.0811 -0.0744  0.2281
17361W        W32492   1.072   0.597   1.252 -0.2013 -0.0459 -0.1508
17362W        W32493  16.722  13.467   4.200 -0.1436  0.2072  0.2680
17363W        W32494   1.480   3.412   0.282  0.1716 -0.0025  0.1879
17364W        W32495   8.950   6.224  13.853 -0.5914  0.0850  0.4146
17365W        W32496  18.524   6.540   2.811 -0.2880 -0.0897  0.2290
17366W        W32497  12.266   9.263   5.344  0.0843 -0.0605  0.2572
17367W        W32498  11.038  11.827  14.734 -0.3722  0.2511 -0.0576
17368W        W32499   7.169  14.156  13.769 -0.1417 -0.1707 -0.0674
17369W        W32500   7.173   1.441  15.451  0.6176  0.0995 -0.1948
17370W        W32501   6.016  17.994   4.131  0.4667 -0.0798 -0.1728
17371W        W32502   9.014  10.009  10.704 -0.1504 -0.0262  0.2631
17372W        W32503  10.965  14.952  15.022  0.0134  0.2721  0.1535
17373W        W32504   3.707   1.524   1.876  0.1393 -0.0517  0.3550
17374W        W32505   6.229   2.361  11.295  0.0815  0.0705 -0.0984
17375W        W32506   9.323  10.700  15.351  0.0763  0.3144  0.1462
17376W        W32507   1.017   7.052   3.317  0.0671 -0.2618 -0.0260
17377W        W32508  10.344   4.623   4.585  0.2208 -0.1150  0.2287
17378W        W32509  10.572  17.692   1.598  0.4099 -0.0733  0.1586
17379W        W32510   2.400  18.415   2.553 -0.1538  0.1230  0.1342
17380W        W32511  10.786  17.101  15.798 -0.3851  0.3596  0.1067
17381W        W32512   4.408   3.456  13.141 -0.0991 -0.0815 -0.1980
17382W        W32513   2.234  15.417   1.783  0.0601 -0.1891  0.3513
17383W        W32514  10.897  18.229  14.694  0.1602  0.3406 -0.0196
17384W        W32515   9.716   0.243  15.939 -0.0336  0.1471 -0.0470
17385W        W32516  11.061  13.681  12.246  0.3170  0.3729  0.0499
17386W        W32517  14.146   4.880   3.223  0.3799 -0.0392 -0.0947
17387W        W32518  10.312   1.908   3.298 -0.0349 -0.1307 -0.0696
17388W        W32519   3.099  16.065   2.681 -0.1011  0.0895 -0.0419
17389W        W32520   8.461  15.779  13.819  0.1452  0.1894 -0.3753
17390W        W32521  15.635   0.499  14.719  0.3072  0.4636 -0.1255
17391W        W32522  10.460   9.886   0.071  0.1326  0.0722 -0.0666
17392W        W32523   8.254  17.673   0.667 -0.0185  0.2292 -0.0755
17393W        W32524   4.925  16.882   9.950  0.0714 -0.0094  0.0685
17394W        W32525  17.077   4.050   2.325 -0.0911  0.2380 -0.1886
17395W        W32526  14.067  14.163  15.825  0.0548 -0.2772 -0.1932
17396W        W32527   6.280   0.609   1.505 -0.0935 -0.2221  0.2076
17397W        W32528   6.699   8.031   0.816  0.0025 -0.1686  0.0737
17398W        W32529   9.257   0.316   1.285  0.0487  0.2823  0.0692
17399W        W32530   2.941   4.019  14.168 -0.3540 -0.2268  0.0611
17400W        W32531   5.130   3.725  11.741 -0.0909  0.0358 -0.2161
17401W        W32532   1.019  18.415  12.000 -0.1990  0.1865  0.1193
17402W        W32533  17.724   0.388   4.817  0.1283 -0.1664 -0.2306
17403W        W32534  12.744   3.773   2.614 -0.0958 -0.1692  0.0645
17404W        W32535  15.011  12.676  11.638 -0.3032 -0.2684 -0.1457
17405W        W32536  16.399  12.199  13.289 -0.1707 -0.1441  0.3070
17406W        W32537   0.809  12.116   4.713  0.2689 -0.0167  0.1768
17407W        W32538  10.915   2.041  13.902 -0.2077 -0.2972  0.1070
17408W        W32539   9.216  18.195  15.312 -0.2076 -0.1889  0.0480
17409W        W32540   6.262   8.431  12.837  0.2399  0.1048 -0.1190
17410W        W32541   9.369   6.983  15.560 -0.0558 -0.2881  0.5731
17411W        W32542   2.831   0.081   2.486 -0.2258  0.2199 -0.0535
17412W        W32543  14.595  11.686  15.304 -0.0062  0.0328 -0.0958
17413W        W32544   2.040   2.917  14.831 -0.2943  0.2582  0.5455
17414W        W32545  11.471   2.838   2.702 -0.0175 -0.4812  0.2964
17415W        W32546   1.356  14.749   3.528  0.0998  0.0306 -0.0196
17416W        W32547  15.465  11.578  10.193 -0.0352  0.0229 -0.1154
17417W        W32548   2.243  11.879   2.714  0.1838 -0.2269  0.2882
17418W        W32549   3.116   3.921  11.787 -0.1288 -0.0685  0.0110
17419W        W32550   0.687   8.860  14.913  0.0548  0.0497  0.0664
17420W        W32551  15.833  16.920   1.920 -0.1363 -0.0142  0.1999
17421W        W32552  10.873   5.485   0.985  0.0128  0.0023 -0.1253
17422W        W32553   5.120  14.004  10.341  0.1034  0.2163  0.1048
17423W        W32554  12.445  15.049   0.449 -0.0216 -0.0872  0.2381
17424W        W32555  15.176  10.179   1.417  0.1788 -0.1828 -0.2233
17425W        W32556  14.839  17.812   3.320 -0.0801 -0.1774  0.0378
17426W        W32557  17.772   8.167  13.744 -0.0736  0.1221  0.0297
17427W        W32558   2.338   6.796  15.457 -0.2130  0.1449  0.1230
17428W        W32559  16.063   6.619   5.095 -0.0839 -0.2807 -0.0453
17429W        W32560   0.188   2.167  14.746  0.1057  0.2359  0.1424
17430W        W32561   6.191   0.340   0.004 -0.4797  0.2951  0.0797
17431W        W32562   3.075   3.148  12.176 -0.0696  0.1391 -0.3729
17432W        W32563  17.160   8.201   2.892  0.0435 -0.1258  0.2270
17433W        W32564   6.719  12.566  15.726  0.0110  0.1527  0.2463
17434W        W32565  13.370   4.495   4.495 -0.1621 -0.2256  0.0991
17435W        W32566   1.052   4.569   2.086 -0.0336 -0.1729 -0.1648
17436W        W32567   4.479   9.065  13.385  0.0757  0.1308  0.0844
17437W        W32568  14.988  14.624   3.969 -0.3807 -0.4520 -0.0222
17438W        W32569  11.092  12.837   4.545 -0.2982  0.1184  0.0519
17439W        W32570  16.410   6.072  12.633 -0.0132 -0.2219  0.1480
17440W        W32571   0.440  11.409  10.602 -0.0552  0.1564 -0.1567
17441W        W32572   5.870  13.570  15.821  0.0589 -0.2776  0.4566
17442W        W32573   8.010  16.745  11.512  0.0940  0.1400  0.1478
17443W        W32574   8.570   5.415  14.064 -0.2364  0.2421 -0.0845
17444W        W32575  13.348  13.957  11.918 -0.0671  0.2289 -0.2533
17445W        W32576   2.160  15.954   5.948 -0.2506 -0.1216 -0.1847
17446W        W32577   6.903   2.339   0.832 -0.0329  0.1323  0.1654
17447W        W32578  17.479  16.818   1.833 -0.2058  0.1487 -0.2612
17448W        W32579  14.115   5.338   5.228 -0.2283  0.1475  0.1319
17449W        W32580  14.335  13.039   6.000  0.0923  0.3699  0.4328
17450W        W32581  13.375   6.912   3.580 -0.1987 -0.3231 -0.3845
17451W        W32582   0.253   1.868   2.959  0.1528  0.1057 -0.0356
17452W        W32583   7.026   1.206  15.014 -0.1163 -0.2316 -0.3089
17453W        W32584   1.447   6.536   0.620  0.0184  0.2103 -0.0367
17454W        W32585  10.489   4.369   0.232  0.0125  0.0154 -0.0740
17455W        W32586   2.056  12.377   3.346 -0.0301  0.1567  0.0527
17456W        W32587  15.385  12.284   3.119  0.0773 -0.0592  0.0728
17457W        W32588  16.533  13.183   0.171 -0.1543 -0.0628 -0.0239
17458W        W32589   9.921   5.590   3.338  0.1072  0.1126 -0.1803
17459W        W32590  13.551  17.110  15.908  0.3539 -0.2938 -0.2702
17460W        W32591   3.613  13.245   3.256  0.1786 -0.2779 -0.0682
17461W        W32592  12.095  16.781  12.413  0.1557 -0.0352 -0.3323
17462W        W32593   9.018   6.128  10.918 -0.1378 -0.1021  0.1456
17463W        W32594  12.852  13.367  11.616  0.1275  0.2036  0.2388
17464W        W32595   6.439  17.103   4.223 -0.0660  0.2517  0.1685
17465W        W32596   2.209  10.941   1.915 -0.0424 -0.2405  0.2195
17466W        W32597   0.963  15.802  13.853  0.1208  0.1334  0.0955
17467W        W32598  17.956   3.073  14.309  0.3751  0.1246 -0.3720
17468W        W32599  10.449  13.045  10.657  0.0654  0.4009 -0.5866
17469W        W32600   0.313  17.810   5.813 -0.4567 -0.0971 -0.1206
17470W        W32601   2.264   3.898   2.667 -0.1377 -0.1371  0.0002
17471W        W32602   2.445   6.270   2.871 -0.1385  0.4465  0.1431
17472W        W32603  18.280  15.273   4.087 -0.1086 -0.0911  0.0499
17473W        W32604   2.641  16.166   0.805  0.1806  0.3229  0.3691
17474W        W32605  15.109   6.635  15.180  0.1266  0.1362  0.1980
17475W        W32606  17.423  10.184  13.975 -0.1801 -0.4513 -0.0426
17476W        W32607   5.623   1.965  13.577 -0.0883  0.1374 -0.1476
17477W        W32608  15.994   6.428  12.762  0.1275 -0.0756  0.0002
17478W        W32609   5.364  11.181   3.106  0.1614  0.1266 -0.0653
17479W        W32610   7.050   1.092  13.106 -0.0428 -0.1487 -0.1043
17480W        W32611  13.119   4.034   0.272 -0.0318  0.2439 -0.1209
17481W        W32612   9.512  11.218  12.855  0.0295 -0.3572 -0.1654
17482W        W32613  16.407  15.733  13.195 -0.1376  0.1203  0.1548
17483W        W32614  16.070   2.654  15.081 -0.0372 -0.0518  0.2383
17484W        W32615   1.498  18.489   2.309  0.0783  0.2401 -0.0020
17485W        W32616   8.571  10.643  11.039 -0.0776 -0.0146 -0.3765
17486W        W32617  11.512  10.317  15.590  0.1388  0.2243 -0.1374
17487W        W32618   9.768   9.749   4.677  0.0221 -0.1519 -0.1320
17488W        W32619  12.414   4.738   6.047  0.2653  0.1574 -0.0941
17489W        W32620  12.756  14.783   1.116  0.0241 -0.2743 -0.0131
17490W        W32621  14.755   1.572  14.160  0.2213  0.2516 -0.2659
17491W        W32622   4.592   6.479  14.172 -0.0472 -0.0406  0.1679
17492W        W32623   9.297   8.858  10.942 -0.1698 -0.0338 -0.1101
17493W        W32624  13.781  17.375   2.644  0.3143  0.2771 -0.1250
17494W        W32625   3.589   3.660   5.070 -0.4142 -0.1111  0.0661
17495W        W32626   5.359  17.628  14.106 -0.1003 -0.1266  0.0941
17496W        W32627   3.065  13.830  13.998 -0.2374 -0.3053 -0.1358
17497W        W32628  13.869   2.078  15.617  0.0086  0.2113  0.1048
17498W        W32629   9.056   8.891  15.473  0.1978  0.0212 -0.0302
17499W        W32630  14.989  17.059  13.109  0.4204 -0.4216  0.0533
17500W        W32631  13.108   7.700  13.058 -0.0368  0.0421  0.1119
17501W        W32632  18.016   1.642   1.433  0.2728  0.0428 -0.2985
17502W        W32633  16.744   8.125  15.944 -0.2060  0.2018 -0.1497
17503W        W32634   8.527   3.721   3.555  0.4044  0.0897  0.0968
17504W        W32635  14.301  18.005  11.656 -0.2189  0.2378  0.1913
17505W        W32636  16.984   3.931  15.082 -0.0084  0.1617  0.2062
17506W        W32637   1.418   4.163   4.765  0.0971 -0.2853 -0.0865
17507W        W32638   8.172  13.654   3.329 -0.0537 -0.3460  0.1231
17508W        W32639   0.859   7.582  10.961  0.2856 -0.0511 -0.0840
17509W        W32640   3.381  16.727  12.444 -0.1023  0.0248  0.4254
17510W        W32641   2.154  10.031  12.155  0.0979  0.0136  0.1083
17511W        W32642  16.780   6.115   3.210 -0.1449 -0.1995 -0.0216
17512W        W32643   4.624  10.037   1.353 -0.1675 -0.0003  0.0148
17513W        W32644   6.658  13.581   4.255 -0.1204 -0.0228 -0.4061
17514W        W32645  10.520   7.176  12.641 -0.2792 -0.5070 -0.1025
17515W        W32646  14.055   1.544   2.916 -0.4305 -0.0024  0.0278
17516W        W32647  12.760  10.738  13.004  0.0268  0.0297  0.2494
17517W        W32648   9.443   3.781  15.281  0.1399 -0.3911  0.0944
17518W        W32649   5.900   0.471  11.717 -0.2003  0.1241 -0.3958
17519W        W32650  16.862   2.851  11.486  0.0807  0.1134  0.1705
17520W        W32651   8.719  13.960   0.956  0.4938  0.2658  0.1975
17521W        W32652  15.933   1.111   5.746  0.0736 -0.0065  0.1438
17522W        W32653   1.144   0.355   2.516 -0.1029  0.0252 -0.0922
17523W        W32654  10.971   1.747  13.090  0.0192  0.1664  0.1048
17524W        W32655  12.321  14.988   0.961  0.0057 -0.2403  0.4377
17525W        W32656   0.030   5.887  14.154 -0.1920 -0.0746  0.3426
17526W        W32657   8.320  12.045  13.953  0.1252  0.1601  0.1611
17527W        W32658  11.363   6.141   5.398  0.0403 -0.0568 -0.1117
17528W        W32659  17.715  12.603   3.039  0.0214 -0.1034  0.0408
17529W        W32660   4.376  15.825  15.369  0.3369  0.0661  0.0761
17530W        W32661  18.296   3.458   0.966 -0.1395  0.2152 -0.1398
17531W        W32662   3.329   3.028  12.702 -0.0577  0.1971  0.0382
17532W        W32663  12.033  18.511  13.657  0.0129 -0.0979 -0.1019
17533W        W32664  14.584  17.268   0.304  0.1185  0.1628 -0.1001
17534W        W32665   0.376   9.190  15.117 -0.0499 -0.2323 -0.1053
17535W        W32666  10.874  12.237  14.790  0.3941 -0.3188 -0.2015
17536W        W32667   1.328  10.640   4.580 -0.1415 -0.0245 -0.1971
17537W        W32668   8.251   5.768   2.662 -0.1283  0.0173  0.0025
17538W        W32669   6.231  10.811   2.590  0.0611 -0.1333 -0.0808
17539W        W32670  15.395  18.437  12.211  0.0137 -0.0196  0.0375
17540W        W32671  14.981   6.490   1.163  0.1193  0.0661  0.0817
17541W        W32672   7.852  13.863  12.841 -0.2004  0.2727  0.2351
17542W        W32673  14.472  13.374  11.166  0.0629  0.0810 -0.2134
17543W        W32674   7.273  16.571  13.836 -0.0716  0.1770  0.3679
17544W        W32675   5.847   5.499   4.582 -0.0396  0.0150 -0.0030
17545W        W32676   3.435  15.179  11.110  0.0232 -0.2306  0.1738
17546W        W32677  10.937  11.171   3.835 -0.0338 -0.0625 -0.0441
17547W        W32678  11.290   8.572  15.190  0.0790 -0.0627 -0.1807
17548W        W32679  13.831  11.895   0.861 -0.3682  0.0477 -0.0517
17549W        W32680   5.765   8.482  11.548 -0.0949  0.2921  0.0222
17550W        W32681  14.984   9.621  15.086  0.0030  0.2695  0.2056
17551W        W32682  13.639   0.270  12.548  0.2473 -0.1813  0.2071
17552W        W32683  10.147   9.643  14.410  0.0430 -0.0496 -0.0010
17553W        W32684   7.656  14.384  12.686  0.2066  0.2166  0.0088
17554W        W32685  12.807   6.297   2.775  0.0051  0.2346 -0.0915
17555W        W32686   4.037   0.685  13.621  0.1535  0.0160 -0.3034
17556W        W32687  17.473  11.362  14.452 -0.2686 -0.0343  0.0361
17557W        W32688  17.555  10.366  11.715  0.1552  0.0076 -0.2407
17558W        W32689   6.325   4.597  15.244 -0.2087  0.2225  0.2832
17559W        W32690   8.805  18.149  15.665  0.1739  0.4452 -0.0176
17560W        W32691  16.704   1.252  13.840  0.1083 -0.2373 -0.4478
17561W        W32692   4.370  13.943  15.379 -0.2137  0.1155  0.0256
17562W        W32693  14.269   6.763  14.709  0.1430 -0.1098 -0.3028
17563W        W32694  14.684   4.403   1.519 -0.1682  0.2162  0.0388
17564W        W32695   6.955  17.681  13.315  0.1026 -0.1012 -0.1051
17565W        W32696  10.078   4.514  15.942 -0.1347  0.3303 -0.1963
17566W        W32697   0.345  11.943  12.801 -0.0793  0.2035 -0.0180
17567W        W32698  13.728   5.836   1.126  0.1093  0.1385 -0.0646
17568W        W32699   9.683  15.707  14.910  0.2122  0.1770  0.0484
17569W        W32700   1.280   9.088   3.425  0.3964 -0.0427  0.1350
17570W        W32701  13.450   6.722   4.504 -0.0118  0.1538 -0.0076
17571W        W32702   7.453   4.065  15.927  0.2622 -0.2797  0.0753
17572W        W32703   1.762   7.651   5.516  0.0864  0.0141  0.1645
17573W        W32704  15.805   2.026  10.867  0.1655 -0.1249  0.0413
17574W        W32705   4.481  10.111  12.964  0.0956  0.0522  0.0024
17575W        W32706   5.018   3.201  10.549 -0.0710 -0.0202  0.1142
17576W        W32707   7.422   5.307   2.353  0.0982 -0.3802  0.0842
17577W        W32708   5.877   4.113   1.261 -0.3767  0.0193 -0.0012
17578W        W32709  17.292  12.213  11.772 -0.1283  0.2230 -0.0747
17579W        W32710   0.347   7.556   1.776 -0.3008 -0.0723  0.1799
17580W        W32711   1.927   8.384   2.508  0.0274  0.2221 -0.1538
17581W        W32712   5.589   9.752   0.960  0.1008 -0.2814  0.4444
17582W        W32713   4.306   6.294   5.573 -0.0232  0.0472  0.1106
17583W        W32714   9.723   3.598   2.389 -0.3327 -0.0114 -0.0257
17584W        W32715  10.410  17.955  15.839 -0.2195 -0.4103 -0.2924
17585W        W32716  15.013   5.224   1.655 -0.2970 -0.3731 -0.0337
17586W        W32717  14.057   7.115  15.756  0.1350 -0.2015  0.2762
17587W        W32718  11.918  14.633  10.485  0.3078 -0.1504  0.1690
17588W        W32719   4.940   0.578   5.200  0.0231 -0.0843  0.0905
17589W        W32720   0.203   8.115   4.482  0.2187  0.0807 -0.0313
17590W        W32721   9.945  13.465   5.008 -0.1358 -0.2556  0.1637
17591W        W32722   3.448   4.190  13.373  0.1856 -0.3172  0.0612
17592W        W32723  13.972  12.745   4.356 -0.0013 -0.0404  0.1145
17593W        W32724  12.731  14.506  15.703  0.2633  0.2232 -0.1316
17594W        W32725  14.390  13.942  15.552 -0.0347  0.0736  0.0451
17595W        W32726  15.119  11.218   0.454 -0.0434  0.3601 -0.1016
17596W        W32727  14.696   9.765   0.950  0.1423 -0.1644 -0.0019
17597W        W32728  12.550   8.632   4.527  0.3410  0.2007 -0.0434
17598W        W32729  10.852   8.905  15.164  0.4774  0.0337 -0.0347
17599W        W32730   3.974   5.817   1.262  0.0866 -0.1096 -0.0933
17600W        W32731  13.241   0.752   9.994 -0.0080 -0.3101 -0.2095
17601W        W32732   4.295   0.539   4.171 -0.0584  0.0734  0.2531
17602W        W32733  10.567  12.307   4.412  0.3600  0.1133 -0.1945
17603W        W32734   7.685   7.536   4.996 -0.2881  0.1511 -0.3779
17604W        W32735   4.819  12.577   3.940  0.0155  0.1621 -0.0165
17605W        W32736  10.518   9.101  15.622  0.0962 -0.3431  0.0622
17606W        W32737   4.203   4.773   3.779 -0.4185 -0.0254  0.2662
17607W        W32738   9.163  11.386  13.883  0.1990 -0.0554 -0.2240
17608W        W32739   5.755   3.561  13.388 -0.0995 -0.0204 -0.2513
17609W        W32740   6.381  14.395   2.387 -0.0075  0.0713  0.1166
17610W        W32741  13.924  14.299   4.800 -0.1310 -0.1166 -0.4011
17611W        W32742  10.918   0.844  10.026 -0.4605  0.2145 -0.1611
17612W        W32743   1.807  10.454   4.809 -0.0161  0.0345 -0.1044
17613W        W32744   1.166   4.015   4.344 -0.0027  0.1697  0.2108
17614W        W32745  10.165  15.504   0.669 -0.1375  0.1847 -0.1166
17615W        W32746   8.087   2.445   2.528  0.0239 -0.0132  0.0666
17616W        W32747  10.331  16.769   9.699  0.0325 -0.1202  0.1948
17617W        W32748  12.884   1.794  15.665 -0.0755 -0.2472 -0.1186
17618W        W32749  13.465  13.836   1.229 -0.2419 -0.2709  0.0934
17619W        W32750   5.831   5.294  12.980  0.0318  0.1568  0.0006
17620W        W32751   7.729   5.752  12.356  0.1447 -0.2088  0.0423
17621W        W32752  12.405   2.497   3.112  0.0942  0.1693 -0.0435
17622W        W32753   5.685   1.941   5.254 -0.0582  0.1623 -0.1243
17623W        W32754   7.087  16.418   0.027  0.0719 -0.0501 -0.0934
17624W        W32755   3.497  14.680   2.457 -0.0083 -0.2742 -0.1867
17625W        W32756   0.119   5.179   4.844 -0.0218 -0.1340 -0.3841
17626W        W32757   2.762   8.661  11.390 -0.3265  0.2034  0.0155
17627W        W32758   6.124   4.061  10.553 -0.1592  0.0675 -0.1180
17628W        W32759   8.812  12.230   1.832  0.0264  0.2212  0.2696
17629W        W32760   4.852  17.806  13.840 -0.0627  0.2819  0.0304
17630W        W32761   2.139   6.819  12.668  0.1098 -0.0102 -0.3923
17631W        W32762   9.524  17.194   3.302 -0.4716  0.0327  0.0369
17632W        W32763  14.927  11.895   4.572 -0.0182  0.4512  0.1065
17633W        W32764   0.198  18.409   1.206 -0.1745  0.3741 -0.0363
17634W        W32765  14.150   6.604  15.870  0.2200 -0.2813  0.2753
17635W        W32766   3.891  18.538  14.854  0.2057  0.0082 -0.0817
17636W        W32767  13.624  17.394  13.374  0.2820  0.1524  0.0773
17637W        W32768   4.643  11.218   4.282  0.2321  0.0990  0.0813
17638W        W32769   3.305   2.719  11.239  0.0188  0.0047 -0.0529
17639W        W32770   3.279  12.882   3.143 -0.1133  0.0149 -0.2594
17640W        W32771   8.871  16.933  12.293  0.4012  0.0659 -0.1049
17641W        W32772   5.628   5.239   3.433 -0.4501 -0.1784 -0.2269
17642W        W32773   8.247   1.279  11.406  0.0646  0.1313  0.1029
17643W        W32774   4.966   2.603   0.797 -0.0397 -0.1002  0.0404
17644W        W32775   6.639  18.318   9.739 -0.4934  0.0183  0.1404
17645W        W32776  14.137  17.230   0.166  0.2324 -0.1166 -0.1381
17646W        W32777  10.326  16.505   2.739 -0.0924 -0.2200  0.0092
17647W        W32778   8.049  18.540  14.665 -0.0128  0.1560  0.0915
17648W        W32779  17.717   9.431  14.386 -0.0327 -0.0438 -0.1893
17649W        W32780  12.615  10.237   3.142 -0.0896  0.4992 -0.2846
17650W        W32781   5.790  14.365  10.767 -0.0067 -0.0762 -0.0484
17651W        W32782   4.332  12.060   0.349 -0.0422  0.0344 -0.1589
17652W        W32783   8.592  14.184  15.633  0.2347  0.1147 -0.0500
17653W        W32784  14.491   0.190  12.192 -0.1366 -0.0699  0.2158
17654W        W32785  11.745  13.996   2.903  0.0454 -0.1227 -0.0848
17655W        W32786  13.727  13.485   5.259  0.1770  0.0683 -0.1073
17656W        W32787   2.902  18.174   4.566 -0.5703 -0.0001  0.1792
17657W        W32788  10.026   1.736  14.446 -0.1659  0.0244 -0.1438
17658W        W32789   0.022  15.086  11.235 -0.0448  0.0498  0.2857
17659W        W32790   2.834  16.531  11.775  0.3102  0.0725 -0.1371
17660W        W32791   8.790   8.726   2.798 -0.2060 -0.2159  0.1490
17661W        W32792  13.790  15.569   3.473 -0.1109 -0.2084 -0.1695
17662W        W32793  10.169   2.559   4.568 -0.1229 -0.0626  0.1086
17663W        W32794  11.039  12.710  12.188 -0.1277 -0.1392 -0.5522
17664W        W32795   8.893  15.455  12.925  0.1377 -0.0766  0.0412
17665W        W32796  17.963  18.423  15.237  0.1751  0.0634  0.0621
17666W        W32797   0.076   7.631  15.750 -0.0212 -0.0326  0.3940
17667W        W32798   7.486   9.742   2.310  0.0144 -0.1114 -0.0530
17668W        W32799  15.748  12.500   0.157 -0.0914  0.3152  0.5187
17669W        W32800  13.687  12.270   0.513  0.0255  0.2224 -0.2023
17670W        W32801  16.125  16.910   2.323  0.2016 -0.0968  0.1747
17671W        W32802   6.360  17.666  14.834 -0.1231 -0.2101  0.0053
17672W        W32803   4.705   3.805   3.964  0.1425  0.0308 -0.0964
17673W        W32804  10.290   7.207   1.165 -0.0827  0.1857 -0.1309
17674W        W32805  10.890  13.759  14.227  0.2307  0.1546  0.0917
17675W        W32806  15.070  12.157  15.874 -0.2472  0.3030 -0.1269
17676W        W32807   4.853  13.198  15.854  0.0695 -0.2320 -0.3090
17677W        W32808   7.314  11.050  12.681 -0.0798  0.4512  0.0601
17678W        W32809   9.540   8.599  15.658 -0.1173 -0.1392  0.0686
17679W        W32810  15.882  16.302  14.321  0.1241  0.0633  0.2332
17680W        W32811  10.038   9.806   3.890 -0.3313 -0.2697 -0.0663
17681W        W32812   2.314  10.708   9.906  0.0979  0.0066 -0.2932
17682W        W32813  17.038   1.631   3.088  0.0774  0.0145 -0.1157
17683W        W32814  11.833   7.281  15.414 -0.2367 -0.1189 -0.0633
17684W        W32815   1.413   5.837   0.491 -0.2899 -0.3990 -0.2268
17685W        W32816  17.396   1.595   4.117 -0.0076  0.1887 -0.2020
17686W        W32817  11.350  13.603  14.849  0.2549  0.2989  0.4201
17687W        W32818   7.365   1.524  13.036  0.1285  0.2545 -0.1705
17688W        W32819  14.553  13.587  14.646  0.2690 -0.2913  0.0843
17689W        W32820  13.828  12.320  15.199  0.1162  0.0290 -0.0088
17690W        W32821   8.462  17.971  13.493 -0.2004  0.1822 -0.1098
17691W        W32822  12.404  15.220  13.007 -0.0383 -0.1592 -0.0706
17692W        W32823   4.404  17.285  15.357  0.2157 -0.2090  0.1004
17693W        W32824  14.095  12.809   3.860  0.1431  0.2783  0.1521
17694W        W32825  15.346   5.464  14.527 -0.2476 -0.0499 -0.0060
17695W        W32826  18.562   9.610   0.499 -0.0473 -0.3504  0.0188
17696W        W32827  14.046   6.698   1.404  0.0675  0.2237  0.0696
17697W        W32828   9.230   5.144   3.158 -0.0903  0.0697 -0.1385
17698W        W32829  14.366  16.015  11.874 -0.3715 -0.0126 -0.4405
17699W        W32830   2.178  17.869  12.010 -0.2030  0.2720  0.1133
17700W        W32831   7.665   4.901  11.750  0.1844  0.1006  0.2592
17701W        W32832   8.654  11.821   1.631  0.0076 -0.3361  0.3300
17702W        W32833   7.446   0.759   0.952 -0.1527  0.0078 -0.1153
17703W        W32834  14.156  16.216   4.323 -0.0051  0.3026  0.0390
17704W        W32835   6.505  18.060  13.580  0.0665 -0.2479  0.2003
17705W        W32836  17.023  18.144  14.755  0.0215  0.0407  0.4127
17706W        W32837   1.990   6.562   2.179  0.2546  0.0927 -0.0112
17707W        W32838   4.848  14.339  14.740  0.2077  0.0228  0.0336
17708W        W32839   5.059   9.279  15.492 -0.0952 -0.2314  0.0846
17709W        W32840   7.293   1.931   5.653  0.0679  0.0502  0.0691
17710W        W32841   9.984  13.848   1.686  0.2239  0.2737 -0.2049
17711W        W32842  14.224  16.374  14.227  0.1192 -0.1587 -0.0907
17712W        W32843  10.019  12.597   2.994  0.0933  0.1861  0.2523
17713W        W32844  10.133   1.128   2.809  0.2234 -0.0347  0.0914
17714W        W32845   8.193   8.195  12.224  0.1348  0.0567 -0.1338
17715W        W32846  13.691   7.573  10.927  0.1622 -0.2682 -0.0237
17716W        W32847  18.104   2.426   0.650  0.0090  0.1472 -0.1129
17717W        W32848   9.860   3.572   1.252 -0.1547 -0.2351 -0.1750
17718W        W32849  11.392  14.042  15.054 -0.1639  0.2116  0.0465
17719W        W32850  11.700   9.585  12.420 -0.2827 -0.3656  0.0077
17720W        W32851   4.729  15.146  11.105  0.1227  0.1281  0.0989
17721W        W32852  10.098   4.326   2.109  0.1735  0.1263  0.2538
17722W        W32853   9.877   6.414  12.359 -0.6690 -0.0291  0.1583
17723W        W32854   0.542   4.632   3.716 -0.2846  0.1859  0.0807
17724W        W32855  17.679  12.194   2.613  0.3064  0.0813  0.1672
17725W        W32856  11.025   9.588  10.812  0.3369  0.1164  0.1304
17726W        W32857   8.548  11.005  15.520 -0.2795  0.0864 -0.3818
17727W        W32858   9.589  14.703  10.046  0.4678 -0.3125  0.2029
17728W        W32859  13.628   6.169   4.836 -0.0295 -0.0343 -0.2611
17729W        W32860  10.325   5.889  13.590  0.0868 -0.1790  0.0726
17730W        W32861  10.201  10.346  15.831  0.0408 -0.0239 -0.1990
17731W        W32862  14.888   9.978  14.431  0.0435 -0.0840  0.0493
17732W        W32863   4.637  17.737   4.145  0.2991 -0.1012  0.0055
17733W        W32864   1.468  10.721   3.688  0.2421 -0.1046  0.2114
17734W        W32865   1.948  14.443  13.806  0.0228  0.0723  0.2413
17735W        W32866   0.731   8.542   1.046  0.2458 -0.2516 -0.1337
17736W        W32867   0.520   0.351  13.939  0.2782 -0.1090 -0.2448
17737W        W32868  17.338   4.476   0.761 -0.0456  0.1526 -0.0549
17738W        W32869   1.072   7.641  15.672  0.0037 -0.0109  0.2043
17739W        W32870  17.575  12.912  14.404  0.0233 -0.0597  0.0237
17740W        W32871   4.423   3.836   0.641  0.0147 -0.1676 -0.3355
17741W        W32872  16.284  10.164   5.432  0.0908  0.2318 -0.0358
17742W        W32873   7.891   7.445  11.792  0.1423 -0.1908 -0.0342
17743W        W32874   9.059  12.246   4.026 -0.2333  0.3330  0.0555
17744W        W32875   1.433   2.678  11.726  0.1288 -0.0949 -0.0152
17745W        W32876  14.010   8.649  11.960 -0.1832  0.1894  0.0495
17746W        W32877   0.243  10.160  13.282  0.1420  0.0201 -0.3226
17747W        W32878   0.467   3.788   2.622 -0.0855  0.0744 -0.2612
17748W        W32879  11.064   2.212   3.908  0.2517  0.2056  0.0376
17749W        W32880   7.848   2.161   0.527 -0.0078  0.1997 -0.2482
17750W        W32881  17.582   9.900   0.480  0.0655 -0.0668 -0.0081
17751W        W32882   0.445   6.042   3.751 -0.2497 -0.3994  0.2555
17752W        W32883   0.963  14.282   2.235  0.0197 -0.2866  0.3251
17753W        W32884   0.250  12.936   3.098  0.0821 -0.0248 -0.1002
17754W        W32885  15.599  18.214  14.933 -0.1798  0.0180 -0.3460
17755W        W32886   3.033   1.933  11.880  0.3934 -0.3968 -0.0751
17756W        W32887   7.892  17.376   2.890  0.2006  0.3429 -0.6355
17757W        W32888  17.550   9.497   5.561  0.0604 -0.0871 -0.2224
17758W        W32889   0.542  11.846   1.148  0.0898 -0.0831 -0.0203
17759W        W32890   0.043   7.796  13.904 -0.3551  0.0355  0.4678
17760W        W32891  13.126  11.876  14.789 -0.0309 -0.0817  0.0598
17761W        W32892   4.270   2.650  12.913 -0.0911 -0.0530 -0.3818
17762W        W32893  16.193  13.602   3.344 -0.2397 -0.0412  0.2988
17763W        W32894  14.036   0.158  13.376 -0.0738  0.0638  0.2871
17764W        W32895   1.377  11.111   0.469 -0.2376 -0.0410  0.2089
17765W        W32896  13.982  15.750  12.802  0.1492 -0.1462 -0.0541
17766W        W32897   4.137   2.303   1.429  0.1448 -0.3077 -0.2329
17767W        W32898   5.312   2.526  11.366 -0.0742  0.3530 -0.0230
17768W        W32899   8.736   7.541  10.965  0.2332  0.2840 -0.0111
17769W        W32900   0.276  14.078   3.489 -0.2422 -0.0586 -0.0581
17770W        W32901   5.823  12.685  10.711  0.0467 -0.0883 -0.0860
17771W        W32902   4.486   2.671   4.712 -0.0879  0.1485  0.0014
17772W        W32903  13.089  12.182  11.620 -0.0300 -0.1667  0.0975
17773W        W32904  16.245   4.559  12.514 -0.3819  0.1806  0.1284
17774W        W32905  14.248  12.884  11.695 -0.1243  0.1140 -0.0983
17775W        W32906  13.040  17.131   4.258  0.1060 -0.1204 -0.0460
17776W        W32907   7.735   8.990  15.769  0.0443 -0.2541 -0.1348
17777W        W32908  17.330  16.569  11.657 -0.0090  0.0417 -0.1705
17778W        W32909   0.161  17.720  14.824  0.0843  0.1613 -0.0845
17779W        W32910   6.250   2.261  13.839 -0.1021  0.1120 -0.2036
17780W        W32911  16.771   0.339  15.823 -0.1089 -0.0249  0.0593
17781W        W32912  12.372   4.185   0.859 -0.0458 -0.1500  0.4514
17782W        W32913   2.452   0.052  14.838 -0.0782 -0.1867  0.3135
17783W        W32914   8.092   1.833  13.427 -0.2170 -0.1344 -0.1223
17784W        W32915  12.301   7.824   5.291 -0.0591 -0.3187  0.1800
17785W        W32916  12.784   5.644   4.109 -0.2566 -0.3872  0.1633
17786W        W32917   6.849  16.531  12.461 -0.0392  0.1491 -0.2439
17787W        W32918   8.205  16.821   1.906  0.2193 -0.1370 -0.0665
17788W        W32919  12.853  13.571  12.708 -0.3042  0.0923  0.3810
17789W        W32920  15.169  17.683  15.008  0.0431  0.1168  0.0401
17790W        W32921   5.281  17.551  12.143 -0.2119 -0.2394  0.3141
17791W        W32922  14.743   0.664  12.460  0.1509 -0.1054 -0.0862
17792W        W32923   9.367  15.902   4.002 -0.1708 -0.3436 -0.0871
17793W        W32924  14.481  13.200   1.301 -0.0652  0.1679  0.2953
17794W        W32925   4.320  15.263   2.493  0.0046  0.2331  0.1422
17795W        W32926   6.781  14.123   3.234 -0.0799  0.0018  0.1061
17796W        W32927  11.622   8.631  13.674  0.0642  0.2147  0.3276
17797W        W32928   8.916  11.746  15.931 -0.2252  0.0413 -0.1721
17798W        W32929   2.158   8.849   3.971  0.2217 -0.2577 -0.1594
17799W        W32930   5.478   3.854   0.416 -0.2837 -0.0728  0.2907
17800W        W32931  10.063   7.198  12.892 -0.1300 -0.2862 -0.0482
17801W        W32932  10.306   9.540  13.042 -0.1163  0.1735  0.1677
17802W        W32933   0.926  15.753  15.083  0.0480 -0.1085  0.0221
17803W        W32934   4.119   8.761  15.314 -0.0395  0.3804  0.0873
17804W        W32935   6.026  11.791  14.350 -0.1058  0.2077  0.0446
17805W        W32936   5.562   7.439   3.636 -0.0017 -0.1717  0.1213
17806W        W32937   0.933   3.124   4.067 -0.0137  0.0425 -0.1728
17807W        W32938  14.306  11.360   0.598 -0.1299 -0.0703 -0.1941
17808W        W32939   3.458   8.724   4.650  0.0857 -0.2590 -0.2324
17809W        W32940  15.141   5.371  11.647 -0.0059  0.1025  0.0377
17810W        W32941  16.952  17.324  11.630 -0.1701  0.0747 -0.0900
17811W        W32942  17.962   9.081   4.505 -0.0237 -0.0647 -0.3175
17812W        W32943  10.334   7.801  14.220 -0.1203  0.0909  0.2481
17813W        W32944  10.784   1.689   0.907 -0.0611  0.1933  0.4981
17814W        W32945   7.983  16.212   0.701 -0.0285 -0.1136  0.0447
17815W        W32946  14.074  11.693   3.371 -0.0339  0.2420  0.0206
17816W        W32947  16.591  16.007   0.134  0.0086 -0.0883  0.1974
17817W        W32948   4.176   1.295  13.284  0.0207  0.1409 -0.3109
17818W        W32949   1.511  11.201   2.306 -0.1927 -0.0814  0.2829
17819W        W32950   0.783  13.059  11.294  0.0598 -0.0416 -0.2122
17820W        W32951   2.993  14.704   3.269 -0.1214  0.2724  0.0210
17821W        W32952  10.671  10.736  13.374 -0.4092 -0.4444 -0.3400
17822W        W32953  10.533   2.125   2.833 -0.1835 -0.1641  0.2613
17823W        W32954   9.812   6.369   0.392 -0.5295 -0.3388 -0.0542
17824W        W32955  12.888  18.483  11.228  0.2761 -0.0920 -0.3801
17825W        W32956  18.358  14.516   4.672 -0.0968 -0.0940 -0.3610
17826W        W32957  15.709   0.697   5.616 -0.1360 -0.1278  0.0646
17827W        W32958  17.436   7.396   5.862  0.0112  0.2366  0.1508
17828W        W32959  17.827   5.519  12.774  0.2856 -0.3031  0.3637
17829W        W32960   0.817   2.820   2.341  0.0317 -0.0652  0.1406
17830W        W32961   3.451  13.813  12.366  0.1094 -0.3986  0.1512
17831W        W32962  15.026  10.629  11.070  0.2301 -0.0633 -0.1949
17832W        W32963  10.235   3.393  15.724  0.3118 -0.1791 -0.2848
17833W        W32964   8.177  14.061   0.828  0.2349  0.1804  0.1158
17834W        W32965   9.160   4.719   0.156 -0.0762  0.0924 -0.3337
17835W        W32966  11.132  13.188   0.289 -0.3814 -0.2961 -0.0128
17836W        W32967   3.590   4.147  11.815 -0.0579 -0.0699 -0.1286
17837W        W32968   1.405   4.432   5.223  0.1984 -0.0532 -0.3541
17838W        W32969  13.122  17.465  15.915  0.0163  0.1026  0.1580
17839W        W32970   7.822  14.770   4.252 -0.1034  0.0145 -0.1472
17840W        W32971   8.133   8.081   4.633  0.0878 -0.3066  0.1275
17841W        W32972   8.627   8.004   5.816 -0.1052 -0.2628  0.0593
17842W        W32973   6.079   6.098   6.293  0.0486  0.2108  0.4280
17843W        W32974   5.407  14.705   3.299  0.3534  0.2695  0.2793
17844W        W32975   7.570   3.772   3.972  0.1807 -0.0136 -0.0633
17845W        W32976   6.398   9.937   4.338 -0.1109  0.0070 -0.0178
17846W        W32977   1.569  14.252   1.940 -0.0516  0.0015 -0.1672
17847W        W32978   7.278   2.205  15.874  0.1943 -0.0508  0.0129
17848W        W32979   0.889  16.975  12.198  0.1268  0.0342  0.0368
17849W        W32980  15.792   6.541  15.931  0.0532  0.1486  0.0330
17850W        W32981  14.604  16.132  14.884 -0.3482  0.0453  0.0132
17851W        W32982   3.230   0.430   0.847  0.1617 -0.2302  0.0120
17852W        W32983   9.112  12.029   0.958  0.2659 -0.0851  0.1983
17853W        W32984   7.507  16.283  10.455 -0.2880  0.1271 -0.3612
17854W        W32985   5.451   5.207  14.065  0.0190 -0.1324 -0.3532
17855W        W32986  11.048  14.200  13.982 -0.0131  0.0034  0.4292
17856W        W32987   1.154  14.335   1.635 -0.0439  0.2144  0.2622
17857W        W32988  11.839   6.711   3.557  0.2619 -0.0319  0.0391
17858W        W32989   8.449   1.215   5.984  0.2947  0.0266 -0.0423
17859W        W32990   9.853   7.458  15.775 -0.1677  0.2358 -0.1634
17860W        W32991   3.806   5.925  15.158 -0.1233 -0.0560 -0.1848
17861W        W32992  10.097  13.636  10.304 -0.1831  0.1141 -0.0554
17862W        W32993   7.114   2.288   1.269  0.4238  0.0810 -0.0620
17863W        W32994  10.118  13.104  13.059  0.3732 -0.0851  0.1925
17864W        W32995   9.872   1.665   9.939  0.0989 -0.0588 -0.0830
17865W        W32996   6.466   6.858  14.883  0.0894  0.0301 -0.1461
17866W        W32997  16.322   4.258  15.729  0.0640 -0.0017 -0.1679
17867W        W32998  11.311  17.606  13.439 -0.3091  0.3634  0.0753
17868W        W32999  18.074   2.121   5.414  0.2957 -0.3553  0.0896
17869W        W33000   8.262   1.737  11.347 -0.0238 -0.0827 -0.1006
17870W        W33001   7.716   7.875   2.665  0.2284  0.0075 -0.1274
17871W        W33002   6.700   4.763   4.766  0.1998  0.0272 -0.3217
17872W        W33003   5.589  17.680   3.917  0.0246  0.0283  0.2790
17873W        W33004  11.381  13.388  13.289 -0.1733  0.1680  0.1628
17874W        W33005  13.486   5.445   1.252 -0.2966  0.1385 -0.3060
17875W        W33006   9.527  10.239   4.933 -0.0189  0.2207 -0.1854
17876W        W33007  17.357  15.389   0.243  0.2935  0.1138 -0.1007
17877W        W33008   4.487   6.240  11.953 -0.2620  0.1427 -0.0919
17878W        W33009   0.041   2.931   3.993  0.1237 -0.1745  0.0487
17879W        W33010   5.105   9.347   0.064  0.0650  0.0647 -0.0811
17880W        W33011   0.536   7.864  11.763  0.1692  0.0659  0.2299
17881W        W33012   8.108  10.882  14.849  0.2346  0.0709 -0.0710
17882W        W33013  10.318   0.892   5.182 -0.2168 -0.0626  0.2765
17883W        W33014  10.843  17.784  15.650 -0.4924  0.1216 -0.1640
17884W        W33015  10.281   9.703  15.167 -0.1211  0.5097  0.0370
17885W        W33016  17.780   3.651   4.679  0.2630  0.0705 -0.1518
17886W        W33017  17.697  11.554   0.755  0.2690  0.0057 -0.0676
17887W        W33018  17.030  18.500  13.420  0.0210 -0.1908  0.0158
17888W        W33019   1.509  12.052  11.161  0.2562 -0.1867 -0.0668
17889W        W33020  18.441  16.662   2.933  0.1887 -0.2037  0.1861
17890W        W33021  15.484  11.174   1.287  0.4234 -0.0707  0.2503
17891W        W33022   1.082  16.066   4.021  0.1737  0.0524  0.2073
17892W        W33023   7.871  16.879   3.356  0.0981  0.1289  0.1126
17893W        W33024   7.102   1.324  14.165 -0.0310 -0.1800 -0.0369
17894W        W33025  10.623   6.727  15.657  0.2995 -0.0954 -0.2755
17895W        W33026  13.650  16.768  11.661  0.4463  0.0347  0.4256
17896W        W33027   5.017   3.310  13.788  0.2952 -0.2815  0.0413
17897W        W33028   3.221   3.108   4.677  0.1118 -0.0656 -0.1272
17898W        W33029  12.057   9.359   5.830 -0.5097 -0.2032 -0.1897
17899W        W33030  16.202   9.567   0.705  0.0581 -0.1257 -0.1803
17900W        W33031  15.683   4.245   2.306 -0.1720 -0.1452  0.0728
17901W        W33032   8.114  17.765   3.765 -0.3592 -0.2113 -0.1433
17902W        W33033   7.304   2.288  10.620 -0.1297  0.0497 -0.2734
17903W        W33034  15.585   3.285   3.485 -0.0992  0.1278  0.0525
17904W        W33035  13.019  12.201   3.243 -0.0416  0.0564  0.2132
17905W        W33036  16.280  16.917  12.559 -0.3736  0.1191  0.0482
17906W        W33037  13.874  11.532  14.876  0.2543 -0.0105 -0.0615
17907W        W33038   8.964   5.755  13.082  0.0332 -0.0124  0.0453
17908W        W33039  15.133  14.942  11.508 -0.2704  0.3887  0.0452
17909W        W33040   0.901  10.738   5.062 -0.2153 -0.2440  0.1880
17910W        W33041  15.764  11.442   3.158  0.1632 -0.2548  0.0682
17911W        W33042  13.360  17.673   0.810  0.3016  0.1403  0.0320
17912W        W33043   1.072   2.053   3.984 -0.1072 -0.3367 -0.0171
17913W        W33044  11.371  11.562   1.606 -0.1903  0.1802  0.1621
17914W        W33045  14.254   5.969  15.318 -0.0612  0.0954  0.4932
17915W        W33046   1.666   8.918  13.928 -0.2174 -0.2131 -0.0753
17916W        W33047   1.660  11.451  14.696 -0.0089  0.2344 -0.0989
17917W        W33048  15.719   1.594   1.838 -0.0038  0.1771  0.3142
17918W        W33049   6.254   5.792   3.792 -0.3674 -0.3248 -0.1899
17919W        W33050  13.084   2.617   1.783  0.0345  0.1835  0.0544
17920W        W33051  16.588   8.945   1.366 -0.0898  0.1388 -0.3609
17921W        W33052  14.817   9.146   4.705  0.2197 -0.0142 -0.1660
17922W        W33053   0.553  16.027   4.108  0.1992  0.3193  0.0911
17923W        W33054  14.156  12.442  12.798 -0.1393 -0.1118  0.0046
17924W        W33055  15.763  15.314  12.770  0.0063  0.0746 -0.0689
17925W        W33056   2.034   4.306  12.957 -0.0795  0.1069 -0.1359
17926W        W33057  14.650  16.863   3.293 -0.0540 -0.0310  0.1182
17927W        W33058  12.841   1.744   2.012  0.1828  0.1071 -0.2411
17928W        W33059   9.669   5.263   4.563  0.1309 -0.1440 -0.5368
17929W        W33060   1.175  10.668  14.545  0.0121  0.1484 -0.1218
17930W        W33061   2.532  15.403   4.398  0.0863  0.1495  0.2673
17931W        W33062  12.822   1.146   0.263  0.2734  0.2496 -0.3111
17932W        W33063   4.240   9.705  15.351 -0.0429 -0.1111 -0.1699
17933W        W33064   0.646   1.616  15.838  0.1443  0.2680  0.2027
17934W        W33065  15.364  12.053  13.951  0.1557  0.0734  0.2340
17935W        W33066  17.212  12.417   5.160 -0.2577  0.0390  0.0766
17936W        W33067   7.091   7.366   1.593  0.0001 -0.0500  0.3646
17937W        W33068  15.986  11.849   4.355 -0.0166 -0.3512  0.1542
17938W        W33069   9.518   4.527  13.150  0.0661  0.1101  0.0932
17939W        W33070   2.135  10.410   4.123 -0.1002 -0.4511 -0.1697
17940W        W33071   5.690  15.520  10.575 -0.0821 -0.0103 -0.2161
17941W        W33072   2.908  11.435   1.614  0.0086 -0.4340 -0.1614
17942W        W33073   7.727  10.997  10.892 -0.0824 -0.2026  0.0120
17943W        W33074  12.078   7.781  15.611  0.0973 -0.0048 -0.1847
17944W        W33075   3.445   7.085   5.101  0.1203 -0.0654  0.0529
17945W        W33076   6.949  16.421   4.445  0.0428  0.1414  0.0106
17946W        W33077  15.975  15.297   4.368 -0.1252  0.2015 -0.2686
17947W        W33078  16.061   1.192   1.864  0.1424  0.4855  0.0351
17948W        W33079  12.265  12.072   4.347  0.1304  0.0517  0.2880
17949W        W33080  15.470   9.831   1.726  0.3841 -0.1595  0.0255
17950W        W33081  15.728   6.968   2.808 -0.5170  0.0400  0.1984
17951W        W33082  15.465   0.480   0.731  0.1742  0.2059  0.2385
17952W        W33083  16.710   3.635  13.359  0.3056  0.1112  0.0898
17953W        W33084  17.473  17.924   0.999 -0.3093 -0.0584  0.2483
17954W        W33085   3.115  10.520  13.211  0.0216  0.1322  0.3136
17955W        W33086   5.321   2.581   0.375  0.1015  0.0894 -0.1921
17956W        W33087   5.202  17.056   1.313  0.0658 -0.0886 -0.0599
17957W        W33088  10.158   2.294   0.073 -0.2047 -0.0171  0.0991
17958W        W33089   6.742  17.977  14.505 -0.1674 -0.1344 -0.1283
17959W        W33090   8.065   5.163  14.153  0.0660  0.3413 -0.2717
17960W        W33091  14.830  11.525   3.843 -0.1778  0.0357  0.5174
17961W        W33092   2.393  10.582  10.440 -0.0318 -0.0700  0.1091
17962W        W33093   5.538   3.749  11.276 -0.1577  0.2169  0.1646
17963W        W33094  15.798  18.041   2.548  0.1589 -0.1626  0.1328
17964W        W33095  10.998  12.344   5.764 -0.5122  0.0929 -0.3565
17965W        W33096   7.712   0.574   1.808 -0.1343 -0.0020  0.0091
17966W        W33097   7.892  13.904  10.381  0.0503 -0.0947  0.2895
17967W        W33098  11.332   4.615  14.665 -0.0668 -0.0332  0.1649
17968W        W33099  13.783   8.205   1.114  0.1560  0.1860  0.0634
17969W        W33100   1.041  14.989   1.583 -0.1945  0.0317  0.1347
17970W        W33101  13.226   4.438   2.991 -0.0610  0.0742  0.0639
17971W        W33102   7.721  17.668  14.705 -0.1016  0.1071  0.1465
17972W        W33103  17.008  17.407  12.151  0.1136 -0.2166  0.0798
17973W        W33104   1.623   9.119  12.392  0.1665 -0.2628  0.3218
17974W        W33105   7.797  11.090  13.715  0.0137  0.2665  0.0157
17975W        W33106   4.585  17.891   3.568 -0.2067  0.1968  0.0652
17976W        W33107   7.341  12.110  13.870 -0.0690  0.0296  0.3390
17977W        W33108   3.833   2.749  10.673  0.2961 -0.0949  0.0467
17978W        W33109  12.302   6.376   2.492 -0.0591  0.1107 -0.0564
17979W        W33110  17.687  10.354   0.655 -0.0319  0.1339  0.0041
17980W        W33111  15.299   2.000  13.365  0.1566  0.2616  0.0746
17981W        W33112   7.806   4.778   3.052  0.0670 -0.1135 -0.1425
17982W        W33113   5.910   4.013  15.893  0.0836 -0.3394 -0.0046
17983W        W33114  18.272   0.172   4.797  0.0045  0.4629 -0.1077
17984W        W33115   9.188  15.792  14.259  0.1993  0.0115 -0.0709
17985W        W33116   4.105   3.567   4.965  0.0321  0.1988  0.0187
17986W        W33117   8.918   1.778  15.447 -0.2077  0.0141 -0.3059
17987W        W33118   9.551  16.689   3.283 -0.2250 -0.2334  0.0266
17988W        W33119   8.997  14.054  14.727  0.2012  0.0305  0.0793
17989W        W33120   5.668  18.356  14.315 -0.2655  0.3027  0.0892
17990W        W33121  14.142   2.784   0.037  0.0961  0.0904  0.1373
17991W        W33122   6.813   2.156  14.679  0.1575 -0.1923 -0.1395
17992W        W33123   3.758  12.015  13.556  0.1332  0.1774  0.0741
17993W        W33124  10.986  10.815  13.815 -0.0377  0.1301  0.0580
17994W        W33125   8.864   8.874  13.054  0.0585  0.1847  0.1395
17995W        W33126   7.683  12.977   2.312 -0.0373 -0.2867 -0.2656
17996W        W33127  13.271   2.227  13.593  0.2134  0.0476  0.3458
17997W        W33128   2.832   6.113   5.072 -0.2229 -0.0153 -0.0902
17998W        W33129  10.357   1.600   2.834 -0.1119 -0.0728  0.3750
17999W        W33130   5.900  14.825   1.042  0.1789  0.2289  0.1535
18000W        W33131   0.121  15.607  15.799 -0.1618 -0.0566 -0.0123
18001W        W33132   7.923  14.604   0.029 -0.0659 -0.1650  0.3748
18002W        W33133   0.493  16.316   1.943 -0.0142  0.1157  0.1695
18003W        W33134   6.658   4.697  12.030 -0.3569  0.3146  0.0896
18004W        W33135  14.952   1.729   4.129 -0.3491  0.4205  0.0685
18005W        W33136   7.133  11.608   9.786  0.1752  0.3777 -0.2875
18006W        W33137  12.245  16.923   0.686  0.0755  0.3346  0.0361
18007W        W33138  10.767   0.498   2.294  0.3189 -0.0512 -0.0497
18008W        W33139  12.628   8.088  13.032  0.2943 -0.0946 -0.0789
18009W        W33140  14.909  14.123   1.979  0.0531 -0.2465  0.1512
18010W        W33141  15.933  14.118   3.173  0.1945  0.0802 -0.1427
18011W        W33142  13.117   5.157   1.836  0.1663 -0.1971  0.1064
18012W        W33143  13.446   7.720  14.033 -0.0635 -0.3410  0.0641
18013W        W33144  12.281   8.441   3.614  0.1645  0.2697  0.1142
18014W        W33145   8.858   0.300  15.001  0.1253 -0.2047 -0.1305
18015W        W33146  11.689   1.703  15.245 -0.4383  0.1770  0.4228
18016W        W33147  16.538   2.456  15.411  0.4348  0.0083 -0.3306
18017W        W33148  14.561  13.383  15.564 -0.0915  0.1634  0.4623
18018W        W33149  15.371   8.445  12.765  0.0254 -0.2598  0.1362
18019W        W33150  15.352  13.358  13.956  0.0069  0.0685 -0.2566
18020W        W33151   4.977  16.490  11.567  0.0692 -0.0088 -0.2761
18021W        W33152   2.625  17.711  13.581 -0.0425  0.1567 -0.1397
18022W        W33153  14.338   2.095   4.115 -0.2998 -0.0703  0.0107
18023W        W33154   1.050  15.402   0.531  0.2425  0.0389 -0.1861
18024W        W33155   7.531   2.031   3.382  0.1128  0.0596  0.1175
18025W        W33156   4.200  17.706  15.262  0.1689  0.1760  0.1605
18026W        W33157  17.913  11.415  12.656  0.0660 -0.0793  0.0410
18027W        W33158   8.211  17.903  13.926  0.4874  0.0297 -0.3648
18028W        W33159  10.288  11.285   5.541 -0.0235  0.3755  0.0891
18029W        W33160   0.398  18.429   5.304 -0.1319 -0.2774  0.1273
18030W        W33161   6.793   8.621  12.992  0.1610 -0.0573 -0.1709
18031W        W33162  13.046  15.747  12.865 -0.4088 -0.2257 -0.1146
18032W        W33163   2.756   4.712  14.282  0.1396 -0.0999  0.2091
18033W        W33164   7.573  12.818   4.945  0.0293  0.1630  0.2318
18034W        W33165   6.163   4.791  12.103  0.0948  0.0189  0.1158
18035W        W33166   5.550   5.083   4.361 -0.1092  0.0822  0.1578
18036W        W33167   8.204   1.076  13.346 -0.2654 -0.0171 -0.4678
18037W        W33168   7.060   2.153   3.513  0.1241 -0.0527  0.2746
18038W        W33169   2.190  10.784  13.504 -0.1350  0.2827 -0.0018
18039W        W33170  16.215   3.625   1.813 -0.0637 -0.0818  0.0677
18040W        W33171   8.269  16.211   3.572 -0.0114 -0.1060 -0.1440
18041W        W33172  12.759   9.388  13.881 -0.0093 -0.3304 -0.1852
18042W        W33173   2.515  16.892   0.177  0.2873  0.1295 -0.1696
18043W        W33174   3.929  13.872  14.673 -0.1895 -0.1142  0.1012
18044W        W33175  15.222   8.712   4.558  0.1847  0.1724 -0.0980
18045W        W33176  16.802  17.693   2.372  0.2201  0.1597 -0.0571
18046W        W33177   5.388  13.555  10.230 -0.1017 -0.0521 -0.2778
18047W        W33178   2.705  11.889   5.388  0.1254 -0.3239 -0.0105
18048W        W33179   8.539   1.930   3.667  0.2020  0.2770  0.4204
18049W        W33180   9.566  15.845  11.751  0.0053 -0.2790  0.1825
18050W        W33181   2.470  15.608  15.373 -0.3937  0.0688  0.1396
18051W        W33182  10.587  18.389   1.005  0.4318  0.1365 -0.1639
18052W        W33183  10.719  14.859  15.946  0.1306  0.0990 -0.0923
18053W        W33184   2.546  17.403   0.433  0.0802  0.1935  0.2695
18054W        W33185  18.075   0.158  11.723  0.0428 -0.0572 -0.1851
18055W        W33186   4.178   9.964   0.953 -0.1301 -0.0960 -0.0836
18056W        W33187   2.277   4.594   5.994  0.1234 -0.2174  0.0249
18057W        W33188   6.022  11.260   1.786  0.1563  0.0512 -0.0869
18058W        W33189   4.085   0.543   4.617 -0.2004  0.1264 -0.1362
18059W        W33190  14.480   3.496   4.641 -0.1280 -0.2681  0.1722
18060W        W33191   2.939   6.511   1.387  0.1591  0.2358  0.0122
18061W        W33192  12.180  11.693  14.644  0.3342 -0.0045 -0.1442
18062W        W33193   2.538   7.887  15.482 -0.1470 -0.1503  0.2577
18063W        W33194  10.490  15.111  14.781  0.0678 -0.2988 -0.0900
18064W        W33195   4.067   1.950  11.351 -0.0628  0.0672 -0.3978
18065W        W33196   7.417   0.550  14.434  0.1610 -0.1162  0.0129
18066W        W33197  15.865  10.071  13.489  0.0958 -0.0925  0.1122
18067W        W33198   3.806  15.566  14.071 -0.3151  0.0467  0.2521
18068W        W33199  15.672  15.138   5.070 -0.0639  0.5942  0.2906
18069W        W33200  16.478  14.438  13.447 -0.0315  0.1577  0.0970
18070W        W33201   3.342   5.707  10.125 -0.2577 -0.0029 -0.1677
18071W        W33202   9.815  15.539   3.547  0.0706  0.1885  0.0266
18072W        W33203  10.523   0.571   3.811 -0.2242  0.0996  0.0995
18073W        W33204   3.731   0.208  15.353  0.0444  0.0892 -0.0457
18074W        W33205   4.773   0.263  13.808 -0.1014 -0.1424  0.0495
18075W        W33206   7.561  17.770  13.155 -0.1155  0.2041  0.0412
18076W        W33207  14.042   1.473  11.863 -0.2025 -0.1708  0.0724
18077W        W33208  10.077   7.342   1.610  0.0264 -0.1472  0.1753
18078W        W33209  17.791   5.412   1.352 -0.0412  0.1776  0.1339
18079W        W33210   5.554   1.592  12.234 -0.0195  0.0783 -0.1435
18080W        W33211   5.660   8.837   4.753 -0.4727  0.2463 -0.0465
18081W        W33212  17.484   9.276   4.373 -0.0509 -0.0968  0.1199
18082W        W33213   7.254  13.953   0.277  0.1706 -0.0487  0.3651
18083W        W33214   8.473   3.638  12.575 -0.1570 -0.1033  0.3199
18084W        W33215   5.643   1.627  14.539  0.0710  0.3588  0.2940
18085W        W33216   8.340  14.456  15.309 -0.2455 -0.1666  0.0138
18086W        W33217   7.814  14.804  15.491 -0.0554  0.2137  0.0120
18087W        W33218   5.978  11.597  11.206 -0.2662  0.0798 -0.0684
18088W        W33219  13.594   5.036   5.550 -0.0559 -0.0029  0.2927
18089W        W33220   5.839  17.146   2.193  0.3970  0.0090  0.0552
18090W        W33221   6.328   5.224  14.252 -0.1653  0.0998 -0.3341
18091W        W33222  17.306   2.645  12.147 -0.1381  0.3324  0.3452
18092W        W33223  14.672  16.415  11.735  0.1245  0.1768 -0.2331
18093W        W33224   1.307   6.482  14.585  0.2389  0.0011  0.0409
18094W        W33225   0.671  11.346  14.477  0.3771 -0.1809 -0.1250
18095W        W33226   0.597   6.722  13.999  0.1007 -0.1972  0.0087
18096W        W33227   0.067   3.815   1.212  0.0210 -0.0831  0.0367
18097W        W33228  14.854  11.916  13.405  0.1176  0.0667  0.0377
18098W        W33229   9.484  14.347  13.116 -0.1151  0.1727  0.1357
18099W        W33230  11.032   5.473   2.016  0.1186 -0.1042 -0.1289
18100W        W33231   9.133  14.919   1.209  0.1131  0.0833 -0.1494
18101W        W33232   6.930   0.295   3.631  0.0448  0.2160 -0.3622
18102W        W33233  14.067   5.897  15.844 -0.1957 -0.0928  0.3547
18103W        W33234  15.053   9.992  15.805 -0.0467 -0.0234 -0.1794
18104W        W33235   2.985   5.141   0.010  0.2024  0.1189 -0.0214
18105W        W33236  15.515   3.002  15.813 -0.3877  0.0124  0.0596
18106W        W33237  11.374  15.439  13.808 -0.4141  0.0225 -0.5405
18107W        W33238  12.569   6.259  12.495  0.0559  0.0515  0.2901
18108W        W33239  10.327  11.455   1.517 -0.0217 -0.4399  0.1680
18109W        W33240   2.331   3.177   3.314 -0.2077  0.1851 -0.2197
18110W        W33241   5.257   1.734  15.134 -0.1555  0.1424 -0.2715
18111W        W33242   4.017  10.499   3.838  0.3002  0.0990 -0.0911
18112W        W33243   5.705  18.275  12.616  0.4044  0.0627  0.0031
18113W        W33244   5.031   5.888   4.388 -0.0049 -0.1227 -0.0906
18114W        W33245   5.644   7.614  10.950 -0.2567  0.2317 -0.1253
18115W        W33246  10.796   3.969   2.913 -0.3416  0.1694 -0.1603
18116W        W33247   4.646   8.667  14.208  0.2850  0.2646 -0.1722
18117W        W33248  12.786   6.097   1.555  0.2207 -0.1633  0.1310
18118W        W33249  14.626  15.926   5.129 -0.1340 -0.1554 -0.1740
18119W        W33250   9.430   2.393  14.155  0.2782  0.2888 -0.0118
18120W        W33251  17.813  14.000   6.489  0.0323  0.2090 -0.1753
18121W        W33252   4.488  10.736  13.249 -0.0404  0.2357 -0.2635
18122W        W33253   1.465  17.202  14.731 -0.2184  0.0519  0.2480
18123W        W33254  16.171   2.114   3.436 -0.0279 -0.0035  0.0617
18124W        W33255   0.001   9.110   0.894 -0.1610  0.1042  0.0100
18125W        W33256   1.253   9.556  12.211  0.0835  0.4268  0.2273
18126W        W33257  13.929   4.346   2.239 -0.4748  0.0474 -0.2408
18127W        W33258  16.509   9.393   2.688  0.0733  0.4860 -0.3236
18128W        W33259  10.350  17.040  12.654  0.0524  0.0978  0.2999
18129W        W33260   6.084  10.200  15.748  0.4528 -0.0134  0.1198
18130W        W33261  18.365   6.754   5.389  0.3491 -0.0040 -0.2233
18131W        W33262   8.786   6.139   1.347 -0.1249 -0.4105  0.0886
18132W        W33263   7.546   2.085   1.975  0.0944  0.0845 -0.2378
18133W        W33264   7.335  12.448   1.025  0.1085 -0.3166 -0.0097
18134W        W33265   7.557   7.971   0.084 -0.1292 -0.2634  0.1235
18135W        W33266  11.637   3.905   0.975 -0.2429 -0.2550 -0.1734
18136W        W33267   9.900  10.471   2.135 -0.0518  0.1878 -0.1646
18137W        W33268  14.144   7.830   0.188  0.0677  0.1643  0.1910
18138W        W33269  14.505  11.589   2.481  0.2788 -0.2452  0.2289
18139W        W33270  12.589   2.310  11.872 -0.3441  0.2126 -0.1228
18140W        W33271  15.822  16.113   2.090 -0.1433 -0.1950  0.1812
18141W        W33272   5.101   5.937  13.724 -0.0657 -0.2734 -0.1068
18142W        W33273   0.436  13.352  13.468 -0.0023 -0.1187 -0.1442
18143W        W33274   2.102   3.530   4.582  0.2180 -0.2038  0.3921
18144W        W33275  10.171   3.966   4.006 -0.4023  0.0436 -0.2158
18145W        W33276   1.262   2.787   0.697 -0.0050  0.0391  0.2129
18146W        W33277  12.937   9.198   0.250 -0.2538 -0.0457  0.1453
18147W        W33278   3.401   6.039   5.067 -0.0837 -0.0211 -0.2259
18148W        W33279   3.715  14.365   4.363  0.1643  0.2735  0.2145
18149W        W33280  13.251   0.691  12.550 -0.1862  0.2536  0.2386
18150W        W33281   5.994  15.905   0.771 -0.2060  0.1096 -0.0228
18151W        W33282  12.890  18.505   5.145 -0.0130 -0.3907  0.1280
18152W        W33283  11.409  13.654  15.425 -0.0646  0.1256 -0.2209
18153W        W33284  15.499   2.443  11.564  0.0085  0.0847  0.0847
18154W        W33285   0.678  16.768   2.667 -0.0081  0.3692  0.2795
18155W        W33286  10.806  14.095   1.034 -0.0543 -0.0058 -0.3992
18156W        W33287   1.014   7.540  13.090  0.0671 -0.0656 -0.0944
18157W        W33288  16.826   5.902  15.763  0.1612 -0.1406  0.3253
18158W        W33289   4.880   4.517   4.998  0.0299 -0.0038 -0.2701
18159W        W33290   2.765  18.099  14.374  0.2543 -0.1932  0.2005
18160W        W33291   9.200   2.518   0.858  0.0686  0.0359 -0.0106
18161W        W33292   6.900  18.174   4.554 -0.1559  0.1082  0.3004
18162W        W33293   9.503  18.008   4.095 -0.3742 -0.0165 -0.0369
18163W        W33294  11.260  10.484   0.065 -0.1347 -0.3045  0.2315
18164W        W33295   8.715  17.203  10.855 -0.2224  0.1595 -0.1673
18165W        W33296   4.287   9.300   2.341  0.3636 -0.2054 -0.1976
18166W        W33297  10.754   5.532  13.777 -0.1467  0.1135 -0.1386
18167W        W33298   6.920   6.788  14.937 -0.0928 -0.0437 -0.2264
18168W        W33299   0.669  18.135   1.278  0.3664  0.2910  0.2458
18169W        W33300   9.705   1.922  11.175  0.1529  0.0911  0.1995
18170W        W33301  11.616  13.841   5.157 -0.5672 -0.0472  0.3021
18171W        W33302   0.979  11.461  12.272  0.2789 -0.0063 -0.2587
18172W        W33303   0.961  11.543  11.772 -0.3932  0.1998 -0.2263
18173W        W33304   8.324  10.742   1.918 -0.0552 -0.0199  0.0320
18174W        W33305  16.008   5.057  14.462  0.0765 -0.2190 -0.1034
18175W        W33306   4.609  16.701   0.779 -0.0748 -0.1081 -0.1242
18176W        W33307   6.416  14.405  11.615  0.1221  0.2521 -0.0997
18177W        W33308  16.751   2.483   5.946 -0.0272 -0.0795  0.1038
18178W        W33309   3.103   3.688   5.414 -0.0188 -0.1491  0.4948
18179W        W33310  16.341   5.960   4.129 -0.1831  0.0201 -0.1478
18180W        W33311   7.598   8.620   1.735  0.2073  0.2821  0.0225
18181W        W33312  15.165  13.856  11.226 -0.0811 -0.3704  0.3260
18182W        W33313   4.948  12.146  15.079  0.0352 -0.0541 -0.0444
18183W        W33314  12.472   2.580  11.048 -0.0090 -0.1332 -0.3546
18184W        W33315   2.473   9.103  11.226  0.1051  0.0098  0.0585
18185W        W33316  12.773  18.543  11.692  0.1387  0.0228  0.1009
18186W        W33317   3.295   2.572   2.122  0.0156  0.0068 -0.2573
18187W        W33318  15.961  18.560  13.932 -0.1795 -0.1334  0.0105
18188W        W33319  12.410   0.012  11.308  0.2162  0.2804  0.2678
18189W        W33320   7.675   6.468  11.254  0.0630 -0.0551 -0.0549
18190W        W33321   0.424   0.701   4.954 -0.0570  0.0559  0.0635
18191W        W33322   6.086  17.930   5.120 -0.0568 -0.1783  0.0832
18192W        W33323  11.289   6.669  10.711 -0.0486 -0.2033 -0.1128
18193W        W33324   4.772   3.312  11.842 -0.0658 -0.1337  0.0947
18194W        W33325  17.827   1.515  12.788 -0.2097 -0.0549  0.0853
18195W        W33326   4.447   4.448  11.625  0.3115  0.0596  0.0357
18196W        W33327   8.163   3.656   0.403  0.0639  0.0438  0.0456
18197W        W33328   9.338   6.956  12.925  0.0248  0.2086  0.0812
18198W        W33329  10.280  13.428   1.665 -0.3246 -0.2561 -0.4714
18199W        W33330  12.262   4.840  14.553 -0.1858 -0.0189  0.1873
18200W        W33331  10.227   0.472   0.051  0.1925 -0.1090 -0.0501
18201W        W33332  15.881   1.678   0.545  0.1438  0.0640 -0.2076
18202W        W33333  13.802   6.452  12.049 -0.0582 -0.0217  0.4079
18203W        W33334   7.665   0.447  11.074 -0.1788  0.0103  0.1269
18204W        W33335  18.453   9.923  11.977 -0.1883  0.0598 -0.1843
18205W        W33336  18.296  16.320   3.751  0.2771 -0.0268  0.0623
18206W        W33337  17.317  10.492   2.651 -0.3215  0.0053  0.1566
18207W        W33338  17.788   5.943   4.355  0.2438  0.2370 -0.0421
18208W        W33339   5.169  17.077  10.891 -0.0025  0.1669 -0.1546
18209W        W33340   8.205   5.064   3.872  0.1359  0.3358 -0.0055
18210W        W33341   1.538   0.431  11.384  0.0472 -0.2894  0.0507
18211W        W33342  11.756   4.884   5.348 -0.1673 -0.4563  0.1501
18212W        W33343  14.850   4.414  11.557 -0.0102 -0.0581 -0.1186
18213W        W33344   2.664  14.090  12.518  0.1352  0.1996  0.0970
18214W        W33345  16.473  13.349   3.724 -0.0521  0.0026 -0.2163
18215W        W33346   9.939  14.998  12.066  0.4298  0.2937  0.0386
18216W        W33347  13.059   6.743  11.787  0.0025 -0.0726 -0.1367
18217W        W33348  16.351   1.649  15.335 -0.0589 -0.1898  0.3825
18218W        W33349  16.329  13.073  11.606 -0.0244  0.3459  0.1326
18219W        W33350   3.552   0.460  14.424 -0.0036  0.0385 -0.1465
18220W        W33351  16.593   1.629  14.811  0.2889 -0.1199 -0.2294
18221W        W33352   9.549  13.313   1.691 -0.1888 -0.3135 -0.1017
18222W        W33353   6.623  11.967  13.604 -0.2228  0.1600 -0.0150
18223W        W33354  13.250   1.270  15.210  0.2430 -0.1818  0.1726
18224W        W33355  17.824   9.257  15.664  0.2333  0.0279  0.1356
18225W        W33356   7.628   4.009   6.193  0.3123  0.2687  0.0054
18226W        W33357  12.699  13.318  15.067  0.1621  0.1859  0.3887
18227W        W33358  14.159   6.439  12.385 -0.0752  0.1647  0.2288
18228W        W33359   1.663   2.094   1.304  0.3605  0.0977  0.0295
18229W        W33360  18.168   3.962   2.996 -0.1046  0.0904 -0.1474
18230W        W33361   6.049   0.488  12.673  0.3150 -0.1461 -0.0588
18231W        W33362   9.968  14.994  11.286  0.1258  0.1583 -0.0178
18232W        W33363  16.729  18.498  15.562  0.0136 -0.2473 -0.1258
18233W        W33364  11.156   7.366  14.737  0.0396 -0.2017  0.0116
18234W        W33365   8.857  12.941  11.313  0.2573 -0.0973  0.0244
18235W        W33366   5.528   8.826  11.801 -0.0194  0.1007 -0.1183
18236W        W33367   3.487   6.699   3.521  0.1932  0.4332 -0.1572
18237W        W33368   8.384  13.259  14.632 -0.1894 -0.0984  0.2718
18238W        W33369  14.945   6.914   5.407 -0.1456  0.0809 -0.2532
18239W        W33370  15.394   0.193   4.717 -0.4566  0.1420 -0.3037
18240W        W33371  16.452  18.244  10.238  0.1166 -0.1276 -0.1392
18241W        W33372  10.542  13.983  14.927  0.0895 -0.2318  0.1621
18242W        W33373   1.721   4.098  14.631 -0.0976  0.1336 -0.0982
18243W        W33374  14.930  16.649  12.290  0.1271  0.1496  0.2208
18244W        W33375  14.938   0.206  12.317  0.0249 -0.2175 -0.0364
18245W        W33376   3.381   4.429   0.091 -0.2186  0.1288 -0.1129
18246W        W33377  12.408   5.583  12.017  0.1966 -0.2126  0.0443
18247W        W33378  10.862  14.936   1.513  0.1827 -0.0527 -0.4546
18248W        W33379   0.021   2.895   5.394 -0.1059 -0.0917  0.2779
18249W        W33380   6.581  15.254   2.698 -0.1625 -0.1750 -0.0597
18250W        W33381  11.657  16.360  15.395  0.0406 -0.2396  0.2310
18251W        W33382   6.816  11.358   2.186  0.1200 -0.2016 -0.1637
18252W        W33383  15.265   0.864  14.504  0.2169  0.0247 -0.0184
18253W        W33384   6.099   7.410  11.826 -0.0860 -0.2766 -0.2290
18254W        W33385   7.266   5.211  15.939  0.0583 -0.0962  0.0608
18255W        W33386   9.417  15.376  13.908  0.1096 -0.1323  0.6104
18256W        W33387  11.951  10.981   4.864 -0.2748  0.3177  0.0972
18257W        W33388   5.381  12.724   4.454 -0.1227 -0.2881 -0.3371
18258W        W33389  16.008  17.378  13.640  0.0777  0.0021 -0.1019
18259W        W33390   8.524  11.529   5.345  0.0194  0.1651  0.2936
18260W        W33391   9.356   1.641   1.564 -0.3230  0.1653 -0.1343
18261W        W33392   1.291   2.909   2.334 -0.0375 -0.0490 -0.1501
18262W        W33393  12.521   0.906   0.671  0.0064 -0.0460  0.0130
18263W        W33394   6.841  14.282   2.220 -0.3524 -0.0672 -0.1796
18264W        W33395  17.442  11.715  13.977  0.0028  0.1050  0.4141
18265W        W33396  11.510  15.765   0.372 -0.0911 -0.0520  0.2227
18266W        W33397  13.470  16.788   2.173  0.0029 -0.3018  0.0622
18267W        W33398   4.709  10.386  15.483  0.0725  0.2143 -0.0728
18268W        W33399  16.310  14.318   3.901 -0.0532 -0.1560  0.0069
18269W        W33400  13.190   0.330   5.670  0.2029  0.1614  0.1251
18270W        W33401  11.675  17.107  12.903 -0.3103  0.0502 -0.1511
18271W        W33402  13.572   2.726  13.987 -0.3174  0.0520 -0.3588
18272W        W33403   4.079   3.896   4.159 -0.0033  0.0153  0.2760
18273W        W33404  12.214   6.440  13.466 -0.3604  0.1227  0.2743
18274W        W33405   3.548  16.806  10.573  0.1364 -0.2741 -0.0469
18275W        W33406   5.798   4.253   0.781 -0.1057  0.1843 -0.0223
18276W        W33407  17.289   8.347   4.271  0.1661 -0.2667  0.2406
18277W        W33408   9.922  10.945   2.341  0.0261  0.0257  0.1081
18278W        W33409  13.972   1.767   0.217  0.0914 -0.0004  0.0728
18279W        W33410  13.038   6.645   3.337  0.2106 -0.0243  0.3350
18280W        W33411  17.440   4.651  14.729 -0.0481  0.0410  0.0308
18281W        W33412  11.914  15.034   2.957 -0.0816 -0.1947 -0.2253
18282W        W33413   9.645   4.802   0.183  0.3933 -0.1688  0.1676
18283W        W33414   3.162   1.796   0.500  0.0811 -0.0844  0.0957
18284W        W33415  14.251   0.609   1.745 -0.0473  0.1938  0.0321
18285W        W33416   6.860  10.126   2.780  0.0523 -0.0197  0.2246
18286W        W33417   9.644   7.543   4.406 -0.2584 -0.0755  0.0310
18287W        W33418   3.770   5.395   2.429  0.0320 -0.0358  0.0647
18288W        W33419   1.426   6.750  13.730 -0.3791  0.0163  0.0731
18289W        W33420   2.390  14.604   2.138  0.1619  0.2761  0.2867
18290W        W33421   2.954  17.542   1.616 -0.1210  0.1561  0.1111
18291W        W33422   9.627   7.676  10.939 -0.1631  0.1843 -0.5897
18292W        W33423   4.963  16.568   2.832 -0.1964 -0.1475  0.2611
18293W        W33424   1.763   3.281  13.853  0.2508 -0.0024 -0.4392
18294W        W33425   7.752   4.629   2.138  0.2410  0.0998  0.0361
18295W        W33426  16.641  10.938  10.717 -0.1379  0.0760 -0.1955
18296W        W33427  16.526  17.362  13.442 -0.2256  0.0032  0.1145
18297W        W33428   9.804  14.996   4.092  0.1927 -0.2387  0.4504
18298W        W33429   9.976   4.687  13.104  0.0229 -0.0157  0.1261
18299W        W33430   3.234   1.935   5.423 -0.3214 -0.1708  0.0779
18300W        W33431   3.962   7.077   1.321  0.0227 -0.0028  0.0840
18301W        W33432  13.760   4.328  15.643  0.1458  0.0784 -0.0156
18302W        W33433   2.194  15.376   3.743 -0.1821  0.0808 -0.1291
18303W        W33434   7.362   4.558  13.081  0.3971 -0.0598 -0.1044
18304W        W33435   0.278  13.622  15.838 -0.3287  0.0132  0.1131
18305W        W33436   8.394  16.780  11.048  0.1385  0.0069  0.0657
18306W        W33437  10.224   0.356  12.203  0.0752  0.1902 -0.2275
18307W        W33438   9.546   4.443  14.834  0.3681  0.5474 -0.0844
18308W        W33439   0.399   3.154  14.892 -0.3855  0.0761  0.1493
18309W        W33440  16.918  13.469   0.174  0.0037  0.0291  0.0262
18310W        W33441   2.696   3.610  11.685  0.1806 -0.2272  0.1670
18311W        W33442   0.272   9.748  15.264  0.0327  0.1387 -0.3332
18312W        W33443   6.888   8.196   2.098  0.0431 -0.0682 -0.2504
18313W        W33444  12.318   9.623   2.179 -0.1714  0.1628  0.0248
18314W        W33445   0.628   4.911   5.502  0.0087  0.0287 -0.2505
18315W        W33446  13.674   3.630   3.412 -0.0921 -0.1440  0.0261
18316W        W33447   2.107  14.424  14.927  0.0654  0.0112 -0.2810
18317W        W33448   7.732   6.472  10.675 -0.1202 -0.4307  0.1634
18318W        W33449  15.576  14.565  14.987 -0.2466 -0.1678  0.1488
18319W        W33450  14.543   1.859   1.435 -0.3656 -0.2993  0.3193
18320W        W33451  14.294   7.414   4.094 -0.0997  0.1789  0.1643
18321W        W33452   6.517  16.623   4.513  0.1906  0.0096  0.0035
18322W        W33453  14.583  17.464  10.892 -0.0664 -0.0228  0.3501
18323W        W33454   8.836  11.511   2.743 -0.0930 -0.2731 -0.0197
18324W        W33455  16.549   0.286   3.127 -0.1964 -0.0728  0.0562
18325W        W33456  17.696  12.193  14.362 -0.3595 -0.1317  0.1918
18326W        W33457  12.768   4.819  14.708 -0.2726 -0.0657  0.0474
18327W        W33458   5.993  14.054   9.821 -0.0524 -0.0123 -0.0640
18328W        W33459  15.751   7.082   0.452  0.5274  0.3732  0.0301
18329W        W33460   9.780  15.220   0.446 -0.0557  0.2824 -0.0762
18330W        W33461   0.802   2.002  11.880 -0.0036  0.1581  0.2311
18331W        W33462  17.999   3.469  11.277 -0.0421  0.0445  0.3485
18332W        W33463  13.084  12.219   5.887  0.0956  0.0144  0.0231
18333W        W33464   8.229  16.900   2.403 -0.1425 -0.0068  0.1899
18334W        W33465   2.846  14.013  11.098 -0.0383  0.2520 -0.1595
18335W        W33466   7.728  12.625   4.453 -0.2690  0.1429 -0.1458
18336W        W33467   9.649   6.738   3.486  0.0850 -0.0100  0.1293
18337W        W33468   5.905   9.935   4.096 -0.2550 -0.1133 -0.0836
18338W        W33469   3.452  15.662  13.674  0.2259  0.2271 -0.2542
18339W        W33470   5.019   8.968  10.655 -0.1559 -0.1640  0.0491
18340W        W33471  17.558  17.391  12.104  0.3130  0.3217  0.2595
18341W        W33472   6.246   3.464  11.522 -0.0031  0.0678 -0.1534
18342W        W33473   8.426  15.863  10.625  0.1121  0.0666  0.2853
18343W        W33474   5.326   8.003   4.294  0.1756 -0.2855 -0.1802
18344W        W33475  14.113   7.069   6.603  0.2531  0.2281 -0.0725
18345W        W33476  15.610   2.867   4.524  0.2485  0.2262  0.4442
18346W        W33477   8.347  10.069   1.096 -0.1443  0.0746  0.0859
18347W        W33478  14.837   6.179   6.398 -0.1006 -0.2057 -0.3807
18348W        W33479  16.284   2.242  11.587  0.1204  0.0215 -0.1198
18349W        W33480   9.776   6.748   1.339 -0.1561 -0.2197 -0.0556
18350W        W33481   9.083   7.337   3.194  0.0580  0.0353  0.0470
18351W        W33482  16.354   9.260  14.009 -0.0069 -0.1366 -0.1010
18352W        W33483  17.056   9.979   0.506  0.0390 -0.1500 -0.0298
18353W        W33484   5.640  12.116  14.352 -0.1602  0.1015 -0.0761
18354W        W33485  12.161   3.431   1.267 -0.0184 -0.3234 -0.1513
18355W        W33486   3.192   3.893   2.907  0.0456 -0.1859 -0.0375
18356W        W33487  18.224   2.476  13.834 -0.1278  0.1693 -0.2259
18357W        W33488   8.081  12.726   3.930  0.0865 -0.3578  0.0870
18358W        W33489   0.422  11.765   4.782  0.2978 -0.0898  0.0409
18359W        W33490   9.029   0.109  11.010 -0.0259 -0.1882  0.5657
18360W        W33491   5.163  17.139  12.466  0.0293 -0.2220 -0.1098
18361W        W33492  10.564  13.500   4.950  0.1455 -0.0978  0.1906
18362W        W33493  13.793   4.107   3.062 -0.3844 -0.2086  0.0486
18363W        W33494   5.352  15.602   2.834 -0.1404  0.0159 -0.0793
18364W        W33495  14.644  10.436   0.339 -0.0249  0.3073  0.1532
18365W        W33496   3.990  17.639  10.795  0.0129 -0.1078 -0.0607
18366W        W33497   7.938  15.167   3.054  0.1704 -0.0675 -0.1230
18367W        W33498   7.186   7.143   2.099 -0.1973 -0.0653  0.0222
18368W        W33499   2.343  14.731  13.510 -0.0846 -0.0132 -0.1656
18369W        W33500  11.676  18.077   0.055 -0.2350 -0.3012 -0.0967
18370W        W33501  15.785   5.620  15.751 -0.1132 -0.2474  0.0648
18371W        W33502  17.361   0.497  12.046 -0.0687 -0.0066  0.1184
18372W        W33503  12.298  18.356  11.868 -0.0168 -0.2278  0.2175
18373W        W33504  12.680   6.879  12.937  0.1493 -0.0172 -0.0777
18374W        W33505  15.857   8.904  12.256  0.3325 -0.4125  0.0418
18375W        W33506   1.228  18.003  12.150  0.0945  0.4735  0.1423
18376W        W33507  10.069  10.630  12.036  0.1774  0.3334  0.0468
18377W        W33508  15.026   6.138   4.385 -0.1808 -0.1953  0.2741
18378W        W33509   3.191   3.913   1.544  0.3362 -0.2900  0.0729
18379W        W33510  13.290  18.322  14.585  0.1418 -0.1763  0.2108
18380W        W33511   7.816   9.570  15.894  0.3497  0.1141 -0.1798
18381W        W33512   4.522   8.095  12.770  0.1855  0.0024 -0.0091
18382W        W33513   0.490  12.551   1.812 -0.2648  0.0184  0.0753
18383W        W33514   1.509  12.183  12.950  0.1239 -0.2767  0.2683
18384W        W33515  17.781   4.332  15.947 -0.5545 -0.0334  0.1350
18385W        W33516  12.840  13.161   2.874  0.1535  0.2733  0.1387
18386W        W33517   9.342   7.119  15.065 -0.0330  0.4903 -0.0111
18387W        W33518   7.301   1.180  12.629  0.2319 -0.1667 -0.0165
18388W        W33519   5.486  18.118   1.102 -0.1488  0.3185 -0.2755
18389W        W33520   3.508   7.873  15.494  0.0862  0.0454  0.3403
18390W        W33521   4.570   9.084   0.827  0.3079  0.0161 -0.1065
18391W        W33522   6.767   0.252   2.240 -0.0299 -0.0647  0.0781
18392W        W33523   0.505  18.541   3.252 -0.1035  0.1827  0.2497
18393W        W33524   2.075  14.025   6.054 -0.0066 -0.0011 -0.0382
18394W        W33525   9.891  14.363  14.815 -0.3456 -0.0438  0.0332
18395W        W33526   5.885  14.897  14.571 -0.2424  0.1932  0.1810
18396W        W33527  11.211   2.438  13.747  0.1457  0.0666 -0.2285
18397W        W33528   4.907  14.090  14.159 -0.1538 -0.1849  0.3388
18398W        W33529  15.915   0.919  13.186 -0.1772  0.1565  0.0978
18399W        W33530   4.436  11.430   2.910 -0.0221 -0.0784  0.0561
18400W        W33531   6.631   4.145   4.360  0.0498 -0.2322  0.0650
18401W        W33532  11.610  15.372   9.871 -0.0416 -0.0385  0.0268
18402W        W33533  11.142  14.554  14.548  0.0523 -0.3757  0.0675
18403W        W33534  12.884   7.644  14.339  0.0920 -0.3369 -0.2245
18404W        W33535  18.278  17.757  11.359 -0.1466 -0.0487  0.1715
18405W        W33536  16.655   4.565  14.901  0.2288 -0.2429  0.3817
18406W        W33537  12.192  18.535   3.207  0.5128 -0.0319  0.2962
18407W        W33538  15.441  10.889  12.749 -0.0089  0.0451 -0.0605
18408W        W33539   9.193  11.772   3.828 -0.1248  0.0419  0.4257
18409W        W33540   3.115  17.429   5.823 -0.1541  0.0440  0.0671
18410W        W33541  12.145   2.222   0.565 -0.1451 -0.1146  0.4290
18411W        W33542   1.838   1.834   1.680 -0.0221 -0.2863 -0.3948
18412W        W33543   8.060  11.904   9.762  0.3253  0.2633 -0.2142
18413W        W33544   5.734   1.125   0.298 -0.2343  0.0529  0.3137
18414W        W33545  10.234  14.277  12.421 -0.1899 -0.1025  0.0464
18415W        W33546   0.494   7.473  13.700  0.2500 -0.1762 -0.0255
18416W        W33547   4.541  17.849  11.713 -0.0096  0.2400 -0.0643
18417W        W33548  11.823   0.828   5.071 -0.2649  0.2275  0.2458
18418W        W33549   0.928   4.880  14.099  0.2107  0.0701 -0.2260
18419W        W33550   6.891   5.377  12.881  0.2732 -0.0547 -0.1229
18420W        W33551  15.843   7.238   1.868 -0.1458  0.0990 -0.0737
18421W        W33552   9.274  12.467   1.667  0.0547 -0.1465  0.2798
18422W        W33553   9.162  10.254   2.157  0.4448 -0.5475 -0.3428
18423W        W33554   9.788  14.522   3.870  0.2332  0.2896 -0.2298
18424W        W33555   5.990   0.156   0.780  0.1310  0.2319 -0.3082
18425W        W33556  14.967   9.102  10.485 -0.1448 -0.0727  0.0757
18426W        W33557   3.287   1.920  15.723  0.2309 -0.0197  0.1927
18427W        W33558   2.669   2.723   0.697  0.3265  0.1273 -0.0258
18428W        W33559  18.181  16.865   3.718 -0.2470 -0.4388  0.3900
18429W        W33560  10.702  11.668   2.807  0.0781  0.3055 -0.3106
18430W        W33561   4.494  17.892  14.677  0.2391 -0.1141  0.0888
18431W        W33562   7.057  12.606  13.994 -0.0523  0.0762 -0.2317
18432W        W33563   9.716   9.668  13.232 -0.1304 -0.0010  0.3422
18433W        W33564  11.175  10.862  10.750  0.1290  0.0488  0.1883
18434W        W33565   2.372   3.306   6.024 -0.0852 -0.3220  0.0708
18435W        W33566  13.549  10.660  14.700 -0.1386 -0.2044 -0.0968
18436W        W33567   9.690  10.181   3.965  0.2222  0.1772  0.1394
18437W        W33568   1.911  17.432  11.888 -0.0600  0.0834  0.1750
18438W        W33569   4.934  11.849   5.116 -0.2155 -0.2184  0.1683
18439W        W33570  15.327   3.510  14.074  0.1023  0.1204 -0.1082
18440W        W33571   7.366   5.214  12.010 -0.0136  0.1636  0.1494
18441W        W33572   3.656  13.846   4.375 -0.0401  0.1461  0.2423
18442W        W33573   7.778  11.274  15.035 -0.0869 -0.0568  0.0843
18443W        W33574  16.400  12.884  15.764 -0.1493  0.3698  0.3812
18444W        W33575  18.470   9.582   1.028  0.1712  0.0998 -0.0116
18445W        W33576   1.162   1.252  14.453  0.3864 -0.4484  0.1651
18446W        W33577   2.147   5.428   4.293 -0.1150 -0.0223 -0.0774
18447W        W33578   1.925  11.459  12.084  0.1516 -0.1641  0.3015
18448W        W33579  14.031   9.855   3.218 -0.0458  0.1141 -0.1086
18449W        W33580   0.206  14.218   1.812  0.1093 -0.2008  0.3460
18450W        W33581   6.852  14.558   3.535  0.0210  0.0860  0.0864
18451W        W33582  15.520   0.019   5.157 -0.3748 -0.1927 -0.0428
18452W        W33583   1.704  16.042  15.865  0.1035 -0.2823  0.2816
18453W        W33584   7.770   7.921  13.894 -0.1560  0.0049  0.2787
18454W        W33585   9.245  10.709   2.917 -0.1801  0.1916 -0.1706
18455W        W33586   1.009  12.019   2.503  0.0496 -0.0201 -0.0673
18456W        W33587  15.421   0.337  14.310  0.2287 -0.0414  0.4735
18457W        W33588   9.685  13.633  10.593 -0.1472  0.4587 -0.0326
18458W        W33589  10.108   6.760  11.745 -0.0529 -0.0481 -0.0345
18459W        W33590  17.482   6.954   2.287  0.1170  0.0848 -0.0818
18460W        W33591   2.808  13.003  15.848 -0.0199 -0.1428 -0.2770
18461W        W33592  13.842   9.408   2.248  0.0327 -0.0486 -0.3324
18462W        W33593   3.410  14.060   1.446  0.3009  0.0105 -0.2562
18463W        W33594  12.412   9.935  11.437  0.1703  0.2126  0.3064
18464W        W33595  17.195   9.546   0.713  0.0494 -0.0039  0.0333
18465W        W33596   3.966   5.131  12.896  0.1003  0.2983  0.2853
18466W        W33597  10.981  11.533  10.803 -0.0915 -0.0853 -0.1018
18467W        W33598   3.479  18.219  14.897 -0.1346  0.0023 -0.0891
18468W        W33599   6.630  12.064   0.729  0.0471  0.0912 -0.0415
18469W        W33600  18.063  14.964  15.829  0.0758 -0.1488 -0.1442
18470W        W33601  12.356   0.738  14.564  0.1135  0.1303 -0.0318
18471W        W33602   9.517   9.852  12.044  0.0260 -0.1912 -0.1741
18472W        W33603   0.551  14.080  15.305 -0.0192 -0.0784 -0.3536
18473W        W33604   8.034  13.607  11.246 -0.0732  0.1357  0.2314
18474W        W33605   4.874   3.007  14.987 -0.0780  0.0691  0.2084
18475W        W33606   5.905  13.032   3.293 -0.0038 -0.3792  0.0649
18476W        W33607  17.938   1.341   3.164 -0.0629  0.1009  0.0315
18477W        W33608   2.886   4.779   1.760 -0.1837  0.3610 -0.3752
18478W        W33609   9.906   1.662  12.694 -0.0877 -0.1285 -0.0639
18479W        W33610  12.488  12.669   0.288  0.0937 -0.3482 -0.0028
18480W        W33611  14.507   3.822   4.182  0.1475  0.5443  0.0129
18481W        W33612   0.673  15.194   2.547  0.0754  0.4286  0.0867
18482W        W33613  18.554   0.336  15.909  0.2246  0.0977 -0.1189
18483W        W33614   3.397   4.458   0.978 -0.0062  0.1383  0.2941
18484W        W33615  14.527  18.260  12.114  0.3614  0.0105  0.2529
18485W        W33616  16.129  11.945   0.075 -0.0610  0.1860  0.1524
18486W        W33617  15.814   4.798   1.085  0.0952  0.3885 -0.3069
18487W        W33618   2.875   2.096  10.166  0.0433  0.0776  0.2060
18488W        W33619   8.056  16.451   2.207  0.0535 -0.2263 -0.1583
18489W        W33620  17.980   2.198   3.507  0.3617 -0.1845 -0.3242
18490W        W33621  13.727  13.702   2.574 -0.0369 -0.3993 -0.0061
18491W        W33622   4.392   1.880  15.906  0.2073 -0.0347 -0.0286
18492W        W33623   3.565  10.533  11.978  0.1331  0.4379  0.0117
18493W        W33624  13.140  11.027  13.098 -0.0303 -0.0665 -0.1823
18494W        W33625  17.481  12.666  12.929  0.1949 -0.0036  0.0909
18495W        W33626  11.501   6.903   0.460 -0.2215 -0.3895 -0.4778
18496W        W33627  12.734   2.826   2.839  0.0158  0.3836  0.1115
18497W        W33628  18.536   9.662   2.149  0.2227 -0.0543  0.1164
18498W        W33629  12.049  13.091   2.632 -0.2967 -0.3314 -0.0368
18499W        W33630  13.830   4.092   1.616  0.2237 -0.6094  0.1428
18500W        W33631  13.062   2.189   2.060 -0.0275  0.2294 -0.2540
18501W        W33632  12.097   6.489   3.215 -0.0109 -0.0305  0.0801
18502W        W33633   5.026   5.456  14.175 -0.1231  0.1645 -0.1623
18503W        W33634  11.121   9.921  14.139  0.0042 -0.1080  0.0281
18504W        W33635   9.031   7.930   3.990 -0.3706  0.0570  0.3193
18505W        W33636   5.619   2.211  12.064 -0.2188 -0.2849 -0.0634
18506W        W33637   9.569  13.877   0.121  0.0671 -0.3091 -0.0475
18507W        W33638  11.337   5.034   0.369  0.0761 -0.0018 -0.0925
18508W        W33639  11.486   6.348   1.390 -0.0202 -0.0565  0.3097
18509W        W33640   9.106  11.328  12.082 -0.4342 -0.1921  0.0801
18510W        W33641   4.225  18.137  15.607 -0.0648 -0.2543  0.0839
18511W        W33642   1.340   9.892  15.052 -0.0243  0.2824  0.0992
18512W        W33643  18.339   9.829  15.090  0.3691  0.0957  0.1773
18513W        W33644  12.651   5.501  14.057  0.3507  0.0470 -0.0144
18514W        W33645   5.029  11.466   1.763  0.0939 -0.2617 -0.0884
18515W        W33646  10.907  14.280  10.661  0.1246 -0.0720 -0.4388
18516W        W33647   7.830   1.770  11.127 -0.0726  0.1618 -0.4515
18517W        W33648  15.691  11.750  13.818  0.0782  0.0361 -0.0838
18518W        W33649  12.760   5.137   0.060 -0.1382  0.0631  0.1974
18519W        W33650  14.730   1.329  15.187 -0.0759 -0.1501 -0.1907
18520W        W33651   8.250  12.780  13.252 -0.0875  0.1813  0.4114
18521W        W33652   6.525   1.312   0.635  0.1663 -0.3234  0.0348
18522W        W33653   3.576  15.588  12.147 -0.3094  0.0284 -0.1019
18523W        W33654   6.631   0.065  15.895 -0.0301 -0.1960 -0.1698
18524W        W33655  13.692   3.072  11.279 -0.2556  0.1560 -0.1283
18525W        W33656  10.289  15.402  12.006 -0.1323 -0.1283  0.0469
18526W        W33657  13.105   6.684  15.509  0.1880 -0.3268  0.0602
18527W        W33658   2.820   9.896   4.475 -0.1754  0.0027  0.1313
18528W        W33659   5.705   6.429  15.684 -0.3689 -0.3546 -0.1805
18529W        W33660   4.891  15.621  14.198 -0.1501 -0.2066  0.2154
18530W        W33661  14.760  15.488  12.807 -0.1028 -0.0567 -0.0750
18531W        W33662   4.197  13.730  15.769 -0.2443  0.0368 -0.0404
18532W        W33663   6.882  10.715  10.565 -0.2161  0.1694 -0.2079
18533W        W33664  13.974   4.621  13.218  0.1037 -0.0397 -0.1010
18534W        W33665   7.806  12.254   1.350 -0.0762 -0.1016 -0.0256
18535W        W33666   6.036   2.074   2.135 -0.3038  0.0673  0.1365
18536W        W33667  14.682   6.951   0.011  0.0144 -0.3434 -0.2566
18537W        W33668   9.183   7.446   1.414 -0.0031 -0.1267 -0.2592
18538W        W33669   6.521  13.227   1.636 -0.2513  0.1587 -0.0729
18539W        W33670  16.533  17.673  12.201 -0.0167 -0.0145  0.0651
18540W        W33671  14.976  10.944  10.614  0.2028  0.2947 -0.0853
18541W        W33672  10.948  17.171  14.592  0.3172 -0.0610 -0.3426
18542W        W33673  11.850   6.715   2.290 -0.0388 -0.0563 -0.3585
18543W        W33674   8.452  15.299   4.484 -0.0892  0.0437  0.2453
18544W        W33675   1.570  11.636  11.760 -0.0317  0.4423  0.0213
18545W        W33676   2.976   6.225  12.763 -0.2670  0.1526 -0.2532
18546W        W33677  16.838  12.681  12.027 -0.0059  0.2258  0.3160
18547W        W33678  16.197  18.273   2.821  0.1950  0.0293 -0.1742
18548W        W33679   2.438  17.853  14.051  0.0681 -0.1043  0.1328
18549W        W33680  15.126  15.152   2.874 -0.0052 -0.0837 -0.1798
18550W        W33681   7.760   5.068   4.664  0.1107 -0.0473  0.0245
18551W        W33682  17.378   1.852   6.003  0.1509 -0.0844  0.0495
18552W        W33683   5.688  16.198   0.432  0.0054  0.3354  0.1709
18553W        W33684   0.908  15.432  10.879  0.0160 -0.0218  0.0534
18554W        W33685  14.074   0.307   5.347 -0.1751  0.2190  0.0787
18555W        W33686  14.965   1.340   2.586 -0.1715 -0.0945  0.2292
18556W        W33687   4.642  14.290   5.259 -0.1731 -0.0788  0.1768
18557W        W33688   9.873  11.421  10.728  0.1549 -0.0952  0.0948
18558W        W33689   4.910  11.799   0.086  0.0115 -0.3181  0.1910
18559W        W33690   1.462   0.658  13.044  0.0442 -0.2412  0.0246
18560W        W33691   1.599   8.570  13.097  0.1272  0.1897  0.0085
18561W        W33692   3.661   1.372  13.448  0.2587  0.2318  0.1131
18562W        W33693   8.212   2.897   5.845 -0.0494  0.0062 -0.0260
18563W        W33694   0.994   7.353   0.715 -0.2060  0.0976  0.2699
18564W        W33695  13.735   4.982   3.527 -0.1766 -0.0584 -0.0718
18565W        W33696   3.357  10.629  11.100  0.0591 -0.0952 -0.1358
18566W        W33697   6.490   2.800  12.094  0.1864 -0.2801 -0.2803
18567W        W33698   3.446   5.271  11.143  0.1950  0.3256  0.0741
18568W        W33699  14.345  15.031   5.171  0.1671  0.1386 -0.0422
18569W        W33700   5.301  14.167  13.309  0.2542  0.0161  0.0412
18570W        W33701   5.348   7.508   4.114  0.0581 -0.2231 -0.1049
18571W        W33702   0.488  13.785   5.203 -0.0325 -0.1179  0.1585
18572W        W33703  11.925   8.371   2.562  0.3780  0.3673  0.0536
18573W        W33704  16.265   9.407  15.605  0.1189 -0.1154  0.1692
18574W        W33705  11.553   3.498   5.112 -0.0593 -0.0950 -0.1046
18575W        W33706  18.419  17.755  14.418 -0.0268 -0.0652  0.0445
18576W        W33707   0.618   2.909  10.848 -0.0294  0.0426  0.0522
18577W        W33708   9.956   1.795  13.222 -0.0648 -0.1644 -0.0061
18578W        W33709   2.895   1.585   4.935 -0.4329 -0.5285 -0.0147
18579W        W33710   4.287  11.319   5.436  0.0702 -0.1625 -0.0250
18580W        W33711   9.775  13.452   9.630  0.2197 -0.0866 -0.0106
18581W        W33712  16.220  11.026   0.852 -0.0757  0.0577  0.1819
18582W        W33713   0.665   0.666   1.493 -0.1667 -0.1072 -0.0083
18583W        W33714   4.406   1.481  11.343  0.0820  0.1100 -0.2703
18584W        W33715   5.075   2.305  14.383  0.0559 -0.0298  0.1064
18585W        W33716  14.080  15.154   2.036  0.0802 -0.1932  0.0339
18586W        W33717   6.839   1.616  11.169  0.3843 -0.0879  0.2036
18587W        W33718   0.707   6.262   0.195  0.0535  0.1319  0.1025
18588W        W33719  12.680  13.598   2.872 -0.2285 -0.0319  0.2580
18589W        W33720   0.264  13.398  14.516 -0.1431 -0.1656 -0.1277
18590W        W33721   4.066   3.922  11.887  0.1943 -0.0112  0.5178
18591W        W33722  10.333   5.277   0.638  0.0697 -0.1026 -0.3785
18592W        W33723   3.562   2.569   2.790  0.0836  0.0232 -0.1502
18593W        W33724   0.438   8.851   0.795  0.3200 -0.1185  0.1228
18594W        W33725  17.243   2.796   1.446  0.0008 -0.0093 -0.1501
18595W        W33726   5.160  11.491  11.696  0.1771 -0.0126 -0.0650
18596W        W33727  11.804  14.757   2.504  0.1105  0.1867 -0.0591
18597W        W33728  10.926  17.783  12.230 -0.1406 -0.0592 -0.4403
18598W        W33729   6.259  12.132  11.222 -0.1039  0.0277 -0.1190
18599W        W33730  11.465  13.398   1.089  0.0498  0.3304 -0.0453
18600W        W33731  13.162  17.750  10.730  0.0874  0.0298 -0.0114
18601W        W33732  14.254   7.906   0.714 -0.0015  0.1047 -0.1228
18602W        W33733   1.046  17.548  15.032  0.0525  0.1849  0.1268
18603W        W33734  12.325  12.961   2.212  0.0394 -0.0156  0.0451
18604W        W33735  17.090   2.745   3.902  0.3480  0.0018 -0.0302
18605W        W33736  15.678   9.721   5.430 -0.0257  0.0072  0.0617
18606W        W33737   6.727  13.681   3.814  0.0964  0.0343 -0.0613
18607W        W33738   3.714   1.263   0.652  0.1997  0.2291  0.0867
18608W        W33739   1.263   7.011  12.281 -0.1305  0.0254 -0.2184
18609W        W33740   2.366   5.072   1.448  0.0765 -0.0520  0.0876
18610W        W33741   6.055   2.417  14.254  0.0775 -0.3497  0.0722
18611W        W33742  15.962  14.063   3.759  0.2548  0.0839  0.1010
18612W        W33743  17.563  12.498  12.082  0.0696  0.2725 -0.0787
18613W        W33744  15.945   2.023   5.599  0.3068  0.0984  0.0257
18614W        W33745  11.454  16.505   1.632  0.0424  0.2751  0.3832
18615W        W33746  14.819   8.644   4.314  0.0637 -0.0945 -0.0321
18616W        W33747   0.320  12.901  12.840 -0.0482  0.3911 -0.3323
18617W        W33748  10.439  10.932  13.912 -0.2659  0.1658  0.0270
18618W        W33749   4.084  16.500   4.078 -0.1247 -0.3350  0.2041
18619W        W33750  14.990  11.234   1.522  0.0691  0.0604  0.2405
18620W        W33751  11.981   2.261   4.375  0.2662 -0.1712  0.1785
18621W        W33752   3.435  11.231   4.465  0.4481  0.2058 -0.2714
18622W        W33753   2.463   3.942  10.030 -0.0095 -0.0076 -0.2509
18623W        W33754  16.626   7.801  14.101 -0.0543  0.0757 -0.1485
18624W        W33755   5.967   3.201  12.992  0.2902  0.0132 -0.0566
18625W        W33756   3.175   0.556   1.914  0.2422 -0.0403  0.0294
18626W        W33757   4.252  13.541   0.861  0.0096 -0.0279 -0.0877
18627W        W33758  17.284   4.979   0.002 -0.1435  0.0186  0.3735
18628W        W33759  14.830   3.167   2.003  0.0924  0.1425 -0.2885
18629W        W33760   9.671  16.247  13.172  0.2541 -0.2184 -0.0631
18630W        W33761   1.906  12.896   3.467 -0.2840 -0.0265  0.2333
18631W        W33762   4.079   3.883   2.664 -0.3724  0.1747  0.1232
18632W        W33763   3.488   2.391   3.256 -0.0039 -0.1519  0.0132
18633W        W33764   6.463   7.303  11.427 -0.1511  0.0087 -0.2547
18634W        W33765   0.955  16.254  15.260 -0.4237  0.2278  0.2429
18635W        W33766   1.202   0.193   3.777 -0.2578  0.0183  0.1412
18636W        W33767  10.032   8.772  14.660 -0.1583  0.3836 -0.2042
18637W        W33768   9.356   4.177  14.449  0.0986  0.1255  0.0765
18638W        W33769  16.064  16.510   1.962 -0.1159  0.1644 -0.1154
18639W        W33770   1.305   5.123  11.640 -0.1505 -0.1264 -0.1103
18640W        W33771  14.735  14.543   2.235  0.0718  0.1317  0.0096
18641W        W33772   4.300  18.324   0.906 -0.0882  0.0691  0.1811
18642W        W33773  18.108  15.862  12.654 -0.1223  0.0344  0.1850
18643W        W33774  15.205  16.898   5.329  0.0141 -0.0690 -0.0946
18644W        W33775  10.495   6.515   5.530 -0.2943  0.1909  0.1096
18645W        W33776   3.498   0.606   4.293 -0.3380 -0.0204  0.1660
18646W        W33777   0.567   8.688  15.631  0.0930  0.2302 -0.0944
18647W        W33778   1.187   3.982  15.696  0.1211 -0.2866 -0.3022
18648W        W33779  11.154  11.208   1.148 -0.1382 -0.1997 -0.1693
18649W        W33780   6.628  18.236   5.931  0.1338  0.1378 -0.1766
18650W        W33781  10.042  10.432   0.753  0.1510 -0.1034  0.3991
18651W        W33782   9.244  11.460  14.431 -0.1018  0.0153 -0.3738
18652W        W33783  12.550   1.364  14.325 -0.2540  0.0925  0.0014
18653W        W33784  11.112   9.354  11.245 -0.0730  0.1158  0.0336
18654W        W33785   8.619   1.702  11.690  0.2479  0.0410  0.1079
18655W        W33786   7.414  16.775   1.301 -0.0863 -0.1021  0.3628
18656W        W33787  14.836   3.463  14.942 -0.3206  0.0853  0.2445
18657W        W33788   8.999  15.423   9.985  0.2864 -0.0888 -0.0031
18658W        W33789  13.398   6.725   0.485  0.0750  0.2322 -0.2268
18659W        W33790  11.936  11.197  14.593  0.1289  0.1498  0.0065
18660W        W33791  17.870   2.208  14.582  0.2800  0.1582 -0.1092
18661W        W33792   6.895   6.234   1.578 -0.0483 -0.0059  0.0853
18662W        W33793   3.603   5.694   0.942 -0.2080  0.2154  0.0166
18663W        W33794  16.395  16.230   2.949  0.2603 -0.1304  0.0335
18664W        W33795  16.438  15.723   5.006 -0.0256 -0.3359  0.0693
18665W        W33796  17.004  17.296  15.659  0.1248 -0.0223  0.0838
18666W        W33797  13.659  17.801  10.897 -0.0354  0.2052  0.2474
18667W        W33798   9.465   1.341  11.563  0.0894  0.0711 -0.0084
18668W        W33799  11.700   9.037  12.619 -0.2078 -0.2491 -0.1147
18669W        W33800  16.276  15.847   1.494 -0.1003  0.2313 -0.1855
18670W        W33801   7.145  11.211  15.863  0.0207 -0.1031 -0.5103
18671W        W33802   8.505  12.957   1.360 -0.1018 -0.1284 -0.1345
18672W        W33803   9.696  18.286   3.596  0.0904  0.2050  0.1177
18673W        W33804   7.230   6.251  15.763 -0.0376  0.0698  0.0258
18674W        W33805  11.404  16.598   3.464  0.0410 -0.0622  0.0629
18675W        W33806  17.944  13.406  14.241  0.2369  0.1582  0.2911
18676W        W33807  17.809  10.453  15.129  0.2843 -0.1206 -0.1059
18677W        W33808  12.887   2.418  11.399 -0.1057  0.2161  0.0575
18678W        W33809   8.604  15.303   2.349 -0.3395  0.2128 -0.1347
18679W        W33810   6.600  17.784   5.336 -0.1190 -0.1179 -0.1316
18680W        W33811   0.324  11.032  12.166 -0.1671  0.2027 -0.4951
18681W        W33812  16.099   6.926   0.166 -0.1541 -0.2426  0.1699
18682W        W33813  18.083   4.654   1.935 -0.1512  0.2345 -0.0875
18683W        W33814   7.186   0.927   5.705  0.1942  0.0823 -0.3353
18684W        W33815   0.993   0.243   4.189 -0.0005 -0.0411  0.0709
18685W        W33816   3.654  18.052   0.018 -0.1908 -0.2230 -0.0171
18686W        W33817  11.444  10.190  11.507  0.0332  0.2417 -0.2645
18687W        W33818  12.266  13.814   5.596 -0.1179 -0.0434 -0.1645
18688W        W33819  17.085   4.404  13.628  0.0826  0.0242  0.0801
18689W        W33820  17.339   1.918   2.816 -0.1613 -0.1280  0.3154
18690W        W33821  15.920  12.262  13.466 -0.0121  0.2067  0.0710
18691W        W33822  12.702  13.215   2.401 -0.1739 -0.1720 -0.1296
18692W        W33823   6.060   8.233  13.790 -0.1083  0.0275  0.7389
18693W        W33824   4.832   1.742  11.529 -0.1144 -0.0627 -0.0410
18694W        W33825  13.208  16.489   5.184  0.0394  0.1282  0.2251
18695W        W33826  10.208  13.688   3.319 -0.0209  0.2431  0.0542
18696W        W33827   4.854  16.844  12.774  0.1805 -0.4615  0.1060
18697W        W33828  12.683   2.679   2.261 -0.0045  0.0876 -0.2007
18698W        W33829   8.823   4.206   1.567 -0.0901  0.4443 -0.0316
18699W        W33830  10.784   3.208  12.137 -0.1334  0.5690 -0.0837
18700W        W33831   9.243  17.681   3.350  0.1494  0.0947  0.2324
18701W        W33832  11.833   2.603  11.680 -0.3323 -0.1614 -0.0915
18702W        W33833   8.826   4.890   2.569 -0.1247  0.1034  0.0299
18703W        W33834  17.120  13.680  10.448  0.0187  0.1253  0.2616
18704W        W33835   0.524   0.166   4.934 -0.0638 -0.1467 -0.1236
18705W        W33836   6.122   1.113   1.509  0.2073  0.0206  0.1008
18706W        W33837   9.588   2.891   4.398 -0.0381  0.3106  0.1186
18707W        W33838   7.994  15.235  13.239  0.0474 -0.2604  0.1924
18708W        W33839  15.415  10.858   0.241  0.0535 -0.2450  0.0102
18709W        W33840  17.395   5.970   2.570  0.1093 -0.2500  0.1683
18710W        W33841  10.504  10.885  12.119  0.0289  0.0158  0.2519
18711W        W33842   8.026   0.214   4.686  0.4003  0.3157  0.0478
18712W        W33843  11.128  11.207  11.792 -0.1589 -0.1386 -0.0852
18713W        W33844  12.491  11.520   1.874  0.0556  0.2907  0.0860
18714W        W33845  12.595   8.542  12.015 -0.0461 -0.0511  0.2445
18715W        W33846   7.356   3.682   2.290  0.0338  0.1298 -0.0744
18716W        W33847   5.553  11.332  11.330 -0.0123  0.0245  0.0195
18717W        W33848  17.401  12.963   4.575 -0.3310 -0.1622 -0.2847
18718W        W33849   1.230  10.902   3.210 -0.1357 -0.1546 -0.0038
18719W        W33850  12.763   5.674  10.428 -0.0366 -0.0859  0.0672
18720W        W33851   7.361   8.482  11.890  0.2645  0.2105  0.0308
18721W        W33852  15.746   5.907   1.282 -0.3213 -0.1736  0.2441
18722W        W33853   9.487   1.386  10.970 -0.2621 -0.3189 -0.0360
18723W        W33854   1.573   6.269  12.934  0.2550  0.0699  0.1577
18724W        W33855   3.569   7.996  10.156 -0.0844 -0.4865  0.0527
18725W        W33856  17.664   4.276  13.002  0.1780 -0.0253  0.2596
18726W        W33857  15.930   7.723  12.966  0.0547  0.2922 -0.0524
18727W        W33858   1.595   9.261   4.232  0.0860  0.3761 -0.0205
18728W        W33859   4.240   0.065  11.694 -0.0981 -0.2342 -0.1739
18729W        W33860   5.037   7.692  11.560 -0.5746  0.1118  0.0606
18730W        W33861  10.740  17.732   5.131  0.2489  0.1752  0.3967
18731W        W33862   7.274  14.536  12.361 -0.0808 -0.1610  0.0368
18732W        W33863   7.018  15.087   4.701 -0.1088 -0.1473  0.1016
18733W        W33864  15.471  18.535   0.859  0.3942  0.3050  0.0542
18734W        W33865   0.383  10.330   2.747 -0.0962 -0.2028 -0.1679
18735W        W33866   4.368  14.530  13.602 -0.0527  0.0843  0.1309
18736W        W33867  14.486   0.219  14.342  0.0361 -0.0442 -0.0216
18737W        W33868   9.853  17.933  14.618  0.1302  0.0122 -0.0095
18738W        W33869  16.416   4.545  14.376 -0.0918  0.1992  0.2151
18739W        W33870   6.482   4.416  14.721  0.1098  0.0087  0.2726
18740W        W33871   9.706   6.214  12.751  0.1203  0.0869 -0.0513
18741W        W33872  10.321  14.820   1.224 -0.0304  0.3326 -0.1447
18742W        W33873  14.329  12.891   1.762 -0.1808  0.0763  0.0043
18743W        W33874  18.265   0.109   2.735 -0.2062  0.3289 -0.0244
18744W        W33875  16.562  14.830   0.408  0.0866  0.0817 -0.2653
18745W        W33876   5.952  15.596   3.261  0.1692  0.5784 -0.2096
18746W        W33877   8.989  12.413   0.597  0.2889  0.0495 -0.2154
18747W        W33878  11.045   6.053  11.168  0.2820  0.0840 -0.0571
18748W        W33879  16.880  15.724  13.107  0.0141 -0.2849  0.0035
18749W        W33880  12.435   0.429   2.547  0.1289 -0.1504  0.0100
18750W        W33881  16.088   5.999  13.579 -0.2504 -0.3108  0.2034
18751W        W33882   5.590  11.724  12.966 -0.2406  0.0280 -0.1860
18752W        W33883   7.749  12.322   0.207  0.1626 -0.1792 -0.0590
18753W        W33884  12.726  11.541   2.452 -0.0379  0.1818  0.0848
18754W        W33885   0.304  12.069  15.219  0.2239  0.1812 -0.2703
18755W        W33886  13.701  10.968   4.666 -0.0984  0.1064  0.1413
18756W        W33887   6.165  13.055   2.059  0.2355  0.2819 -0.1664
18757W        W33888  10.787  11.641   3.751 -0.3658 -0.1468  0.0146
18758W        W33889  14.105  16.900   1.974 -0.4182 -0.1042 -0.2161
18759W        W33890   0.597  12.169  13.832  0.3150  0.2631  0.0665
18760W        W33891  16.515   8.901   5.170  0.1024 -0.2042  0.4022
18761W        W33892   4.987   1.306   4.391  0.4012 -0.0963  0.0872
18762W        W33893   3.484  14.210  12.713  0.0450 -0.1499  0.0016
18763W        W33894   8.734   8.729   3.346 -0.0806 -0.0082  0.2274
18764W        W33895   4.955  14.632  11.104 -0.3117  0.0843 -0.1584
18765W        W33896   6.997  17.490   4.020 -0.0296 -0.2248 -0.1506
18766W        W33897   9.466  12.271   0.766  0.5015 -0.0214  0.0601
18767W        W33898  12.003  15.551  11.770  0.1674  0.1180  0.3071
18768W        W33899   0.077  13.895  15.308 -0.3166  0.0619  0.0619
18769W        W33900   7.522   4.793  12.194 -0.0834  0.1409 -0.4427
18770W        W33901  14.830   0.044   1.740  0.3111 -0.0603 -0.2267
18771W        W33902  14.088   3.747   4.484  0.0707 -0.0271 -0.1539
18772W        W33903   0.288  11.972   3.950  0.1031  0.1568  0.1946
18773W        W33904   9.063   0.138   4.162 -0.3086  0.1880 -0.0501
18774W        W33905   0.303   5.426  11.854  0.0757  0.3745  0.1030
18775W        W33906  12.511   2.009   5.108  0.0460 -0.1122  0.4362
18776W        W33907   1.478   8.751  10.070 -0.2674  0.0897  0.0552
18777W        W33908  16.809   5.167  11.510  0.0165  0.2417  0.1457
18778W        W33909   6.048   2.768   3.982  0.0622  0.1996 -0.0090
18779W        W33910   0.740  12.802   2.365 -0.0395 -0.1121 -0.1170
18780W        W33911   6.452  12.042   3.224  0.0329  0.3094 -0.0438
18781W        W33912  11.049   7.702  15.696 -0.0153 -0.0664 -0.0944
18782W        W33913   6.751   7.063  10.405  0.2294 -0.2537 -0.2012
18783W        W33914   9.531   6.676   1.807 -0.1031  0.0689  0.1791
18784W        W33915   1.192   1.098   0.490 -0.1130  0.1744 -0.0211
18785W        W33916  15.682   9.849  14.252  0.2161  0.1900  0.0352
18786W        W33917  14.193   5.643  10.706 -0.0629 -0.1018 -0.2238
18787W        W33918  15.645   4.453   0.579  0.1886  0.1149  0.0178
18788W        W33919  14.495  17.060   4.578 -0.1341 -0.0177 -0.0795
18789W        W33920  15.230   3.967  12.926  0.2259  0.1806  0.0656
18790W        W33921   5.808  11.185  15.757  0.1994  0.5847 -0.0678
18791W        W33922   6.579  13.686  15.052  0.0376 -0.0221 -0.3206
18792W        W33923  18.101  13.552   4.049  0.1174 -0.1166 -0.4388
18793W        W33924   7.389   2.450   0.560 -0.0825  0.1694 -0.3223
18794W        W33925  13.328   3.063   0.090  0.4096 -0.1765 -0.0479
18795W        W33926  17.194   6.111  13.213 -0.0984 -0.0504  0.3974
18796W        W33927   7.607  10.493  14.073  0.0511 -0.1383  0.1116
18797W        W33928  15.724   0.169  13.512 -0.1099  0.0790  0.1627
18798W        W33929   3.840   7.767   2.466  0.1536  0.0318 -0.1097
18799W        W33930   5.456  10.117   1.387  0.0396 -0.0698  0.0302
18800W        W33931   5.430  16.395  11.282 -0.0170 -0.0376 -0.4688
18801W        W33932   2.844  12.366  15.575  0.0651  0.0337  0.0163
18802W        W33933  10.153  18.077   3.521  0.0862 -0.1726 -0.1302
18803W        W33934  18.464  17.264  11.157  0.0584  0.0813  0.3930
18804W        W33935   3.650   2.196  14.019  0.2202 -0.1948  0.0666
18805W        W33936  12.621  14.930   2.249  0.1739 -0.0229 -0.0120
18806W        W33937   7.675   4.344   1.332 -0.0992 -0.0740  0.0469
18807W        W33938   2.270   7.272   1.198 -0.4558 -0.0017  0.1324
18808W        W33939   0.641   4.717   2.411 -0.1025 -0.0530 -0.1120
18809W        W33940  14.656  11.985  14.900  0.2740  0.0798  0.1817
18810W        W33941  15.273  11.124   5.435  0.3838  0.2032 -0.0313
18811W        W33942   8.292   7.891   1.390  0.0699  0.3792  0.0631
18812W        W33943   5.552   1.977  14.174  0.1699 -0.2156 -0.4269
18813W        W33944  13.850  12.769  15.550  0.0027  0.0825  0.1268
18814W        W33945  10.545  15.584  10.272  0.2271 -0.3303 -0.2937
18815W        W33946  10.430   3.808   1.173  0.1235 -0.4213 -0.2826
18816W        W33947   0.802  10.215   2.884 -0.1220 -0.4923 -0.3515
18817W        W33948  16.535  11.475  13.549 -0.0984 -0.0849  0.2198
18818W        W33949   1.215   7.265   4.308 -0.3947  0.4599  0.2024
18819W        W33950   1.934   0.230   1.882  0.1978  0.2293  0.0374
18820W        W33951   6.203   2.886  11.249  0.1906  0.2966  0.4476
18821W        W33952   6.957   8.489   0.674  0.1020 -0.1126  0.0495
18822W        W33953   1.606   3.502  12.317 -0.1524 -0.4446  0.2102
18823W        W33954  15.775  14.868   1.777  0.1138 -0.0082  0.3293
18824W        W33955   7.970   7.462  13.821  0.0737 -0.3552  0.3336
18825W        W33956  11.738   6.029  13.323  0.0428  0.1977 -0.2381
18826W        W33957  18.376  12.208   4.887 -0.4117 -0.1020  0.0359
18827W        W33958   8.018   7.890  11.285 -0.0993  0.0739  0.2170
18828W        W33959   5.095   9.349  10.974  0.0559  0.0768 -0.0718
18829W        W33960  10.309   1.448  13.212  0.1082  0.4594 -0.0191
18830W        W33961   1.619  14.442  15.682 -0.3248  0.2698 -0.2357
18831W        W33962  16.219   9.595   0.111  0.0008 -0.2730 -0.2369
18832W        W33963  17.075  12.599   1.740  0.0428  0.0029  0.1326
18833W        W33964  12.014   1.053   1.926  0.4284 -0.3821  0.0402
18834W        W33965   6.376  16.469   4.038 -0.0315 -0.4029  0.0235
18835W        W33966  14.606  15.774  12.473  0.1318  0.0005  0.1683
18836W        W33967  10.901  17.992   0.781 -0.0690 -0.0249 -0.4640
18837W        W33968   5.446  14.753  15.366 -0.0836  0.2402 -0.0266
18838W        W33969   1.856  16.861  12.249  0.2428 -0.0622 -0.0815
18839W        W33970   8.169   2.064  14.153 -0.2450  0.0335  0.0702
18840W        W33971   3.746   9.433   2.828  0.0226  0.1937 -0.0564
18841W        W33972  12.570   5.908  12.878  0.1619  0.1763  0.1781
18842W        W33973  17.826  16.267   2.488 -0.2566 -0.2031  0.1359
18843W        W33974   2.972  15.553  13.454  0.1863 -0.1289 -0.0704
18844W        W33975   6.661   1.590  13.934 -0.0935  0.1565  0.1174
18845W        W33976  13.033  10.383  15.284  0.0994 -0.2710  0.2472
18846W        W33977   9.135   6.101   3.055 -0.0359  0.2020 -0.1062
18847W        W33978  10.626  15.493  12.404  0.1004 -0.1189 -0.2461
18848W        W33979   8.484   7.625   2.120  0.2759  0.2125 -0.1414
18849W        W33980  12.724   1.669   0.185 -0.1943  0.0281 -0.2137
18850W        W33981   5.059   6.363   4.083  0.2379 -0.0260 -0.0678
18851W        W33982   3.802  10.433  15.685 -0.2127 -0.1391  0.0275
18852W        W33983  17.091  11.686   5.172  0.4360  0.3090  0.2243
18853W        W33984   0.962  11.938   0.673  0.0678  0.1505  0.0851
18854W        W33985  13.556   9.355   1.601 -0.0115 -0.0456 -0.5126
18855W        W33986   2.793  10.078  11.394 -0.2191 -0.2058 -0.0811
18856W        W33987  10.548   4.001  14.178  0.2408  0.4250  0.0066
18857W        W33988  15.802   2.071   0.863  0.0222  0.1161 -0.0003
18858W        W33989   0.809   6.888   4.282 -0.1366  0.1338 -0.0967
18859W        W33990  13.951   8.156   3.085  0.0213 -0.0154  0.2189
18860W        W33991   6.796   3.361   3.830 -0.2526  0.2066  0.3090
18861W        W33992  12.812  17.804   0.094 -0.2195  0.1156 -0.1253
18862W        W33993  17.615   1.266   5.243 -0.0769  0.4230  0.0843
18863W        W33994  16.939   5.556   3.233  0.2948 -0.1355  0.1948
18864W        W33995   3.473  11.483   5.473 -0.0306  0.0721 -0.3041
18865W        W33996  17.308   8.070   0.268 -0.0344  0.1050 -0.2497
18866W        W33997   6.328   8.110  14.242 -0.2215 -0.1069 -0.3192
18867W        W33998  13.899   5.503   0.166  0.2354  0.1262 -0.3088
18868W        W33999   5.545  14.365   4.910 -0.0550 -0.2626  0.1338
18869W        W34000   6.490  11.529   1.607 -0.0629 -0.0201 -0.1694
18870W        W34001  13.124  12.882   1.123 -0.0347 -0.5228  0.1399
18871W        W34002  16.470   7.684   1.368 -0.0852 -0.3299  0.2176
18872W        W34003  12.380  15.549  14.481  0.2902 -0.0581 -0.0355
18873W        W34004  15.662  10.896   4.437 -0.1689  0.2610 -0.2824
18874W        W34005   6.003  17.542   3.496 -0.0895  0.3385  0.3749
18875W        W34006  15.217   3.594   0.840  0.0669  0.0913  0.0234
18876W        W34007   0.827   8.903  13.529 -0.2279  0.2186  0.0686
18877W        W34008   9.081   6.308   2.091  0.0399 -0.0874 -0.2121
18878W        W34009  14.425   9.557   1.562 -0.0604  0.1368  0.0953
18879W        W34010  14.576   3.122  15.431  0.0032 -0.2379  0.0473
18880W        W34011  16.026   1.769   5.119 -0.1816 -0.1096  0.1862
18881W        W34012  10.937   2.711  15.580  0.0731 -0.0489 -0.0289
18882W        W34013  13.403   7.516  15.370 -0.0197 -0.0197 -0.2134
18883W        W34014   9.620   3.311   4.757 -0.1280 -0.1757 -0.0224
18884W        W34015   2.052  10.066   3.182  0.3504 -0.1928 -0.1679
18885W        W34016   8.210   3.972   2.757  0.0437  0.2133 -0.2672
18886W        W34017   6.836   0.835   1.766  0.2542  0.3430  0.0744
18887W        W34018  13.368   0.676   4.688 -0.0737 -0.3832  0.1545
18888W        W34019  10.447   6.239   5.086  0.3114 -0.1271  0.0125
18889W        W34020  15.605  11.875   3.303 -0.0617 -0.1092  0.2157
18890W        W34021   4.979  18.111  11.979 -0.4169  0.0378  0.1702
18891W        W34022  12.071  11.543  14.034  0.0564  0.0713  0.2027
18892W        W34023   0.585   7.045   2.947  0.3373 -0.0813  0.2726
18893W        W34024   8.666  16.788   0.465 -0.4612 -0.1829 -0.0922
18894W        W34025   9.190   9.096  12.243 -0.3191 -0.2057 -0.3380
18895W        W34026   7.188  13.586  12.166 -0.1081  0.2669 -0.0392
18896W        W34027  11.824  17.139   1.075  0.2934  0.0871  0.1561
18897W        W34028   5.121  13.622  15.928 -0.2870  0.1884 -0.2482
18898W        W34029   5.581   1.155  14.460 -0.1881  0.1434  0.1231
18899W        W34030   0.850  15.016  13.250  0.1706 -0.2543 -0.2025
18900W        W34031   6.495   7.210  14.463  0.0843  0.4193  0.3207
18901W        W34032   4.158   8.798  11.093  0.3335 -0.1530 -0.2368
18902W        W34033   7.056   9.693   2.549 -0.1165  0.4036 -0.2034
18903W        W34034   7.005  14.050   9.312 -0.2954  0.2208  0.0693
18904W        W34035  15.450  12.077  12.871  0.0530 -0.3189  0.3532
18905W        W34036   8.655  16.970   4.370  0.0202 -0.0314  0.3217
18906W        W34037   0.812  14.360  13.833 -0.1323 -0.2615  0.0751
18907W        W34038   4.209  14.514  14.712  0.2609  0.1444  0.0400
18908W        W34039   6.129   3.214   4.898 -0.1070 -0.0750 -0.2181
18909W        W34040  16.241   3.600  13.527  0.2664  0.0169  0.2498
18910W        W34041  16.196   1.982   2.934 -0.2262  0.1066 -0.1035
18911W        W34042   7.241  14.325  14.792 -0.1203 -0.4188  0.0497
18912W        W34043   6.180   7.820   1.573 -0.0262 -0.1195 -0.2571
18913W        W34044   6.380  10.674   0.166  0.2868  0.2312  0.1222
18914W        W34045   6.058  11.726   3.283  0.1235  0.0821  0.0748
18915W        W34046  15.228   1.354  14.728  0.0431 -0.0722  0.4119
18916W        W34047   3.303   4.036   5.067 -0.1676 -0.0123  0.1664
18917W        W34048  17.342  16.603   0.959 -0.2573 -0.1571 -0.0417
18918W        W34049  12.043  16.370  12.037 -0.1492 -0.0342  0.1309
18919W        W34050  17.069   2.423  14.699  0.1908  0.1469 -0.0729
18920W        W34051  11.952   3.379  13.684  0.2738 -0.1055 -0.1147
18921W        W34052  11.052  18.480   1.032 -0.1233  0.0744  0.0360
18922W        W34053   8.249   4.443  13.057  0.3636 -0.2047 -0.2948
18923W        W34054   4.065   3.400  11.204 -0.2130  0.1787  0.0225
18924W        W34055  12.169   4.679   0.759  0.0079  0.0346 -0.1362
18925W        W34056  13.437   8.418   4.706  0.3520  0.2683 -0.1486
18926W        W34057   3.638  18.421  10.940  0.0172  0.0511 -0.0737
18927W        W34058   4.034   1.612  11.846 -0.0923  0.1064  0.0381
18928W        W34059  10.159   9.627   0.440  0.3513  0.1345 -0.0519
18929W        W34060   5.673  10.620   2.348  0.0829  0.0250  0.1996
18930W        W34061   2.982  10.156  12.365  0.1627 -0.1306 -0.2712
18931W        W34062   6.162  11.280   9.794  0.0151 -0.0400  0.0386
18932W        W34063   2.041   9.608   2.332  0.1005 -0.0480 -0.2715
18933W        W34064   4.385   6.821   1.676 -0.0319 -0.0856  0.2722
18934W        W34065  11.790  18.082  14.536  0.0097 -0.0863 -0.0990
18935W        W34066   0.084  14.460   2.516 -0.1293 -0.0139 -0.1117
18936W        W34067   9.995   8.562  10.080  0.1583  0.0112  0.1533
18937W        W34068   8.258   3.669  12.994  0.0378 -0.0664 -0.2612
18938W        W34069   7.578   9.982   5.103  0.1295 -0.2885 -0.0442
18939W        W34070  12.554  18.100  11.431 -0.0925 -0.3710 -0.0283
18940W        W34071  16.725  10.306   4.139 -0.1303  0.0891  0.1527
18941W        W34072  11.808  17.097  11.352  0.5096  0.0775 -0.0049
18942W        W34073  13.157   4.639  14.368 -0.2490  0.0189  0.0174
18943W        W34074   5.180   8.927  12.734  0.2453 -0.1742  0.0051
18944W        W34075  11.161   7.823   2.517 -0.0795  0.3340 -0.1899
18945W        W34076  18.224   4.863   4.049  0.0519 -0.0717  0.2541
18946W        W34077   6.299  10.433  12.002 -0.0496  0.6424 -0.0691
18947W        W34078  16.584  16.408   0.946  0.0223  0.1302  0.1890
18948W        W34079  14.541  18.196   1.438  0.0438 -0.4004 -0.0599
18949W        W34080   3.861   2.998   2.890  0.2116  0.1476  0.0233
18950W        W34081   7.981  13.549  15.682  0.3485  0.0464  0.1071
18951W        W34082   6.785   4.479   0.420 -0.0779 -0.0035 -0.2760
18952W        W34083   0.762  11.501  14.957  0.0820  0.3212 -0.0258
18953W        W34084  16.130  12.439  12.562 -0.1235  0.1574 -0.1113
18954W        W34085   0.381   7.412   0.139 -0.0031 -0.2527 -0.0779
18955W        W34086   7.962   5.764   4.684  0.3971  0.3497 -0.0666
18956W        W34087   1.337  17.527  15.402  0.0445  0.1699 -0.0924
18957W        W34088  11.863   3.143   5.391 -0.0061  0.1635 -0.1050
18958W        W34089   7.178   1.878   0.928  0.0076  0.0522 -0.1015
18959W        W34090  16.446   3.720  15.877 -0.3876  0.0787  0.0810
18960W        W34091  13.319   1.741   3.497 -0.0837 -0.1669 -0.1540
18961W        W34092  12.712   0.185  12.200 -0.2405  0.4069 -0.0100
18962W        W34093  15.970  12.644   1.449  0.0575 -0.2908 -0.1040
18963W        W34094  15.706   8.333  11.390  0.3373  0.0179 -0.2106
18964W        W34095   7.051  10.503   2.361 -0.2046  0.4514  0.1526
18965W        W34096   6.816   5.425  13.995  0.1300 -0.1787 -0.0602
18966W        W34097   2.761  17.183  12.592 -0.4754 -0.0049 -0.1072
18967W        W34098  12.694   6.675  15.888  0.2554 -0.1417 -0.3815
18968W        W34099  16.737   3.325   5.508 -0.3279 -0.0162  0.0606
18969W        W34100  14.845   4.168   4.322  0.2799 -0.1424  0.1685
18970W        W34101   4.435  13.982  14.701  0.0982  0.1791  0.0249
18971W        W34102   2.290  17.398  13.694 -0.0775 -0.0985  0.1473
18972W        W34103   2.791  10.439   5.335 -0.0431 -0.2998  0.2398
18973W        W34104  10.439  12.148  12.990 -0.3041 -0.0756  0.0612
18974W        W34105   0.961  18.300   4.158  0.0224  0.0108  0.1082
18975W        W34106  18.111  12.462  13.791 -0.1445 -0.0926 -0.1718
18976W        W34107   0.784   9.893  12.323  0.1285  0.1764  0.1796
18977W        W34108   3.544   9.889  10.833  0.3087 -0.1872 -0.1539
18978W        W34109  10.164  14.189  14.431 -0.1976  0.0524  0.0359
18979W        W34110  16.531   6.123   1.620  0.1647  0.2048 -0.2400
18980W        W34111   7.489   8.193  10.742 -0.0510  0.2752  0.2376
18981W        W34112   7.185   5.725  11.700  0.0479 -0.0488  0.3643
18982W        W34113  15.920   7.049  14.379  0.1329 -0.2716 -0.0506
18983W        W34114   4.992  11.576  14.042  0.1337  0.6455 -0.0546
18984W        W34115  13.767   4.782  12.540  0.1059  0.4379 -0.0755
18985W        W34116  17.403   1.864   3.397  0.2569  0.2225  0.1097
18986W        W34117   4.441   5.578  11.097  0.2267  0.1729  0.3397
18987W        W34118  12.917   6.844   0.382 -0.3074  0.0115 -0.2997
18988W        W34119  15.822   3.377   2.753 -0.2737  0.0491  0.1224
18989W        W34120   1.442   4.295  13.488  0.0707 -0.0498 -0.1067
18990W        W34121   8.133  13.687  13.255  0.1754 -0.1882 -0.0248
18991W        W34122   5.876  13.462   4.661  0.2098  0.0600  0.1083
18992W        W34123  18.545   2.223  13.501 -0.2086  0.2152  0.1056
18993W        W34124   0.015  14.148  10.233  0.1181 -0.0765  0.3587
18994W        W34125  16.549  14.520   0.012 -0.0386 -0.2427 -0.1748
18995W        W34126  13.828   0.839   4.471 -0.4035  0.1461 -0.2273
18996W        W34127  16.395   8.207   3.170 -0.1722  0.1947 -0.0134
18997W        W34128  17.399   7.765   5.491  0.1853 -0.0745  0.0096
18998W        W34129  11.812  13.815  15.160  0.0532  0.1543 -0.2381
18999W        W34130  13.033   9.783   4.337 -0.1669 -0.0485  0.2026
19000W        W34131  18.159  14.800  11.994  0.1230  0.0170 -0.0940
19001W        W34132  10.603  12.205  12.010  0.0495 -0.1848  0.0099
19002W        W34133  13.008  13.152  13.468  0.1130  0.0427  0.1621
19003W        W34134  14.315   4.473  15.840  0.2810  0.2743 -0.1728
19004W        W34135   5.764   0.909  12.957  0.1786 -0.0528  0.2209
19005W        W34136   4.183  12.244  13.961 -0.2419 -0.0375  0.0497
19006W        W34137   3.401   5.999   0.089 -0.2492 -0.1122 -0.3025
19007W        W34138  14.068  17.378  10.829  0.1729 -0.2024 -0.1332
19008W        W34139   9.434   0.064  12.396  0.1796  0.1368  0.0614
19009W        W34140   1.613   2.780  13.864 -0.1901  0.0007 -0.1616
19010W        W34141   8.728  17.235   9.959  0.0075  0.2007  0.2267
19011W        W34142  14.406   1.840   5.754  0.2371 -0.2740  0.1460
19012W        W34143  18.397  12.702   3.512  0.1537  0.0001 -0.1704
19013W        W34144  10.115   4.299   5.101  0.1747 -0.0562 -0.0564
19014W        W34145   4.961  16.370   2.333  0.1434 -0.1501  0.2663
19015W        W34146  10.663  17.109   4.461 -0.0833  0.0116  0.4174
19016W        W34147  12.158  14.174  14.518 -0.0511 -0.0081 -0.1236
19017W        W34148  15.630   0.362   3.206  0.1502 -0.0207  0.2149
19018W        W34149   8.704  18.054  13.943 -0.0807  0.2748  0.1391
19019W        W34150   6.096   9.755  12.803  0.0546 -0.3371  0.0988
19020W        W34151   1.736  15.217   2.220 -0.3157  0.0896  0.2467
19021W        W34152   0.871   0.123  10.682 -0.3041 -0.1350  0.1384
19022W        W34153   1.221  10.705  11.187  0.1982 -0.1122  0.0921
19023W        W34154  11.276   0.964   4.934  0.1344  0.1159 -0.2057
19024W        W34155   6.585   1.019   4.217  0.0872  0.2050 -0.2535
19025W        W34156   4.874  13.322  13.650 -0.1360 -0.1869  0.2086
19026W        W34157  13.714  14.682  11.288 -0.3141  0.1378  0.0361
19027W        W34158  10.599   1.103   5.609 -0.4707 -0.0229 -0.0922
19028W        W34159   5.200   6.477   1.382  0.0509 -0.0663 -0.0341
19029W        W34160   8.400  11.740   0.146  0.0499  0.1332 -0.0894
19030W        W34161   6.315  10.843  11.682  0.0947 -0.1395  0.0560
19031W        W34162   4.689  12.315   1.956 -0.1088  0.1433  0.0332
19032W        W34163  11.981  12.541  14.268  0.2215  0.0630 -0.0214
19033W        W34164  12.625   2.711  14.088  0.0803  0.3164 -0.2621
19034W        W34165   3.254  13.396  14.073 -0.1507  0.2074 -0.2304
19035W        W34166   9.065  16.017  11.836  0.0967  0.0596  0.2411
19036W        W34167  16.016  18.470  14.786 -0.0159 -0.0889 -0.0568
19037W        W34168   8.018   0.458   1.444 -0.1227  0.2167  0.2065
19038W        W34169   7.777  13.249  14.312 -0.1225  0.0234 -0.0545
19039W        W34170   4.234  18.551   2.265 -0.1933  0.1425  0.1332
19040W        W34171   1.350  15.325   4.685  0.0860 -0.3992  0.1147
19041W        W34172  17.288  16.886  13.883 -0.2213  0.1847  0.0480
19042W        W34173  16.971   9.298   1.653 -0.2418  0.1273  0.0446
19043W        W34174   7.964   5.966  14.574 -0.0206  0.0235 -0.1256
19044W        W34175  18.177   8.376  15.361 -0.0862 -0.1223 -0.3095
19045W        W34176   5.046   5.228  15.441  0.0679 -0.2862  0.0325
19046W        W34177   0.111  13.029  14.208 -0.4666 -0.2111 -0.0514
19047W        W34178  13.752  14.959  11.799  0.0260 -0.2509 -0.1163
19048W        W34179  14.865   7.774  11.696 -0.1553  0.2059 -0.0361
19049W        W34180   8.226  17.889  14.511 -0.0514 -0.1363 -0.3261
19050W        W34181   7.649  15.209  10.572  0.1559  0.0660  0.1180
19051W        W34182   8.112   8.675   4.694  0.0092 -0.2190  0.0615
19052W        W34183   1.455   4.822   3.779 -0.1504  0.2714 -0.2038
19053W        W34184   3.435   4.814   1.874  0.0409  0.1350  0.0148
19054W        W34185  16.756   8.484   5.991 -0.1188 -0.2684  0.3400
19055W        W34186   0.328  11.634  13.531  0.2423 -0.2221  0.0201
19056W        W34187  11.288   4.655   5.479  0.3017 -0.1513  0.2755
19057W        W34188  11.820   5.856  12.511 -0.0912  0.3363 -0.0806
19058W        W34189   9.575   2.381  15.787 -0.1304 -0.0886  0.0476
19059W        W34190   0.350   9.067  14.644  0.0654  0.0120 -0.0546
19060W        W34191   4.882  18.103   2.174 -0.3030  0.2302  0.0275
19061W        W34192  17.531   3.901  11.265  0.0801  0.1933  0.1976
19062W        W34193  12.390  10.194   2.154  0.3718  0.3502  0.0592
19063W        W34194   4.913   6.746   1.784  0.1944  0.2593  0.1524
19064W        W34195  16.845  14.906  15.796 -0.1230  0.0386  0.2113
19065W        W34196   1.727   7.723  15.022  0.5578  0.2400 -0.1531
19066W        W34197  10.501  16.989  13.109 -0.1835  0.1568 -0.2123
19067W        W34198   9.912  14.053  10.487 -0.1035 -0.4737 -0.0190
19068W        W34199   6.320   9.363  11.770 -0.0803  0.2652  0.1828
19069W        W34200   2.748  15.086  11.965 -0.0331 -0.1458  0.2594
19070W        W34201  11.295  12.309  13.117  0.4117  0.2268 -0.4396
19071W        W34202   2.056  10.160  12.673  0.3912 -0.1116  0.1825
19072W        W34203  17.050   9.694  15.457  0.0920  0.1265  0.0902
19073W        W34204   1.789   5.557   0.509 -0.0908  0.2264 -0.1967
19074W        W34205  14.050   2.132   0.639 -0.3072  0.0423 -0.3402
19075W        W34206  18.149   9.758   1.344 -0.0661 -0.2796 -0.2506
19076W        W34207   2.765   8.996   4.640  0.1326  0.0690 -0.0221
19077W        W34208  10.565  18.220  15.470  0.1645  0.0911 -0.2048
19078W        W34209  16.813   6.398  15.525 -0.1354 -0.1661  0.2094
19079W        W34210   5.621   7.526  13.197 -0.1249  0.0712  0.0944
19080W        W34211   4.509   8.424   5.388 -0.1454  0.1294 -0.0787
19081W        W34212   8.085  16.063  12.067 -0.0996  0.0597 -0.0010
19082W        W34213   4.218   7.737   3.780 -0.3546  0.2306 -0.1257
19083W        W34214   9.791   0.282  12.007  0.1432 -0.1852 -0.1040
19084W        W34215   0.190   3.185  14.420 -0.2338  0.0320 -0.5666
19085W        W34216  16.499   2.785   5.621  0.1246  0.0624  0.0982
19086W        W34217  15.240   3.110  12.746  0.1547  0.0075  0.1027
19087W        W34218   2.642   5.347   2.737 -0.4096 -0.1481 -0.0527
19088W        W34219   3.155  16.141   3.177 -0.2643 -0.2654 -0.0269
19089W        W34220   6.920   9.443   0.688 -0.2109 -0.1219 -0.1459
19090W        W34221   2.908  10.992   3.665 -0.3392 -0.0871  0.0514
19091W        W34222  12.145   8.227  10.339  0.1368  0.2230  0.0592
19092W        W34223  17.088   7.550   1.138  0.0965  0.0400  0.0325
19093W        W34224  11.701   1.529   1.184  0.1460  0.1340  0.2833
19094W        W34225   7.320   6.608   2.433 -0.2923  0.2059 -0.2258
19095W        W34226  15.505   6.599  12.095  0.2476  0.1694  0.0768
19096W        W34227  12.833   4.409   2.606  0.1784  0.0796 -0.2209
19097W        W34228   5.784   2.834  13.885  0.0831  0.0454 -0.1512
19098W        W34229   7.870   9.533  10.383  0.1964  0.0326 -0.1963
19099W        W34230   5.335   1.149  12.231 -0.1071  0.0357 -0.0437
19100W        W34231  17.901  11.706  15.563  0.1025  0.0123 -0.0968
19101W        W34232   5.925   2.327   4.306  0.3193  0.2681 -0.2682
19102W        W34233  13.406   1.150   4.562  0.0383 -0.4687 -0.0078
19103W        W34234  17.460  12.989  11.378  0.0224 -0.1470 -0.4131
19104W        W34235  12.477  13.367   3.765 -0.2150  0.0512 -0.0303
19105W        W34236   5.926  12.656  13.656  0.1090  0.1381 -0.0933
19106W        W34237  11.513  15.487  10.830  0.0504  0.0257 -0.2258
19107W        W34238  13.258  13.691  15.530 -0.1209  0.1535 -0.1540
19108W        W34239  18.519  15.250   0.938 -0.1146  0.2840  0.0336
19109W        W34240   0.956  17.787   2.708  0.4130  0.2316 -0.1600
19110W        W34241   5.649  13.434   5.211 -0.3047 -0.0724 -0.2760
19111W        W34242   3.023  11.304  13.694  0.0278  0.1132 -0.0101
19112W        W34243  13.393   9.559  13.119 -0.0844 -0.0452 -0.0127
19113W        W34244   8.773   2.623   1.122 -0.2407 -0.2611 -0.1597
19114W        W34245   6.820   0.835   3.644 -0.1030  0.0126 -0.2996
19115W        W34246   1.111   8.695  11.866  0.2122 -0.0109  0.1008
19116W        W34247  14.814   4.592  15.538 -0.0058  0.1926  0.0730
19117W        W34248   2.481   3.118  14.600 -0.1174  0.0417 -0.0016
19118W        W34249  14.923   5.897  14.380 -0.1095  0.0211  0.0703
19119W        W34250   3.728  14.254   2.442  0.3390 -0.1408  0.0544
19120W        W34251  17.595   9.528  15.311  0.1335 -0.2431  0.1724
19121W        W34252   9.421   2.052   3.664  0.0554  0.0773  0.1178
19122W        W34253   7.513   9.794   3.762  0.0142 -0.1473 -0.1298
19123W        W34254   2.156  15.646   4.293 -0.0717  0.0547  0.0093
19124W        W34255   5.845   3.490   0.451  0.1138  0.1926  0.1818
19125W        W34256  11.838   1.179  13.582  0.2355  0.2431  0.0338
19126W        W34257   8.078   0.933   1.771  0.2015  0.0969 -0.1535
19127W        W34258   8.872  18.224   3.386 -0.3135 -0.2050  0.0848
19128W        W34259   3.007   7.325   2.020  0.1686 -0.2679 -0.0159
19129W        W34260   5.735  14.034  12.058 -0.1014  0.0844  0.1057
19130W        W34261   1.962   1.712   5.399 -0.0311 -0.2562 -0.3305
19131W        W34262  17.331   4.505   2.413  0.2193  0.1919  0.0095
19132W        W34263  10.262   8.590   5.078  0.1259  0.2338  0.5128
19133W        W34264  10.168  14.875  15.881  0.1874  0.0313  0.4729
19134W        W34265  12.246   2.126  10.931 -0.2109 -0.0455  0.1350
19135W        W34266  14.704   6.250   3.801  0.0069 -0.3951 -0.2481
19136W        W34267   6.791  15.271  12.878 -0.0356 -0.0284  0.1572
19137W        W34268   2.192   6.850   0.826  0.0365  0.1934 -0.3545
19138W        W34269   3.963  10.044   1.846  0.0252 -0.1125  0.1992
19139W        W34270   2.085  15.741  12.954 -0.0574 -0.1004  0.0318
19140W        W34271   0.730  14.226  12.026 -0.1905 -0.2121  0.0320
19141W        W34272  15.382   2.439   3.614 -0.1819 -0.0165 -0.3256
19142W        W34273  17.184   3.854   4.147 -0.3331  0.5004 -0.2731
19143W        W34274   8.475  14.037  12.883  0.1171 -0.1939 -0.1229
19144W        W34275  11.453   4.673   2.075 -0.0788  0.2096 -0.1912
19145W        W34276  15.673   5.777   2.218 -0.1734 -0.2355 -0.1879
19146W        W34277  16.772  15.760  14.153  0.0628  0.0908 -0.1086
19147W        W34278  14.751   4.490   2.171  0.1257 -0.1140 -0.4171
19148W        W34279   9.165  16.786  15.077 -0.2077 -0.4347  0.0357
19149W        W34280   2.212  13.062  12.890 -0.1114  0.2872  0.1767
19150W        W34281  10.622   0.712   0.922 -0.1015 -0.0623 -0.2697
19151W        W34282   0.197   6.583   5.610 -0.3484 -0.0060 -0.0375
19152W        W34283   2.971   3.789   3.842 -0.1292  0.0809 -0.3609
19153W        W34284   1.112   4.708  13.475 -0.1899  0.1190 -0.1414
19154W        W34285  16.940   8.225   4.680 -0.0760  0.3087 -0.3183
19155W        W34286   7.575  15.732   1.610 -0.2039  0.3471 -0.1974
19156W        W34287  15.571   9.302  11.401  0.0006 -0.1991 -0.2028
19157W        W34288  15.485  18.036   3.494  0.0969 -0.1388  0.1912
19158W        W34289   2.356  14.694  12.153 -0.1303 -0.0852  0.1472
19159W        W34290   8.762   0.502  11.440  0.0152 -0.0947 -0.1720
19160W        W34291   4.603   9.220  10.682 -0.0673 -0.2335 -0.0595
19161W        W34292  12.350   4.099   5.230 -0.1327 -0.3609  0.1097
19162W        W34293   6.303   8.286   4.425 -0.0515  0.0854 -0.2887
19163W        W34294   8.090   7.859   2.281 -0.1557  0.4787  0.0676
19164W        W34295   6.986  15.658   2.910 -0.0429 -0.3562  0.1055
19165W        W34296   3.857  14.202  13.568 -0.0385 -0.1032 -0.1554
19166W        W34297   9.728  14.140   0.572 -0.0381  0.3671  0.0351
19167W        W34298   2.518   7.869   3.778  0.1972 -0.0391 -0.4300
19168W        W34299   2.954   9.501  13.894 -0.1543  0.0421 -0.1703
19169W        W34300  15.399   1.816   0.586  0.2076 -0.1578 -0.0098
19170W        W34301   3.734   1.077   3.839 -0.0320  0.0343  0.0886
19171W        W34302  16.883  11.765   0.781  0.3593 -0.1578 -0.0365
19172W        W34303   1.884  18.185  11.750  0.0438 -0.1311  0.2214
19173W        W34304   3.147   9.562  13.441 -0.1120  0.1662  0.2253
19174W        W34305   7.776  14.992  13.706  0.1838  0.1796 -0.2895
19175W        W34306   9.425   3.962   4.041  0.2510 -0.2541 -0.2008
19176W        W34307   0.867  13.288   0.388  0.1277  0.0115  0.1703
19177W        W34308  17.241  13.274  14.451 -0.1655 -0.0336 -0.1609
19178W        W34309   2.782   6.433  11.635 -0.2131  0.0004 -0.2250
19179W        W34310  13.188  14.655   5.127 -0.3966  0.3284  0.0843
19180W        W34311  11.753   4.273   4.450  0.1644  0.0998  0.4937
19181W        W34312  13.412  11.233   4.179 -0.0186  0.2039 -0.1974
19182W        W34313   1.015   7.092   5.316 -0.3748  0.3285 -0.2206
19183W        W34314   8.878   1.661  13.781 -0.1229  0.0321 -0.0357
19184W        W34315   7.182   1.831   4.481  0.2548 -0.4034  0.0031
19185W        W34316  14.495  14.952  13.490 -0.0450  0.0599 -0.1686
19186W        W34317  17.498   1.027  11.957 -0.1751  0.2584 -0.1133
19187W        W34318   4.293   3.707  14.463 -0.4752 -0.0279 -0.1991
19188W        W34319  10.687   8.420   4.807 -0.0907 -0.2552 -0.2089
19189W        W34320  16.681  13.883   0.691  0.0232 -0.0492 -0.1229
19190W        W34321   8.801  14.743  10.707 -0.4135  0.1205  0.2055
19191W        W34322   5.433   0.723  14.238  0.0739  0.1620  0.4203
19192W        W34323  16.882   0.797  14.088 -0.1681 -0.2798  0.0618
19193W        W34324  12.196  12.682  15.368  0.0275 -0.0753 -0.0314
19194W        W34325  18.301   3.573   2.690  0.0084 -0.1516  0.1042
19195W        W34326   9.925   7.239   3.546 -0.0272 -0.2611 -0.0551
19196W        W34327   1.745  12.206  11.768 -0.0158  0.0293 -0.2954
19197W        W34328  11.752  14.681  11.779  0.4057  0.1736  0.2739
19198W        W34329   2.234   4.706   5.466  0.1228  0.1860  0.1058
19199W        W34330   2.238   5.321  12.535 -0.1893  0.1568 -0.3123
19200W        W34331  11.581  17.242  12.183 -0.0537 -0.0574 -0.4030
19201W        W34332   5.284   1.086   3.931  0.0261 -0.2411 -0.2976
19202W        W34333   5.360   4.122   0.924 -0.0700  0.3943 -0.2008
19203W        W34334  13.961  15.179  12.220 -0.0439 -0.0148 -0.2360
19204W        W34335  12.888   0.523  15.866  0.0229 -0.0682  0.3080
19205W        W34336   0.538   3.600  14.511 -0.1104  0.0939  0.0127
19206W        W34337   5.619  12.074   5.372 -0.0380 -0.0044  0.1392
19207W        W34338  15.411  12.777   4.173 -0.1523 -0.1173 -0.2211
19208W        W34339   1.856   3.929   1.874 -0.1938  0.0608  0.0730
19209W        W34340  16.071   4.089  10.992 -0.2648  0.1764  0.1218
19210W        W34341   5.061   3.466   0.195  0.2875  0.1169 -0.1720
19211W        W34342  17.952  14.431  11.000  0.0426  0.1651  0.3396
19212W        W34343   7.088  12.251  10.586  0.1891  0.1133 -0.0046
19213W        W34344  10.409   7.014  12.116  0.4036 -0.1321  0.5241
19214W        W34345   6.391   6.483   3.828 -0.1344  0.0428 -0.0110
19215W        W34346  15.444  16.471   0.713  0.0597 -0.1750  0.1835
19216W        W34347  13.899   7.574  13.103 -0.1446 -0.1546 -0.0908
19217W        W34348   4.145   6.330  15.587 -0.3228 -0.1235 -0.4129
19218W        W34349  18.568   7.922  12.449 -0.3802  0.0605 -0.1599
19219W        W34350  16.952   7.696   5.380  0.1630 -0.1394  0.0616
19220W        W34351  17.515   2.349   1.529 -0.0757  0.2500 -0.0151
19221W        W34352  17.162  12.895  14.736 -0.0287  0.1202  0.2399
19222W        W34353   7.413  11.976   3.553  0.3190  0.1166  0.1504
19223W        W34354  12.528  11.636   3.826 -0.0262 -0.0216  0.0325
19224W        W34355  16.122  16.788   0.187  0.2281 -0.0880 -0.1956
19225W        W34356   3.795   8.199   5.239 -0.0872 -0.0405 -0.2590
19226W        W34357  16.577   3.877   4.331  0.1125 -0.0933  0.0890
19227W        W34358  12.392   9.287   1.112 -0.3832  0.0888  0.0701
19228W        W34359   2.778   1.705   2.056 -0.1146  0.1184 -0.1948
19229W        W34360  11.188  15.677   2.688 -0.2622  0.0971  0.1077
19230W        W34361  18.294   5.220  12.525 -0.0729  0.1049  0.7078
19231W        W34362  10.914  13.386  11.527 -0.1619  0.0477  0.3892
19232W        W34363  11.268   6.033   5.855  0.0478  0.0955  0.0055
19233W        W34364  16.474  11.598   0.196 -0.2873  0.1729  0.1107
19234W        W34365  13.916  15.514  13.828 -0.2283  0.1738  0.1957
19235W        W34366  14.542   6.779  13.769  0.3805  0.0935  0.1014
19236W        W34367  16.129  12.689   3.081 -0.1889 -0.0507 -0.4460
19237W        W34368   8.402   1.521   0.539 -0.0001  0.2084 -0.0091
19238W        W34369  17.591  13.591  13.495  0.1269 -0.0109  0.0286
19239W        W34370   4.083   7.894  12.647 -0.1508  0.0234 -0.2589
19240W        W34371   4.063   6.434   4.886  0.0789 -0.3205 -0.2399
19241W        W34372   8.252  13.812  10.038  0.4121 -0.0158 -0.2151
19242W        W34373  11.748  16.912   3.268  0.3020  0.4395 -0.0114
19243W        W34374   6.969   5.030   1.178 -0.2544 -0.0323 -0.1220
19244W        W34375   5.866  13.111  13.821  0.0818  0.1225  0.3357
19245W        W34376   9.638   9.260   1.088  0.2449 -0.1492  0.0653
19246W        W34377   7.779  18.539  11.547  0.5114 -0.2028 -0.2039
19247W        W34378   2.188  15.996  12.118  0.1635  0.1180  0.1275
19248W        W34379   5.761  11.597  14.877 -0.1061 -0.0684 -0.2395
19249W        W34380  16.123   0.970   2.808  0.0828 -0.0068  0.0107
19250W        W34381  14.171  14.766  12.992 -0.1982 -0.2032 -0.0257
19251W        W34382  11.757   6.793  15.488  0.0558 -0.0823  0.1507
19252W        W34383   0.416  12.355  14.302 -0.0448  0.0524  0.0157
19253W        W34384  11.302   9.500   0.870  0.0728 -0.0432 -0.0602
19254W        W34385  14.842  10.745  12.896 -0.0560  0.0196  0.0923
19255W        W34386   5.537  17.378  11.164 -0.3075 -0.1588  0.0619
19256W        W34387  13.368  10.502   3.367 -0.0881  0.1234 -0.1628
19257W        W34388   1.061  12.393  10.346  0.1304  0.0165  0.1096
19258W        W34389   4.581   7.622  12.865  0.1440 -0.0086 -0.2493
19259W        W34390   9.078   5.643  11.044 -0.0935  0.1401  0.2951
19260W        W34391   2.812  11.455   3.509 -0.0939  0.1954  0.1355
19261W        W34392  13.800  17.592  15.307 -0.0195 -0.0085 -0.1685
19262W        W34393   1.439  16.778  13.147 -0.1628  0.1710 -0.0292
19263W        W34394   5.226   4.787   2.638  0.2029  0.1347  0.5124
19264W        W34395  11.157   6.209   2.275  0.0928 -0.2379 -0.0985
19265W        W34396   6.977   7.381  14.170  0.1965  0.0534 -0.0402
19266W        W34397   9.646   6.458  15.638  0.3949  0.0956  0.0230
19267W        W34398  11.096  15.872   3.256 -0.0261  0.0500 -0.0214
19268W        W34399   7.188  12.467   4.803  0.0582  0.0198  0.1062
19269W        W34400  17.685   0.473  15.933 -0.0093 -0.1035 -0.1117
19270W        W34401  18.238   1.219  12.507 -0.1402 -0.0823 -0.0219
19271W        W34402   0.313   4.438   0.580 -0.0010 -0.2590  0.1424
19272W        W34403   8.966  12.333   5.365  0.0461 -0.0282 -0.2030
19273W        W34404   4.152   6.668   4.413 -0.1347  0.2701  0.0379
19274W        W34405  15.229  16.589   4.146  0.1428 -0.2266 -0.3217
19275W        W34406  12.475   9.023  12.123  0.3601  0.0245  0.0138
19276W        W34407   3.101   4.612   2.176  0.1737  0.1102 -0.0807
19277W        W34408  17.438  12.429   5.614 -0.0896  0.3104  0.1116
19278W        W34409   7.942   6.972  12.969 -0.1970 -0.0050 -0.2444
19279W        W34410  14.928  12.974  14.909 -0.4090 -0.0112  0.0818
19280W        W34411   0.068  13.149   4.410  0.0481 -0.0059  0.2916
19281W        W34412   1.576  15.451   2.842  0.1306 -0.0730 -0.1142
19282W        W34413  15.492   4.209   3.281  0.2148 -0.0103  0.0176
19283W        W34414   3.877   8.812   1.008  0.0117 -0.1319 -0.1648
19284W        W34415  15.239  12.768  14.624  0.0527  0.1476 -0.1272
19285W        W34416  15.156   9.353  10.884 -0.1127 -0.1763 -0.0532
19286W        W34417   3.475  15.660   3.284 -0.0772 -0.0583  0.1172
19287W        W34418   5.707   3.520   9.892 -0.0459  0.0857 -0.0258
19288W        W34419  10.369  10.379   1.264  0.0265 -0.0277  0.0479
19289W        W34420   6.790   3.579  14.997  0.0274  0.1625  0.2381
19290W        W34421   2.998  12.032   2.155 -0.3310  0.2391  0.0189
19291W        W34422   9.135   5.308  13.670  0.0262  0.1407  0.1285
19292W        W34423  10.302  16.818  10.328 -0.0299 -0.1690 -0.0688
19293W        W34424  11.421  13.352  11.609 -0.1472  0.0291  0.0209
19294W        W34425   6.470   8.720   2.808  0.0439  0.2270  0.2004
19295W        W34426  18.435   5.322   0.636 -0.0117 -0.0961  0.0321
19296W        W34427  11.810   2.152   1.105 -0.1206  0.1290 -0.1180
19297W        W34428  15.116   7.088   3.716  0.0113 -0.0039  0.2697
19298W        W34429   6.480   7.743  14.685  0.1339  0.0118  0.3508
19299W        W34430  10.496  15.269  15.895  0.2125 -0.0066 -0.0508
19300W        W34431   1.578   7.338   1.582  0.0009 -0.1012  0.0274
19301W        W34432   6.465  18.410  13.172 -0.1362  0.1478 -0.3392
19302W        W34433   6.928   5.077   0.642  0.0476 -0.2160 -0.2237
19303W        W34434  15.245  13.172   5.090  0.0059 -0.1906  0.3075
19304W        W34435   2.760   2.353   4.243  0.1404 -0.0652 -0.1634
19305W        W34436  18.028  13.133  11.069  0.3741 -0.3394 -0.2031
19306W        W34437   7.855   0.042   0.573 -0.0389  0.2096 -0.0423
19307W        W34438   8.339  16.270   1.106  0.1463  0.0781  0.1510
19308W        W34439   0.607   7.235  14.209  0.2415  0.0673  0.0845
19309W        W34440  11.955   7.772  14.174  0.2205 -0.2222  0.1447
19310W        W34441   2.787   9.039   1.386 -0.1299  0.1566 -0.1089
19311W        W34442  18.065   9.805  14.160  0.0256 -0.0941  0.0015
19312W        W34443  12.516   1.423   0.544 -0.0054 -0.1211 -0.1584
19313W        W34444  12.013   8.683   5.104  0.3884  0.3245 -0.2273
19314W        W34445   6.511  12.529  14.726 -0.0222  0.0634 -0.1138
19315W        W34446   8.161   1.234   9.443 -0.2454  0.1524 -0.0889
19316W        W34447  11.744  12.215  14.618  0.1907  0.1224  0.0600
19317W        W34448   3.387   1.515   0.128  0.4594 -0.0578  0.2492
19318W        W34449   7.740   0.444   4.261 -0.0572  0.2073  0.1615
19319W        W34450   5.811   1.689  15.417 -0.2998 -0.0186 -0.0035
19320W        W34451   4.344  12.905  10.429 -0.3281  0.2054 -0.2094
19321W        W34452   4.856   8.475   0.078  0.4681 -0.0037  0.0668
19322W        W34453   1.777  17.812   2.440  0.2475  0.2203  0.3673
19323W        W34454  17.737  12.550  11.627  0.0739  0.2450 -0.0368
19324W        W34455  17.628  14.541  14.426 -0.0213 -0.3924  0.0471
19325W        W34456   1.592  10.487   1.148 -0.1554 -0.1477 -0.1046
19326W        W34457  10.900  17.459  11.863 -0.0388  0.0517  0.3034
19327W        W34458   0.450  10.640   5.382 -0.2238 -0.2974  0.4666
19328W        W34459   7.359   0.052   2.509 -0.4956 -0.3535 -0.0966
19329W        W34460  15.050   7.875   1.225  0.3027  0.0889  0.0036
19330W        W34461   6.854   6.061   0.249 -0.2481  0.2074  0.2833
19331W        W34462  10.436   0.373  12.675  0.1497  0.0408  0.2665
19332W        W34463   7.312  14.983   5.120 -0.0363 -0.0849 -0.1487
19333W        W34464   6.774   8.835  13.905 -0.0433 -0.4147  0.2924
19334W        W34465  11.016   1.071  12.272 -0.0109 -0.4100 -0.2140
19335W        W34466   7.797  12.266  15.221 -0.0850 -0.1692  0.3090
19336W        W34467   8.229  11.429  13.886  0.0056  0.1498 -0.0414
19337W        W34468  10.243   0.654  15.179  0.2424  0.4407  0.0282
19338W        W34469   9.068  17.235   1.472 -0.0109  0.0930 -0.5720
19339W        W34470  18.191   7.194   5.553 -0.2004 -0.3061 -0.2034
19340W        W34471  18.098   0.138  15.941  0.1247 -0.0158 -0.0258
19341W        W34472   5.541  15.625   4.938 -0.2240 -0.0911 -0.0384
19342W        W34473   7.004   7.631  15.336  0.1641  0.0497  0.1248
19343W        W34474  16.945  14.400   4.727 -0.0368 -0.1502  0.0188
19344W        W34475  10.576  10.009  13.184 -0.1192  0.1439 -0.1912
19345W        W34476   6.207   1.381  11.445  0.2380 -0.1484  0.1575
19346W        W34477   6.821   3.468  10.762 -0.0500 -0.0070  0.2086
19347W        W34478  16.190  18.518  11.669  0.1493 -0.1776  0.0475
19348W        W34479  17.416  14.325  11.792 -0.2516 -0.1959 -0.2455
19349W        W34480   1.296   5.549   3.132  0.2573  0.0097 -0.1744
19350W        W34481  13.611  12.573   5.501  0.0133  0.1914  0.0471
19351W        W34482  13.752  10.749   0.093 -0.0235 -0.2864 -0.0955
19352W        W34483  13.130   5.121  14.156  0.1079  0.2545 -0.0635
19353W        W34484  17.271  13.124  15.722 -0.1142  0.1036 -0.0940
19354W        W34485   2.673   6.689  13.651 -0.0074 -0.1885  0.1240
19355W        W34486  14.030   8.395  12.431 -0.2626  0.0509  0.0529
19356W        W34487   0.543   0.879   2.126  0.0185  0.1143 -0.2852
19357W        W34488  15.750   8.778  12.913 -0.0119 -0.1222 -0.1226
19358W        W34489   9.162   9.658  14.549  0.1156 -0.0951  0.1069
19359W        W34490   6.187  14.513  11.137  0.2437  0.1308 -0.3864
19360W        W34491   7.415   7.953   9.782 -0.1321 -0.0274 -0.3294
19361W        W34492   4.123   7.216   0.720 -0.3585 -0.2484 -0.0080
19362W        W34493   9.370  13.361  10.935  0.0030 -0.1692  0.0784
19363W        W34494   2.537   6.659   4.912  0.0273  0.0219  0.2583
19364W        W34495   7.040   2.010  11.341  0.0771 -0.1655  0.0318
19365W        W34496  16.263  11.477   2.944 -0.3558 -0.1876  0.1487
19366W        W34497  12.487  15.796   0.468 -0.2330 -0.2735  0.3554
19367W        W34498  10.870   3.652  12.805 -0.0797 -0.3544  0.3570
19368W        W34499   7.389   0.437   1.347 -0.2702 -0.0942 -0.1642
19369W        W34500   4.220   4.420  11.166 -0.1110  0.3446 -0.1239
19370W        W34501   6.311  16.616  11.661 -0.2122 -0.0718  0.1070
19371W        W34502   6.467   1.266  15.703  0.3104  0.0040  0.0215
19372W        W34503  14.755   8.829  10.099 -0.1690 -0.1421  0.2043
19373W        W34504  16.605  14.722   4.843 -0.0959 -0.3392  0.1538
19374W        W34505  11.403   7.967   0.706  0.2879  0.3424  0.1659
19375W        W34506  10.083  15.020   0.842  0.0210 -0.0271  0.2541
19376W        W34507  17.703  15.885   2.072 -0.0616  0.0919 -0.1723
19377W        W34508  11.966  13.736   4.762 -0.1677 -0.0390  0.0393
19378W        W34509  11.265   3.949  12.084 -0.5530 -0.3066 -0.0554
19379W        W34510  18.368   1.662   2.965 -0.1437 -0.1541 -0.2380
19380W        W34511   9.888   6.015  10.492  0.3003 -0.3480 -0.2041
19381W        W34512   6.754   2.451  13.967  0.2294 -0.1236 -0.3528
19382W        W34513  13.883  12.185  12.469 -0.0555  0.0927 -0.0211
19383W        W34514   2.191  16.845   3.091 -0.1014 -0.2276  0.1341
19384W        W34515   2.833   4.726  15.600 -0.3793 -0.2572  0.0951
19385W        W34516  10.413  17.537   4.707  0.1827 -0.0261  0.3665
19386W        W34517   9.226  14.604  15.819  0.4080  0.2169 -0.0499
19387W        W34518  11.364   2.415  15.335 -0.2220  0.0723  0.2730
19388W        W34519   0.513  13.020  12.023 -0.1557 -0.1012  0.0378
19389W        W34520   7.266   7.249  12.587 -0.1962  0.1628 -0.1073
19390W        W34521   5.263   7.595   0.404  0.1253 -0.1635 -0.1933
19391W        W34522   9.784  14.101  12.270 -0.0329  0.1069  0.1795
19392W        W34523   9.677   8.537  11.076 -0.1694  0.2578  0.0736
19393W        W34524  10.629  17.817  13.122  0.2239  0.4457  0.1741
19394W        W34525  16.407  18.491   1.078  0.0038  0.2593 -0.2101
19395W        W34526   5.964   8.318  15.311  0.1179 -0.0676  0.3086
19396W        W34527  15.080   7.328   1.473 -0.0694 -0.0191  0.0969
19397W        W34528  15.488   4.857   3.730 -0.0614  0.3523  0.2574
19398W        W34529  15.326   8.127  15.621  0.3265  0.3084 -0.1187
19399W        W34530   5.591   5.981  15.795  0.2863  0.1598  0.1377
19400W        W34531   0.528   1.876   4.055  0.2456 -0.0173 -0.1752
19401W        W34532   2.023   3.240   0.100  0.1726 -0.0192  0.2674
19402W        W34533  11.781  15.293  14.410 -0.3123  0.1524  0.1652
19403W        W34534   1.096  11.145  14.404  0.2710 -0.1252  0.1028
19404W        W34535  15.219  16.691  15.078  0.0620 -0.2526  0.0971
19405W        W34536   8.994  15.258  14.220 -0.0564  0.1589 -0.3779
19406W        W34537  12.788  11.172  13.964 -0.1403  0.2545  0.0031
19407W        W34538   7.456   3.082  11.818  0.3597  0.0705  0.4848
19408W        W34539  15.150   6.573   4.689 -0.1392 -0.0238  0.4836
19409W        W34540   3.052  17.278  15.599  0.0585 -0.3316  0.0377
19410W        W34541   5.050   3.229   5.742  0.0723 -0.0248 -0.0760
19411W        W34542   0.508  14.418   5.234  0.0351  0.0682  0.1538
19412W        W34543  10.038  13.288  10.638 -0.1469  0.0641 -0.3602
19413W        W34544   9.611   5.836  12.391 -0.2683 -0.1541 -0.1890
19414W        W34545   1.709  10.762   0.247  0.0010  0.0655  0.2236
19415W        W34546  18.334   6.490   1.207  0.1490 -0.0853  0.0764
19416W        W34547   8.402   4.109  12.698  0.1757  0.0085 -0.0046
19417W        W34548  17.717   4.659   4.075 -0.2500  0.1679 -0.0543
19418W        W34549   1.222   1.507   5.807  0.3324  0.1116 -0.5585
19419W        W34550  13.404   3.932   2.883 -0.0461 -0.3060  0.1962
19420W        W34551  13.682   9.122  13.980 -0.1261 -0.1422  0.0701
19421W        W34552   3.914   2.923  14.609 -0.0478 -0.1054 -0.0390
19422W        W34553  11.642  17.594   5.459  0.2965  0.0604  0.0410
19423W        W34554   0.668   9.415  12.202 -0.0067 -0.1499 -0.0790
19424W        W34555   2.948  16.450   1.346  0.0092 -0.0076  0.1365
19425W        W34556   2.844  15.932   4.360  0.0080 -0.2136 -0.2383
19426W        W34557  16.011  10.118   0.091 -0.1793 -0.2970 -0.3284
19427W        W34558  13.041  13.630   3.161 -0.0043  0.3735 -0.0186
19428W        W34559   9.931   5.465  12.561 -0.1417  0.1329 -0.0812
19429W        W34560   4.717   3.014  10.892  0.0842  0.1852 -0.3497
19430W        W34561  18.506  15.746   4.239  0.0699 -0.2262 -0.1033
19431W        W34562  10.950   9.272   5.125  0.0059  0.0277 -0.1095
19432W        W34563   8.475   4.660  11.980 -0.0813  0.1547  0.4154
19433W        W34564  16.699  10.313   0.666 -0.1615  0.0476  0.2912
19434W        W34565   9.784   4.193  12.821  0.3647  0.0410 -0.0684
19435W        W34566   5.397   3.301   1.505  0.0960  0.3575 -0.2165
19436W        W34567   4.812   6.476  15.820  0.2080 -0.1847 -0.0138
19437W        W34568   2.378  15.443   2.757  0.1591 -0.3261 -0.1602
19438W        W34569   9.237   2.780   5.533  0.2812 -0.1100 -0.4727
19439W        W34570   4.152  12.176   0.818  0.0492 -0.0900  0.0666
19440W        W34571   2.517   4.824   0.627  0.0614  0.3571  0.0712
19441W        W34572   9.551   2.016  14.607 -0.0064  0.2269  0.0372
19442W        W34573   5.879   6.224  12.954 -0.0730  0.2911 -0.3033
19443W        W34574   8.957   4.116  12.396 -0.0391 -0.4616 -0.0521
19444W        W34575   2.837  14.788   4.439  0.0903 -0.1372  0.0656
19445W        W34576   0.481  10.643  11.722 -0.2457 -0.1567 -0.1362
19446W        W34577   8.150  14.638  11.338 -0.2127  0.1949 -0.1753
19447W        W34578   2.587  10.996   1.092  0.0539  0.3093  0.2463
19448W        W34579  17.071  14.882  11.960  0.0600 -0.0027  0.0174
19449W        W34580  15.838   9.494   1.435 -0.0867  0.0498  0.1998
19450W        W34581  10.700  15.873   1.615  0.0592  0.1050  0.1167
19451W        W34582  14.206   6.500  11.447  0.0897  0.2371  0.0354
19452W        W34583   2.239  13.806   5.123  0.0381  0.0243  0.0142
19453W        W34584  11.524   8.779   3.067  0.1920  0.0578 -0.1014
19454W        W34585   8.629  16.916   3.325  0.2700  0.0352 -0.2332
19455W        W34586   6.451  15.431   2.254 -0.2522 -0.0450  0.2158
19456W        W34587   6.829   2.907   2.800 -0.2253 -0.0123  0.0042
19457W        W34588   7.290   8.048   0.612 -0.1429  0.4242 -0.0594
19458W        W34589   7.939   6.621  13.388  0.0458 -0.3790  0.0032
19459W        W34590   6.861   4.895  11.228 -0.1989  0.1631 -0.0210
19460W        W34591   8.458   8.353   1.469  0.1083 -0.1336 -0.1122
19461W        W34592  11.042   6.006   4.494  0.4765  0.0469  0.0971
19462W        W34593  11.743   7.386  14.473  0.2050 -0.0513  0.0030
19463W        W34594   6.730  17.302  13.068  0.1087 -0.2962  0.3607
19464W        W34595   4.232   3.120  15.680 -0.1261  0.1554  0.0588
19465W        W34596  11.812  14.469  10.975 -0.1546  0.1295 -0.1147
19466W        W34597   3.378   6.707  14.854 -0.1070 -0.1063  0.1683
19467W        W34598  10.541   0.885  12.540 -0.2895 -0.4002  0.2327
19468W        W34599   5.615   9.555   2.931  0.1318 -0.0297  0.0452
19469W        W34600   5.486   7.925  15.361 -0.3957 -0.1097 -0.1510
19470W        W34601   4.376   7.365  15.849  0.2458  0.0327 -0.2048
19471W        W34602   8.705  15.296  15.678  0.0216  0.0157 -0.5394
19472W        W34603  10.457  16.535  12.837  0.0940  0.0745 -0.1139
19473W        W34604  16.987   3.604   3.563 -0.2675  0.2937 -0.0038
19474W        W34605   4.787  12.856   1.714  0.2886 -0.0680  0.3187
19475W        W34606   5.366   5.825   1.590  0.3329  0.0641 -0.0069
19476W        W34607   8.313  10.013   5.277 -0.0405 -0.1511 -0.0054
19477W        W34608  16.153   5.326  14.916  0.0125 -0.3605 -0.0237
19478W        W34609  18.112  13.750   2.170  0.3272 -0.4060 -0.0407
19479W        W34610   0.233   6.721  11.814 -0.0102  0.3685  0.0581
19480W        W34611  17.181   1.784  12.561 -0.0662  0.0034  0.0438
19481W        W34612  14.554   0.444  14.882 -0.0831  0.1026 -0.0897
19482W        W34613   0.998   0.572   2.024  0.0147 -0.0319  0.1252
19483W        W34614  12.251  10.847  10.503  0.1153  0.2389 -0.1961
19484W        W34615  10.835  17.432   3.260 -0.1997 -0.0337 -0.2052
19485W        W34616   8.596  10.635   0.974 -0.1646  0.2068  0.1571
19486W        W34617   3.285  11.152   3.395 -0.0513  0.0950  0.0987
19487W        W34618   9.343   4.290  12.090 -0.1056 -0.2213  0.0803
19488W        W34619  10.567  11.296   9.729 -0.2710 -0.0439 -0.2700
19489W        W34620   1.999  18.249   4.186 -0.0555  0.1481 -0.2776
19490W        W34621  17.973   7.310   1.812  0.0228 -0.3886  0.6194
19491W        W34622   8.449   4.773   3.487  0.0951 -0.1464  0.2089
19492W        W34623  17.451   0.051  12.640 -0.0729  0.3194 -0.1728
19493W        W34624  12.505   3.070   1.334 -0.2795 -0.1395 -0.0257
19494W        W34625   5.361  16.124   0.809 -0.1044  0.1012 -0.2427
19495W        W34626   0.239   7.376   4.175 -0.0890 -0.2098 -0.5881
19496W        W34627  11.239   8.727  13.379  0.2493 -0.1084 -0.3378
19497W        W34628   0.287  14.694   0.994  0.1156 -0.0486  0.2957
19498W        W34629   8.681  11.603  12.162  0.2087 -0.0748  0.2092
19499W        W34630  15.339  12.329   4.332  0.3862  0.2795  0.1666
19500W        W34631   1.062  12.654   4.510  0.2170  0.1662 -0.0997
19501W        W34632   7.947  16.020  12.700 -0.2402  0.3072  0.0451
19502W        W34633   7.590   5.844   3.691 -0.1281 -0.0497  0.3098
19503W        W34634   1.260  12.354   0.372  0.0006  0.0740  0.0885
19504W        W34635   2.317   8.005   0.550 -0.2844 -0.2713  0.0256
19505W        W34636  13.352  12.579   0.595 -0.0770 -0.2068 -0.2352
19506W        W34637  17.383  18.269  11.335 -0.0630  0.2894 -0.0867
19507W        W34638   8.537  16.566  10.601  0.1834  0.3329  0.2597
19508W        W34639  13.547  12.994   0.798  0.2087  0.1297 -0.0246
19509W        W34640   8.719  12.808   2.490 -0.0414 -0.0230 -0.0407
19510W        W34641  17.660   9.213  11.104  0.1439  0.0403 -0.1032
19511W        W34642  13.507   1.861   6.436  0.1894 -0.2596 -0.0737
19512W        W34643   1.594  14.547  13.391 -0.1712  0.2408  0.1048
19513W        W34644  10.362  17.272   1.149 -0.0287 -0.6247 -0.1141
19514W        W34645  12.806   2.885   4.893  0.0379  0.2995  0.0451
19515W        W34646   5.392   5.126  13.236  0.1340 -0.0510  0.0080
19516W        W34647  17.218  13.543   5.702  0.1664 -0.1923  0.0216
19517W        W34648  13.651  16.533  13.812 -0.0567  0.0836  0.2728
19518W        W34649   9.492   3.645  13.698 -0.0396 -0.3969  0.0498
19519W        W34650   7.835   1.590   2.697 -0.0204  0.2867 -0.2097
19520W        W34651   9.523  17.264  15.085  0.0137 -0.2775  0.3171
19521W        W34652   0.784  13.193   1.337  0.3492  0.1851  0.0031
19522W        W34653  15.614   7.854  14.206 -0.0097  0.1599  0.0144
19523W        W34654   3.307   7.166  12.846 -0.2796 -0.1253  0.2068
19524W        W34655   9.813   3.126  15.842  0.3216 -0.1801  0.0495
19525W        W34656   6.200  14.346  13.475  0.1134  0.0007  0.0090
19526W        W34657   9.758   8.112   3.154 -0.3158  0.1818  0.0591
19527W        W34658  16.640  17.541   4.059  0.2828 -0.0110  0.0685
19528W        W34659  12.471  14.468   1.465 -0.1906 -0.0257 -0.2144
19529W        W34660   7.396   6.112  14.618 -0.1312  0.1091 -0.3617
19530W        W34661   1.192  16.028   2.574  0.3074  0.2835 -0.0065
19531W        W34662   8.789  12.170  11.533 -0.1522  0.0295  0.3173
19532W        W34663  17.954   9.575  14.802  0.0927  0.0538 -0.0820
19533W        W34664   9.102  16.801   0.006  0.0575  0.1219 -0.1330
19534W        W34665   6.811   3.241  13.218 -0.1534 -0.0598  0.2283
19535W        W34666  14.718  12.073   3.773 -0.1144 -0.1096 -0.0711
19536W        W34667   9.323   6.343   0.238  0.0107  0.2559  0.2002
19537W        W34668  14.345   3.959   5.280 -0.2818  0.0210  0.2455
19538W        W34669   4.083  12.358  13.349  0.0540  0.1027  0.0957
19539W        W34670  18.459   0.844  14.280 -0.1957 -0.0906  0.3152
19540W        W34671  10.944  17.591   1.126 -0.1201  0.2578 -0.0905
19541W        W34672   6.188   0.904  11.802 -0.2069  0.1573 -0.0487
19542W        W34673   5.992  11.493   0.108 -0.0498 -0.0947  0.3487
19543W        W34674  10.699   1.971  10.441 -0.3213  0.0487 -0.0247
19544W        W34675   0.206  11.069   5.301 -0.1613  0.3465 -0.2944
19545W        W34676   5.207  17.533   2.912  0.0376  0.3202  0.0616
19546W        W34677   7.722   5.186   3.887  0.0134  0.1760  0.1163
19547W        W34678   1.789  13.252  14.372  0.1728 -0.2047 -0.1605
19548W        W34679  14.482  17.721  10.510  0.1678  0.0710  0.2272
19549W        W34680   1.302  16.032  11.242  0.1109 -0.2299 -0.3160
19550W        W34681  12.717   8.116  15.592  0.0677  0.3185 -0.2514
19551W        W34682   0.345   9.560  14.815 -0.0123 -0.0996  0.1657
19552W        W34683  14.699  10.722   6.133  0.0882 -0.1942  0.2572
19553W        W34684  16.645   8.267  12.894 -0.0455  0.2227 -0.3812
19554W        W34685  11.479   9.131  10.028 -0.2418  0.0066  0.2410
19555W        W34686  17.340   4.186  12.653 -0.0703 -0.0507 -0.0236
19556W        W34687   0.638  11.401   0.760  0.0179 -0.1756  0.2260
19557W        W34688   9.905   5.136   1.664 -0.3199 -0.0424 -0.0351
19558W        W34689  14.872  18.136   1.071 -0.3530  0.0953  0.2859
19559W        W34690   9.412   0.319   4.541 -0.1750  0.0720  0.1556
19560W        W34691   6.408  12.844   0.313 -0.2804 -0.0966 -0.0239
19561W        W34692   1.916   4.275  14.225  0.3288  0.0462 -0.1175
19562W        W34693  12.237  18.189   3.945 -0.4143  0.1435 -0.4194
19563W        W34694   8.297  16.848   0.805 -0.1341  0.0509  0.1535
19564W        W34695   6.004  12.898   1.017  0.0382  0.0520  0.2699
19565W        W34696  16.800  18.474  14.364 -0.3572 -0.4192 -0.0414
19566W        W34697   2.752   9.108  15.189  0.3346  0.2346 -0.2240
19567W        W34698   5.452  12.341  15.609  0.2870 -0.0609  0.1792
19568W        W34699   8.757  18.434  15.234  0.1625 -0.0941  0.0951
19569W        W34700   1.210   3.419   3.707  0.0785 -0.2541  0.0289
19570W        W34701   8.290   0.829  11.642  0.2058  0.2335  0.2916
19571W        W34702  12.334   0.332   3.497  0.0830  0.3139 -0.5632
19572W        W34703   3.267   2.952  15.828 -0.1335  0.2386  0.0497
19573W        W34704  17.338   4.420   6.021 -0.3865 -0.1938 -0.2144
19574W        W34705  13.770  16.424   3.221  0.0818 -0.2851  0.2813
19575W        W34706   0.926  10.410   4.410  0.0253  0.2137  0.1302
19576W        W34707   6.336  10.116   0.893  0.0058  0.1481 -0.0669
19577W        W34708   4.929   9.213   0.478  0.0946 -0.0924  0.0650
19578W        W34709  13.005   3.121  13.319 -0.1577  0.0288  0.1805
19579W        W34710  11.726  17.208   3.811 -0.0831 -0.1716 -0.0983
19580W        W34711   1.901  15.545  13.821  0.1729  0.0791 -0.2234
19581W        W34712   8.671  13.865   2.244 -0.1659  0.1621 -0.0061
19582W        W34713   0.509   8.047  10.829  0.1343 -0.2044 -0.0302
19583W        W34714  11.628  15.599  14.836 -0.2384  0.0608  0.0790
19584W        W34715   7.284   8.725   4.366  0.0317  0.1572 -0.0234
19585W        W34716  13.537   3.551  14.945 -0.4389  0.2006  0.1802
19586W        W34717  14.450  16.517   4.638  0.1420  0.1487  0.0299
19587W        W34718  16.070   5.691   2.757 -0.1679 -0.0084 -0.1585
19588W        W34719   6.608  15.226  12.302  0.1419  0.0080 -0.4723
19589W        W34720   5.321   5.185  14.516 -0.2952  0.1448  0.0108
19590W        W34721   5.689   7.200  12.780 -0.1765 -0.2409  0.2029
19591W        W34722   6.726  15.680  10.899 -0.4457 -0.2969  0.0984
19592W        W34723   3.569   7.973   1.476 -0.0873  0.1924  0.1897
19593W        W34724   9.022   9.238  15.861  0.0047  0.2506 -0.1875
19594W        W34725   2.878   5.845   2.689 -0.1790  0.1069  0.0180
19595W        W34726   2.460  12.139  10.257 -0.0647 -0.1734  0.2556
19596W        W34727   1.211  11.755  13.111 -0.1304 -0.0059  0.0935
19597W        W34728   6.959  16.765   1.034  0.1309  0.0666 -0.3937
19598W        W34729  18.281  17.227  11.595  0.0266  0.0788  0.0445
19599W        W34730   9.041  11.842  14.201  0.1463  0.1468 -0.0492
19600W        W34731   8.059   3.857   1.246  0.1612 -0.1707 -0.0645
19601W        W34732  16.668   1.830  11.552 -0.2291 -0.3013  0.2888
19602W        W34733  10.930   3.276  11.140 -0.1688 -0.2208  0.0056
19603W        W34734  12.065  15.965   4.127 -0.1819 -0.2826  0.0829
19604W        W34735  14.915  16.395   2.600  0.2277 -0.3840 -0.0298
19605W        W34736   1.357  14.817  11.658  0.2545  0.0629 -0.5219
19606W        W34737  13.068   0.717  13.007  0.0600 -0.1902  0.0397
19607W        W34738  16.757  12.184  15.492  0.0821  0.0272  0.0505
19608W        W34739   6.854   4.436  10.843 -0.2045 -0.1251 -0.0736
19609W        W34740   4.275   7.257  11.993  0.2012 -0.1137 -0.2213
19610W        W34741   8.836  16.113  14.013  0.0872 -0.2302  0.2078
19611W        W34742   6.114   9.292   0.279 -0.0665 -0.2877 -0.0552
19612W        W34743   6.385  13.492   2.093 -0.0862  0.2490  0.1157
19613W        W34744   7.520  10.781   4.133  0.2398  0.0174 -0.2341
19614W        W34745  13.667   8.816  12.957  0.0831 -0.3404 -0.2643
19615W        W34746  14.004   5.868  11.171  0.3761 -0.1384 -0.3227
19616W        W34747  11.941   0.280   4.812  0.2295 -0.0410 -0.1601
19617W        W34748   0.591   1.223  14.407  0.0243 -0.1568 -0.1748
19618W        W34749   6.141   5.210   0.080 -0.1376 -0.4048 -0.0289
19619W        W34750  10.134   5.330   2.094  0.3161  0.2762  0.2327
19620W        W34751   8.878   6.430   4.270 -0.1832  0.1394  0.0931
19621W        W34752  13.836   9.187   4.916  0.1556  0.2376  0.4053
19622W        W34753   2.452   1.122   0.385 -0.2681  0.0497 -0.2180
19623W        W34754   1.794  12.714   1.375  0.2635 -0.1097  0.1482
19624W        W34755   5.248  10.442   3.730  0.1768  0.0330  0.0748
19625W        W34756   4.514   4.291   0.429  0.3311 -0.3294  0.1114
19626W        W34757  15.358   8.760   1.869 -0.0852 -0.1114  0.1573
19627W        W34758   9.437   6.223   0.755 -0.0765 -0.1065 -0.0745
19628W        W34759  16.344   8.780   1.893  0.3182  0.0688 -0.4258
19629W        W34760  13.920   0.581   0.326  0.1616  0.0713 -0.1176
19630W        W34761  14.440  12.049  11.310  0.0088  0.1167  0.3177
19631W        W34762   5.323  15.632   1.906  0.2165 -0.2357 -0.1004
19632W        W34763   6.755  17.078  12.636 -0.2395 -0.1765  0.0711
19633W        W34764   7.308  11.373   3.342  0.0789 -0.1183 -0.0205
19634W        W34765  11.752  13.159   4.194  0.0844 -0.0008 -0.1031
19635W        W34766   4.259   5.508   3.941 -0.1448 -0.0243  0.2239
19636W        W34767   0.320   2.831   3.148  0.0680  0.2109  0.0686
19637W        W34768  12.261   9.442   3.376  0.0189 -0.4054  0.0210
19638W        W34769   9.141   2.661   3.073  0.1904 -0.2097 -0.3205
19639W        W34770  16.032   6.911  11.918  0.2585  0.0942 -0.1420
19640W        W34771  10.662   1.061  13.533 -0.2882 -0.1175 -0.2480
19641W        W34772  14.382   2.626  11.367 -0.0675  0.1247 -0.1718
19642W        W34773   4.681   1.864   3.941  0.3010 -0.0093  0.2199
19643W        W34774  11.795   7.250   3.665 -0.1272  0.0560  0.3189
19644W        W34775  17.983   2.614   3.059 -0.2172  0.2185 -0.0849
19645W        W34776  11.912   1.220  12.798  0.0006 -0.1289  0.0426
19646W        W34777  11.492   3.164  14.421  0.0904  0.2087  0.4050
19647W        W34778  10.548   8.591   1.429 -0.0311  0.0001  0.1835
19648W        W34779   6.067   8.190   3.188 -0.0341  0.0441  0.1656
19649W        W34780  13.823   0.970  12.183 -0.0744  0.0315 -0.1873
19650W        W34781  18.188   7.939  12.163 -0.2464  0.0452 -0.1536
19651W        W34782  14.169  15.949  12.315 -0.1864 -0.0073 -0.1462
19652W        W34783   7.212   1.389   4.203  0.2993  0.2828  0.0692
19653W        W34784   3.229   2.316   9.808 -0.0846 -0.1427 -0.1704
19654W        W34785   8.686  13.462  12.531  0.0101  0.3419  0.2358
19655W        W34786   9.054  16.748   1.400 -0.0494  0.3943 -0.0779
19656W        W34787  11.146   6.816  14.691 -0.0336 -0.0322 -0.0285
19657W        W34788  13.549   1.358  10.849 -0.0722  0.1041 -0.3845
19658W        W34789  11.356   0.587  12.245 -0.1088  0.0544  0.2028
19659W        W34790   7.050   3.911  10.945 -0.1459  0.1662 -0.1983
19660W        W34791  15.225   1.204   3.125  0.0496  0.2589  0.1152
19661W        W34792   4.893  12.223  11.590  0.0730  0.0779 -0.1428
19662W        W34793  11.959  15.499   3.260 -0.0032  0.1059 -0.0667
19663W        W34794  14.564  16.827  14.265 -0.0616 -0.2183 -0.2739
19664W        W34795   5.026   8.023  12.826 -0.0421 -0.2661  0.1583
19665W        W34796   6.697  15.667   3.925 -0.2238 -0.1860  0.2336
19666W        W34797  12.815  10.301  13.236  0.1460 -0.4403  0.1307
19667W        W34798  14.248  11.992  14.557 -0.0486 -0.2673 -0.1430
19668W        W34799   8.883   3.141   5.213  0.0287 -0.1318 -0.0428
19669W        W34800  18.311   0.139  14.539  0.1469 -0.0645  0.0465
19670W        W34801   5.528  14.141  12.877  0.2188  0.0636  0.2552
19671W        W34802  10.851   6.481   0.706  0.2507 -0.1035  0.0373
19672W        W34803   8.997   7.716  13.879 -0.1779  0.1241  0.0363
19673W        W34804  10.409   7.667   5.309  0.0272 -0.0635  0.1606
19674W        W34805   7.279   6.293  13.143 -0.0898 -0.0657  0.0969
19675W        W34806  13.840   6.859  15.278 -0.0268 -0.2119  0.1298
19676W        W34807   9.114  13.556   1.817  0.3928  0.1969  0.3439
19677W        W34808   7.071  15.622   1.451 -0.2948  0.0491 -0.0278
19678W        W34809   5.514  15.309  13.136 -0.1194 -0.0822 -0.3280
19679W        W34810   8.561   9.924  11.714  0.1347  0.1821  0.0776
19680W        W34811  17.697  12.196  15.662 -0.2482  0.1148  0.0221
19681W        W34812  10.398   8.895  14.942  0.0376  0.1477  0.2472
19682W        W34813   7.214   3.511  10.530 -0.2955  0.3795 -0.0198
19683W        W34814  12.575   4.323  13.389  0.0732  0.0355  0.4171
19684W        W34815  14.014  16.448   2.801 -0.4717  0.0766 -0.1637
19685W        W34816   7.085   3.269   0.287 -0.0043  0.0684  0.3475
19686W        W34817  18.169  18.291  11.497  0.1212 -0.2297 -0.0756
19687W        W34818  17.630   0.881   9.754 -0.1821 -0.0058  0.1560
19688W        W34819  12.750  10.723  12.511  0.1524  0.5116  0.1952
19689W        W34820  13.025   8.096   4.801  0.0677 -0.2782 -0.1590
19690W        W34821  13.970   5.215   4.691  0.0162  0.1658  0.2200
19691W        W34822  13.488   9.273  12.288 -0.3601  0.2723  0.4107
19692W        W34823   4.552  10.370  13.636  0.0076 -0.0439  0.0334
19693W        W34824  10.574   0.998   4.692 -0.2789  0.0028 -0.0479
19694W        W34825  15.288   4.640  12.939  0.4336  0.0590 -0.0113
19695W        W34826   2.545  14.316   3.149  0.2207  0.0727  0.1076
19696W        W34827  15.963   3.266  11.681  0.0634 -0.2963 -0.2038
19697W        W34828  11.338  16.156   2.388  0.3017  0.0130 -0.0608
19698W        W34829  15.411   8.613   3.722  0.0222  0.1611  0.2018
19699W        W34830  15.331   8.265   0.713 -0.0561  0.4202  0.0559
19700W        W34831   1.813  15.935   1.443  0.1492 -0.1814 -0.0097
19701W        W34832  15.270  16.616  11.024  0.0359 -0.2096  0.0093
19702W        W34833  17.093   2.185  15.473 -0.0847 -0.3987  0.0004
19703W        W34834  10.577   2.642   0.081  0.1857  0.1976  0.0871
19704W        W34835  11.222  13.291   4.256  0.1675 -0.0779  0.0858
19705W        W34836   4.730   1.247  14.842 -0.2905  0.0636 -0.3971
19706W        W34837  10.955   9.858  14.726 -0.0612 -0.1921 -0.1672
19707W        W34838   2.612   8.384   5.260  0.5146  0.1065  0.2590
19708W        W34839  10.294  16.555   0.497 -0.0225  0.0807 -0.0385
19709W        W34840  15.137  18.536   1.373  0.2540  0.3682  0.1636
19710W        W34841   4.049   3.776  12.990 -0.1144  0.0952 -0.1702
19711W        W34842  13.708   1.111   1.644  0.1680  0.1629 -0.0900
19712W        W34843   2.480   8.521  14.348 -0.3914 -0.0272 -0.1900
19713W        W34844   3.832  10.222   2.580 -0.0420  0.0394 -0.1519
19714W        W34845  11.287  16.776   0.134 -0.1561  0.3921  0.0978
19715W        W34846   7.245  17.087   4.164 -0.0142  0.0389 -0.1599
19716W        W34847  15.312  15.769  15.429  0.2892  0.1479  0.1290
19717W        W34848   1.981   0.344   1.379 -0.2570 -0.1242  0.3627
19718W        W34849  17.479  15.724  11.209  0.0415  0.0566  0.0939
19719W        W34850  14.757   4.489   4.959 -0.1866  0.1404 -0.0274
19720W        W34851   8.894  12.741   5.004 -0.1573  0.1102 -0.0174
19721W        W34852   4.366  12.345  12.230 -0.3607  0.1181  0.0283
19722W        W34853  12.466   6.118   0.643 -0.3878  0.5623 -0.1707
19723W        W34854   6.413   6.088   4.200  0.3355  0.2034  0.0665
19724W        W34855   3.886  10.824   0.482  0.2776  0.1173 -0.1046
19725W        W34856   9.869   6.462   2.772 -0.2124  0.3749 -0.1556
19726W        W34857   3.607   2.256  10.619  0.0759  0.3225  0.1491
19727W        W34858  10.253  16.422  15.607  0.0658  0.1115 -0.3533
19728W        W34859  17.025  12.787   4.930  0.2139  0.0145  0.2586
19729W        W34860  17.178  11.486  13.566  0.2868 -0.3241  0.0455
19730W        W34861  11.338  12.263   0.698  0.1838 -0.1588  0.2057
19731W        W34862   7.240   7.704  11.283  0.1911  0.3119  0.0157
19732W        W34863  12.022  11.361  12.369  0.2198  0.0291 -0.1382
19733W        W34864   5.869   9.797  15.470  0.0430 -0.1193  0.1658
19734W        W34865  17.473   5.204  15.355  0.2172  0.1543  0.1966
19735W        W34866   3.741   1.074  14.615  0.0672 -0.1258  0.0765
19736W        W34867   0.780   5.067   4.562  0.2320  0.2918 -0.1409
19737W        W34868  17.361   2.917  11.382  0.1791  0.2111  0.1143
19738W        W34869   8.283  15.685  13.318  0.0521 -0.0800 -0.1058
19739W        W34870   9.281  12.199   2.122  0.2301  0.3423 -0.1557
19740W        W34871   0.041  13.092  15.502 -0.0901 -0.1269 -0.0138
19741W        W34872  16.909  13.688   1.067 -0.0385  0.0193 -0.1552
19742W        W34873  12.890  15.758   3.564  0.2208 -0.2241  0.0045
19743W        W34874   4.546  17.214   1.974 -0.0398 -0.3703 -0.2618
19744W        W34875   7.631   4.952  13.577  0.2050 -0.1721  0.1803
19745W        W34876  14.531  11.571   4.485 -0.0265 -0.1665 -0.2742
19746W        W34877  16.384   2.393  12.991  0.0591  0.0979 -0.1586
19747W        W34878   8.108  14.659  12.713 -0.2558 -0.2574 -0.2579
19748W        W34879  17.359  15.383   4.684 -0.0646 -0.0508  0.1100
19749W        W34880   4.254   3.273   5.673  0.0722 -0.1099 -0.2365
19750W        W34881  12.399  13.371  10.680  0.1779 -0.0795  0.4822
19751W        W34882  16.947  17.844   0.531  0.1812 -0.1120 -0.0799
19752W        W34883  15.869  18.291  12.379  0.0966 -0.2602 -0.0128
19753W        W34884   3.391   8.680  14.036  0.1025  0.3515  0.1067
19754W        W34885  17.728  11.596   6.214  0.1635 -0.0569  0.1155
19755W        W34886   5.160   0.603  10.723 -0.0734  0.0131  0.0971
19756W        W34887  15.455  17.813   1.612  0.0792 -0.0599 -0.0631
19757W        W34888  12.366   0.179  10.856 -0.4131 -0.0311  0.1746
19758W        W34889   1.510   2.357   5.868  0.0008  0.2994 -0.2289
19759W        W34890   0.216   6.593  13.304 -0.0987 -0.3415 -0.3298
19760W        W34891  11.174   3.214   0.713  0.1540  0.4659  0.0749
19761W        W34892   8.054  18.519   1.000 -0.1285  0.0446  0.1771
19762W        W34893   1.970   6.429  11.813  0.0002  0.2103  0.1703
19763W        W34894  10.487   6.675   1.930  0.1296  0.1267  0.2081
19764W        W34895  11.275  14.190   2.076  0.1435 -0.2064  0.1176
19765W        W34896  13.067   4.255  13.430 -0.2915  0.0692 -0.2583
19766W        W34897   8.551   6.652   2.104  0.3040 -0.0624  0.2868
19767W        W34898  13.651   8.041   0.038 -0.1155 -0.3544  0.3485
19768W        W34899  18.090  15.852  14.983  0.0172  0.1707 -0.1425
19769W        W34900   2.371  12.749   5.391  0.1320 -0.2187  0.1076
19770W        W34901   1.250   3.672   1.968 -0.2386 -0.0208 -0.3076
19771W        W34902   6.827   9.974   4.670 -0.3101 -0.0698  0.0495
19772W        W34903  17.949  15.757  11.045 -0.1738 -0.2617 -0.0563
19773W        W34904  11.891   2.121   5.571 -0.1218 -0.3088  0.3475
19774W        W34905   7.678  13.790   3.400  0.2566  0.1645 -0.0158
19775W        W34906   6.099   7.508   1.194 -0.0965 -0.0802 -0.1399
19776W        W34907  11.691  18.550  11.670  0.0715  0.0590  0.4398
19777W        W34908   3.566  10.699  11.513  0.2136 -0.0770 -0.0347
19778W        W34909   4.686   5.256   6.222  0.2489 -0.0233  0.2343
19779W        W34910   3.508  12.277  11.473  0.0230 -0.0360  0.1502
19780W        W34911  12.885  15.357  13.259  0.0963  0.2383  0.1401
19781W        W34912  12.622  13.832  10.885  0.0051 -0.2157 -0.1501
19782W        W34913  16.622  12.727   5.223  0.0682  0.3284 -0.2677
19783W        W34914   7.396  12.014   1.487 -0.1202  0.1224 -0.0284
19784W        W34915   4.776  14.715   1.628  0.2267  0.0940 -0.2169
19785W        W34916  15.930   0.239  14.415 -0.2782  0.3824  0.1262
19786W        W34917  16.805  12.187   2.621 -0.1279  0.0192  0.0529
19787W        W34918   1.926   1.194  12.340  0.1563  0.2302  0.2204
19788W        W34919   4.808  13.944   9.329 -0.1636 -0.0885  0.3481
19789W        W34920   7.779   4.859   1.134 -0.1767  0.1983  0.4457
19790W        W34921  18.055  14.568  15.317 -0.3070 -0.2711 -0.1121
19791W        W34922   9.235  14.458  14.616 -0.3249  0.1446  0.2548
19792W        W34923  13.859  13.978   5.319 -0.1281 -0.2708  0.0762
19793W        W34924  12.935  17.958  11.177 -0.0080 -0.1025  0.2055
19794W        W34925   8.752  12.719  10.817 -0.1068  0.0936 -0.3583
19795W        W34926   2.411  12.141   0.342 -0.2000 -0.2156  0.0452
19796W        W34927  18.157   4.758  12.317  0.5061  0.0244 -0.2314
19797W        W34928   2.624  11.034   1.598 -0.2702  0.0376 -0.0375
19798W        W34929   7.815   4.550  15.226  0.0369  0.4329  0.1846
19799W        W34930   1.473   4.400  12.141 -0.0789  0.1019  0.1941
19800W        W34931   2.486   8.778  14.982 -0.3625  0.1085 -0.2447
19801W        W34932   3.651  10.630  12.615 -0.0232  0.0863 -0.0671
19802W        W34933  13.015   7.375   2.269 -0.0948  0.1962  0.0039
19803W        W34934   0.503   4.376  15.214  0.1692 -0.0385  0.1812
19804W        W34935   0.375  17.615  14.305  0.0126  0.1028  0.0732
19805W        W34936  14.767   3.063  11.350  0.0060  0.0070 -0.3971
19806W        W34937  14.208   1.389   5.220 -0.1611  0.4816 -0.2053
19807W        W34938   8.529   3.519   0.141  0.3300  0.3322  0.0124
19808W        W34939  13.099   5.089   1.234 -0.2464 -0.1152 -0.0086
19809W        W34940   8.866   6.155   0.356 -0.0378  0.1664 -0.0815
19810W        W34941  14.874   1.080  14.184 -0.1359  0.2150  0.1006
19811W        W34942  14.655  13.788  11.223 -0.0108 -0.0632  0.0394
19812W        W34943  12.419  16.586  15.172 -0.1005 -0.3373  0.1330
19813W        W34944   6.365   3.079   2.520  0.1081 -0.1648  0.0566
19814W        W34945   1.694   5.315  12.533 -0.2476  0.0205  0.1528
19815W        W34946  16.164   1.938  14.915  0.3999 -0.1895 -0.0646
19816W        W34947   0.468   9.165  15.625 -0.2634  0.0925  0.0590
19817W        W34948  10.948   4.364   5.171 -0.2402  0.2252  0.0378
19818W        W34949  17.848   1.535  11.760 -0.2181  0.1327  0.0029
19819W        W34950  12.920   3.375   3.731  0.1388 -0.1357  0.1043
19820W        W34951   3.022  18.421  14.081 -0.1873  0.0426  0.1571
19821W        W34952   8.895   6.810   4.728 -0.0856  0.1855  0.2211
19822W        W34953   3.320   2.948   1.308 -0.0036  0.3220  0.2148
19823W        W34954  16.154  14.666  12.182  0.0652 -0.0385 -0.0345
19824W        W34955  17.821   0.766  13.552  0.1745 -0.1752  0.0179
19825W        W34956  12.839  15.580  11.613 -0.0931 -0.3006  0.0490
19826W        W34957   3.606   7.155   4.274  0.0738 -0.0913  0.3366
19827W        W34958  11.205   4.167   4.611 -0.1317 -0.3112  0.2495
19828W        W34959   9.505   0.731   1.516  0.0170  0.0357  0.0044
19829W        W34960  13.604  13.420  15.260  0.2370  0.1802 -0.2733
19830W        W34961  15.605  14.621   6.059 -0.4839  0.1140 -0.2019
19831W        W34962   7.585   8.801   4.770  0.2161  0.3366  0.1064
19832W        W34963  18.573   3.904   1.706 -0.4379 -0.3809  0.0348
19833W        W34964   3.455  14.515  11.093 -0.0319  0.0200 -0.0739
19834W        W34965  15.216   9.946   4.373  0.1455  0.0944  0.0487
19835W        W34966  12.744  14.474   5.611  0.2231  0.0519 -0.1868
19836W        W34967   0.251   4.626   6.216  0.0500 -0.0142 -0.1184
19837W        W34968   4.453  16.807  14.517  0.1155 -0.4130  0.2979
19838W        W34969  13.858  18.131   0.044 -0.0362  0.1035 -0.0141
19839W        W34970  12.490  10.285  15.468  0.1307 -0.2015 -0.2413
19840W        W34971  10.900  15.030  14.490 -0.1068 -0.1708  0.1672
19841W        W34972  10.290  11.863   2.521  0.1928 -0.4613  0.0179
19842W        W34973  17.298   8.264  11.115 -0.1660 -0.0589 -0.0317
19843W        W34974   1.678   7.885   5.942 -0.0026  0.1876 -0.1067
19844W        W34975   1.747  17.599  13.458 -0.1327  0.0835 -0.0905
19845W        W34976   9.908   2.783  10.986 -0.0799  0.0082 -0.0869
19846W        W34977   7.631  10.902   4.684 -0.1159 -0.2623  0.0971
19847W        W34978   5.639  18.358   4.210 -0.0431  0.0175  0.0045
19848W        W34979  16.167   4.531   1.467 -0.1020  0.1224  0.1232
19849W        W34980  10.640   0.671  13.862 -0.2715 -0.2728  0.0650
19850W        W34981  13.361   2.234   1.625  0.1438  0.0747 -0.0788
19851W        W34982   6.753  15.749  14.996  0.0807 -0.1516 -0.0245
19852W        W34983   8.214  15.345  15.078  0.0835 -0.2257  0.3357
19853W        W34984   6.955  13.175   0.523  0.3189 -0.0741  0.0179
19854W        W34985   7.890  17.099  11.957  0.2549  0.2410  0.0004
19855W        W34986  11.591  18.174   9.684 -0.2206 -0.0743 -0.0120
19856W        W34987  11.778  12.923  15.487  0.0083  0.1020  0.1444
19857W        W34988   9.530   4.377   1.468  0.0985 -0.1188 -0.1742
19858W        W34989  12.785  10.963  15.090  0.1384  0.2298 -0.0578
19859W        W34990  14.731  13.891  10.455  0.2974  0.3406  0.0449
19860W        W34991  15.767  15.985  13.843 -0.2787 -0.2794 -0.0856
19861W        W34992  13.788  13.722   1.867 -0.0336 -0.0526 -0.1024
19862W        W34993   5.222   2.403  13.886  0.1320 -0.0726 -0.3671
19863W        W34994  12.684   8.751   2.231  0.0448 -0.0805 -0.1835
19864W        W34995  17.584   9.894  12.708 -0.3243  0.2400 -0.0013
19865W        W34996   1.294   1.088   1.408  0.0536 -0.0839 -0.0039
19866W        W34997  14.139   7.194   1.212  0.1937 -0.0185 -0.2392
19867W        W34998  15.224   9.693  14.090  0.0111  0.3374  0.2530
19868W        W34999   8.665   2.186  14.430 -0.1872 -0.0832  0.0324
19869W        W35000   6.368   0.745   3.395  0.2340 -0.0052  0.1536
19870W        W35001   1.119  16.398   0.970 -0.0417 -0.3273  0.2010
19871W        W35002   0.014   0.202   3.481 -0.0184 -0.1652  0.2966
19872W        W35003  17.832   0.756  10.202 -0.0989 -0.0950 -0.0796
19873W        W35004   7.303   3.566  14.535  0.1575  0.0887  0.2025
19874W        W35005   7.407  16.553  13.144  0.0013 -0.0816 -0.0152
19875W        W35006   7.987   0.143  13.472 -0.3323  0.1276 -0.3111
19876W        W35007   2.316   3.326  14.080 -0.0883  0.1345  0.5401
19877W        W35008   5.497   8.677   0.788  0.0895 -0.1434  0.2504
19878W        W35009  16.160  15.758  11.885  0.1171  0.0689 -0.1761
19879W        W35010  14.724  12.597   0.455 -0.0124 -0.0592  0.3766
19880W        W35011   6.926   6.308  15.321  0.4330 -0.2575 -0.2008
19881W        W35012   9.515   4.422  15.854 -0.1831 -0.1732 -0.0020
19882W        W35013  14.716   5.185  11.536  0.2698 -0.3971  0.0902
19883W        W35014  10.932  15.682   4.158 -0.3164 -0.0761 -0.2225
19884W        W35015  13.801   2.164   4.185  0.0556 -0.0916 -0.1044
19885W        W35016  16.357  11.493   3.523 -0.0514 -0.0164 -0.4257
19886W        W35017  15.441  13.929   3.709 -0.4187 -0.1786 -0.0857
19887W        W35018  13.821  15.234  14.402  0.2364  0.0273 -0.2192
19888W        W35019   7.065  16.326  11.019 -0.0169 -0.0358 -0.1423
19889W        W35020   5.966   0.462   1.856 -0.2844  0.0935 -0.0909
19890W        W35021  10.532  17.158  13.597 -0.2219 -0.0915 -0.0629
19891W        W35022  14.212   4.138   4.781  0.0705 -0.3194 -0.1476
19892W        W35023  12.997   1.089   0.715 -0.1339 -0.3607  0.2705
19893W        W35024   4.896   3.137   1.409  0.0762  0.0787 -0.0917
19894W        W35025  15.725  11.184   4.940  0.0626  0.3246  0.0789
19895W        W35026   8.902   3.337   0.448 -0.1279  0.1155 -0.2343
19896W        W35027   4.874   1.329   2.256 -0.1967 -0.2157 -0.1670
19897W        W35028   9.779  11.160  14.617  0.0547  0.0360  0.1926
19898W        W35029  15.817  10.086   5.121 -0.2407 -0.0420  0.1861
19899W        W35030   5.459   5.639  13.033  0.0927 -0.1179 -0.2140
19900W        W35031  11.446  10.650  15.192 -0.0560  0.1419 -0.1696
19901W        W35032   5.264   7.331   3.237  0.1666  0.1224 -0.0279
19902W        W35033  13.574  12.813  15.150  0.1914 -0.1532 -0.1470
19903W        W35034  17.495   3.466  11.541 -0.0219 -0.0232  0.2543
19904W        W35035  13.022   4.476   0.658  0.1219 -0.1022  0.1885
19905W        W35036  11.851  14.489   5.015 -0.0885  0.3216  0.1759
19906W        W35037  15.787   3.427   4.566  0.0371 -0.0210 -0.1084
19907W        W35038   8.847  16.147  10.525  0.3210 -0.0035  0.1898
19908W        W35039  17.674   8.165   0.801  0.1534 -0.1400 -0.0193
19909W        W35040  13.350   5.523   3.798 -0.2140 -0.0186  0.1847
19910W        W35041  10.992   7.649  11.757 -0.1151  0.0297 -0.2042
19911W        W35042  12.379  11.414  10.410 -0.5163 -0.2696 -0.0968
19912W        W35043   6.524   4.234  15.568 -0.0372 -0.1110 -0.3487
19913W        W35044   5.019   9.702  14.927  0.0713 -0.0152 -0.0946
19914W        W35045   7.794  13.770   0.157  0.0317  0.4127  0.3268
19915W        W35046  12.607  17.051  13.496  0.0579 -0.1338 -0.1787
19916W        W35047   2.033   8.161   3.323  0.2283 -0.0140  0.2773
19917W        W35048   4.711  15.368   0.505  0.4111  0.2423 -0.0367
19918W        W35049  17.763  10.904  15.344  0.1217  0.1489 -0.1069
19919W        W35050  17.751   6.393  14.676 -0.0968 -0.0832  0.2149
19920W        W35051   9.456  15.720   9.272  0.1618 -0.0855 -0.1099
19921W        W35052  10.254  15.113   2.834  0.0273 -0.0260  0.0290
19922W        W35053   5.796  10.163  14.536  0.0432  0.1770 -0.0781
19923W        W35054  16.349   7.444   2.715 -0.2567 -0.0767  0.2118
19924W        W35055  11.213   0.593  13.892 -0.2052 -0.3444  0.0063
19925W        W35056   5.638   8.461   2.971 -0.2020 -0.0283  0.0089
19926W        W35057  17.556   6.631   1.203  0.0405 -0.0843 -0.0588
19927W        W35058   2.666   3.019  14.159  0.0112  0.1428  0.0976
19928W        W35059  14.056   9.624   4.998 -0.2547 -0.2757 -0.2387
19929W        W35060  13.198   0.418  13.867 -0.2799 -0.1803 -0.0922
19930W        W35061   2.480  11.262   3.984  0.2448 -0.2210  0.0455
19931W        W35062   0.509  18.109   4.519  0.1408  0.2214  0.0325
19932W        W35063  13.765   9.278   0.220 -0.0880 -0.2524 -0.0683
19933W        W35064   9.592   2.725   1.169  0.3049  0.1233  0.2188
19934W        W35065   0.439   0.813   4.286 -0.0012 -0.4670  0.3556
19935W        W35066   7.230  16.071   1.363 -0.1432  0.0318  0.4837
19936W        W35067  14.033  16.240  15.785  0.0737  0.1404 -0.0418
19937W        W35068  16.882  11.472   1.575  0.1565 -0.0127 -0.1769
19938W        W35069   1.424   7.613  14.088 -0.4342 -0.0815 -0.0558
19939W        W35070  14.249   1.129   3.062 -0.2555  0.0107  0.2694
19940W        W35071  16.905  15.446   2.984  0.0656 -0.3328 -0.1032
19941W        W35072  15.061   6.653   3.489  0.0311 -0.4493  0.3497
19942W        W35073   3.792   3.959  13.609 -0.0880  0.0112 -0.1231
19943W        W35074   5.139   6.136  15.447 -0.0671 -0.3386 -0.0088
19944W        W35075  11.969   8.045   1.547  0.0369  0.0402 -0.0280
19945W        W35076  14.989  11.037  14.264 -0.0266 -0.0688  0.1160
19946W        W35077   2.494  10.945  11.361  0.0951  0.0496 -0.0508
19947W        W35078  12.560   9.184   3.035 -0.1852  0.3102  0.1188
19948W        W35079   5.817   1.209   5.582  0.1547  0.0751  0.0507
19949W        W35080  13.833  17.513  14.032  0.1003  0.0836 -0.2062
19950W        W35081   5.676  18.225  10.443 -0.2654 -0.5366 -0.1608
19951W        W35082  10.973   0.843   1.269 -0.0799  0.0574  0.2370
19952W        W35083   3.464  15.802   1.300 -0.1560  0.2064  0.0490
19953W        W35084  15.792   3.056  12.462  0.0549  0.1641 -0.2086
19954W        W35085  14.250   9.597   0.800 -0.3014  0.0288 -0.3695
19955W        W35086   2.150  14.096   4.710  0.0675  0.3629 -0.1297
19956W        W35087   9.313   1.557   0.630  0.1014  0.1485  0.1415
19957W        W35088  14.727  14.952   4.828  0.2489 -0.0918 -0.1354
19958W        W35089  11.765  13.731   3.417 -0.0181 -0.1037 -0.3481
19959W        W35090   3.988  16.954   2.320  0.0625 -0.1301 -0.1000
19960W        W35091   0.975  16.183  14.717 -0.1946  0.3478  0.3325
19961W        W35092   7.163  18.565   1.362  0.0994  0.2285  0.3859
19962W        W35093  16.198  11.103  12.035 -0.4821 -0.0102 -0.0453
19963W        W35094  17.641   6.894   1.694  0.2316  0.0377  0.0648
19964W        W35095  15.142   2.512   3.174 -0.2650  0.1829  0.0942
19965W        W35096   2.765   8.242   3.937 -0.2495 -0.0141 -0.0566
19966W        W35097   4.430  17.515   1.575  0.2278  0.0154  0.0297
19967W        W35098  15.014   9.167  15.272  0.0680  0.1424  0.0664
19968W        W35099  18.059   3.965  15.195 -0.2692 -0.0498  0.3443
19969W        W35100  16.909   0.061   6.309  0.0165  0.2042  0.0693
19970W        W35101  17.230   6.478   0.032  0.3423  0.1847  0.0887
19971W        W35102  11.226   5.020   1.725  0.1874  0.2651  0.0872
19972W        W35103  15.049  10.101  12.179  0.0584  0.4316  0.1709
19973W        W35104   3.981  15.139   3.929  0.1489  0.0879  0.2644
19974W        W35105   7.555  16.193   0.914  0.0454 -0.1034 -0.5018
19975W        W35106   3.129   2.656   0.733 -0.2003 -0.1989  0.6782
19976W        W35107  15.579   4.814  13.895 -0.1222 -0.0346  0.0911
19977W        W35108   7.811  12.470  13.116  0.1063  0.1865 -0.0919
19978W        W35109  13.911  16.066  13.684 -0.1312  0.1498 -0.1913
19979W        W35110  18.238   9.881   9.987 -0.0853 -0.1394  0.1539
19980W        W35111   0.096  10.304  13.723  0.1286 -0.1119  0.2537
19981W        W35112  13.720   2.861  14.462 -0.0993 -0.1667 -0.0006
19982W        W35113  10.272  11.320   2.343 -0.0762 -0.3883 -0.0941
19983W        W35114  11.182  15.336  14.824  0.2783 -0.2750 -0.1464
19984W        W35115  13.512   5.793  11.663  0.1021 -0.4936  0.0116
19985W        W35116   7.161   0.470   1.860  0.0966  0.2638  0.0112
19986W        W35117  14.299   2.285  10.965 -0.2880  0.0312 -0.0267
19987W        W35118  14.385   7.918   5.865 -0.1448  0.2851 -0.1475
19988W        W35119   6.346   8.044   2.078  0.1235 -0.1489 -0.1009
19989W        W35120  10.864  15.427   1.356 -0.0130 -0.1527  0.1634
19990W        W35121   6.266   3.307  12.090 -0.3035 -0.1304  0.0532
19991W        W35122   2.294  10.983  11.838  0.0627 -0.1737  0.0851
19992W        W35123   4.763   2.575   1.932 -0.0403 -0.2372 -0.0222
19993W        W35124  13.965   2.191  12.210 -0.3148  0.3864 -0.0213
19994W        W35125   0.815  17.321  13.453 -0.1225 -0.0876 -0.1414
19995W        W35126  13.827   7.988   2.026 -0.0024 -0.0713 -0.0278
19996W        W35127   3.365  13.356  12.053  0.1877 -0.0718 -0.1267
19997W        W35128  15.112  11.715   0.267  0.0424  0.0305 -0.1461
19998W        W35129   5.380   2.770   4.741 -0.0201  0.1504  0.1727
19999W        W35130   2.839  17.661  14.786  0.2954  0.1081  0.0807
20000W        W35131   8.917  13.473  11.254  0.0377  0.2939  0.0496
20001W        W35132   0.920   6.803   3.767  0.2167  0.0405 -0.0890
20002W        W35133  11.104  10.128   2.029 -0.0946 -0.2952 -0.0283
20003W        W35134  13.030  18.032   4.683  0.2391  0.2502 -0.0384
20004W        W35135  12.192  10.802  13.080  0.4864  0.3772 -0.0095
20005W        W35136  16.647   9.012  15.503  0.2946  0.1501 -0.1881
20006W        W35137   7.606   3.185   3.388  0.1119  0.0400 -0.0394
20007W        W35138  14.051  16.204  11.475 -0.0868 -0.1153 -0.0425
20008W        W35139  13.105   2.681  13.819 -0.1156 -0.1458 -0.0686
20009W        W35140  13.454   7.422  14.442  0.0946 -0.0141 -0.0516
20010W        W35141  16.993   4.233   5.620 -0.0588  0.3537 -0.1945
20011W        W35142  17.455   0.372  14.157 -0.0410 -0.1399  0.0054
20012W        W35143  11.835  16.266  14.500  0.1263  0.1669  0.3829
20013W        W35144  13.167  10.750   1.960 -0.4250  0.0484  0.0956
20014W        W35145   7.345  10.368  13.203 -0.2201  0.0514 -0.1402
20015W        W35146  11.737  12.700  13.226 -0.2149  0.2662 -0.0383
20016W        W35147   6.263   6.232  11.718  0.2814  0.0870 -0.1091
20017W        W35148  17.953   3.506  13.595 -0.2787  0.0996 -0.2675
20018W        W35149  13.647   3.382  13.487 -0.3161  0.3312  0.2472
20019W        W35150   6.939   4.075   5.380  0.0270  0.0391 -0.0739
20020W        W35151   3.447   9.924  13.336 -0.0292  0.2464  0.1264
20021W        W35152  17.446  10.219   3.416 -0.0498  0.1899 -0.2213
20022W        W35153  16.994  18.057   3.295 -0.3275 -0.2385 -0.0434
20023W        W35154   5.062   0.050   2.859 -0.3108 -0.0031  0.1445
20024W        W35155   3.060  12.479   0.151  0.1299 -0.1935 -0.0912
20025W        W35156   6.040   1.333   1.111 -0.3885 -0.1312 -0.1042
20026W        W35157   3.930   9.485   1.818 -0.0843  0.0621  0.1501
20027W        W35158   5.833   5.184  14.691 -0.2544  0.0179 -0.0591
20028W        W35159  14.364   7.641  12.874 -0.0757  0.1273  0.0514
20029W        W35160   7.845   3.606   2.866  0.1951  0.1764  0.0996
20030W        W35161   7.063  10.509  14.093 -0.1141  0.0893  0.0613
20031W        W35162  13.198   6.257   0.454  0.0275  0.1955  0.1238
20032W        W35163  18.500   9.500   5.679 -0.1136 -0.1313 -0.3496
20033W        W35164   1.848  11.970  14.161  0.5413 -0.2444  0.0348
20034W        W35165   5.904  13.181   1.692  0.0315 -0.1319 -0.1320
20035W        W35166   7.754  14.299  15.472  0.1651  0.0138  0.1220
20036W        W35167   2.861  13.072  13.218 -0.3612  0.2507 -0.0980
20037W        W35168  13.489   2.819   1.571 -0.0330 -0.0406  0.0892
20038W        W35169  18.110  13.206  14.964 -0.1447 -0.1784 -0.1795
20039W        W35170  14.198  17.576   3.884  0.2968  0.1077  0.0014
20040W        W35171  17.062   0.472  14.466 -0.2217  0.1694  0.0059
20041W        W35172   3.382   4.053  11.318  0.2440 -0.2099 -0.0449
20042W        W35173  17.139   1.254  14.132  0.0099  0.0631  0.2997
20043W        W35174  12.346  17.227  13.926 -0.2402 -0.0025 -0.1547
20044W        W35175   8.738   4.315   0.782 -0.0882  0.0657  0.7397
20045W        W35176   4.068  17.505  14.790 -0.1966 -0.0576 -0.4034
20046W        W35177   5.647   0.976   2.628 -0.0043  0.2580 -0.1995
20047W        W35178  11.342   9.000  14.624 -0.1752 -0.0833 -0.2086
20048W        W35179   7.234   4.022   3.503  0.1289  0.0860  0.1259
20049W        W35180   6.552  12.944   0.840 -0.0131  0.0312 -0.0115
20050W        W35181  14.030  16.294  15.161 -0.3342  0.4303  0.1294
20051W        W35182   6.909  12.408   1.427 -0.1447 -0.3552  0.1665
20052W        W35183   7.241  10.509  12.729 -0.2328 -0.0245  0.4609
20053W        W35184   6.662  13.081   2.133  0.0626  0.0528 -0.2208
20054W        W35185   5.799  10.097  13.518  0.0611 -0.4126 -0.0722
20055W        W35186   3.597   6.321   0.464  0.2152 -0.2438 -0.3049
20056W        W35187   5.945  17.206   3.930  0.1201  0.2519 -0.3659
20057W        W35188   3.583  10.321   4.336  0.0747  0.0030  0.1113
20058W        W35189   1.838   7.992   4.768 -0.1208 -0.1811 -0.1676
20059W        W35190   6.830   6.349  11.777 -0.3807 -0.1339  0.3756
20060W        W35191   9.330   4.326  12.688 -0.2998  0.0429  0.0296
20061W        W35192   0.060   7.485  14.336 -0.0038  0.0546  0.0788
20062W        W35193  14.150  17.327   4.878 -0.2748 -0.0770  0.4884
20063W        W35194  14.720  14.164   4.632 -0.0208 -0.0734  0.0527
20064W        W35195  11.265   3.165  14.862  0.0946  0.0761  0.1962
20065W        W35196  18.497  14.389  15.227  0.1070 -0.0937 -0.1935
20066W        W35197   6.664   4.477   5.410 -0.0890  0.1229  0.1288
20067W        W35198   5.229   2.419  12.799  0.1758 -0.0842  0.3603
20068W        W35199  12.808   4.159  15.885 -0.0027  0.2795  0.1476
20069W        W35200   1.920  14.561   4.750  0.0528 -0.1789 -0.2334
20070W        W35201   1.509   0.712   0.422  0.0004 -0.2325  0.2077
20071W        W35202  14.374   0.511  10.484  0.2494  0.0346 -0.1220
20072W        W35203  12.644   5.712   0.237  0.2355  0.1445  0.2295
20073W        W35204   9.164   5.828   0.183  0.3403  0.1315 -0.3700
20074W        W35205   9.072   5.264  13.092  0.0211 -0.0016  0.3321
20075W        W35206   2.102   8.384   4.587  0.1847 -0.1197 -0.1967
20076W        W35207   3.261   8.955   0.277  0.0118  0.1382  0.0825
20077W        W35208   8.463   2.590   0.404 -0.1056  0.4072  0.0543
20078W        W35209  17.614   5.903  14.504  0.0043 -0.1416 -0.1354
20079W        W35210  17.106   6.839   0.478 -0.2269 -0.0898 -0.0146
20080W        W35211  10.057  13.847   2.806 -0.0712  0.3711  0.2215
20081W        W35212  16.085   7.382  10.378 -0.4119 -0.0838  0.0454
20082W        W35213   3.243  10.754  14.471 -0.0815 -0.0099  0.2534
20083W        W35214   5.799  15.255   0.449  0.6099 -0.0047 -0.0373
20084W        W35215  17.703   1.324  14.117  0.2472 -0.2643 -0.3684
20085W        W35216  11.011   2.426   0.211  0.0764 -0.1759 -0.3011
20086W        W35217  14.957   6.469   0.269  0.2649 -0.1212  0.0506
20087W        W35218   2.224   1.620  14.911 -0.1652 -0.0236 -0.2909
20088W        W35219   4.740   1.958   2.828 -0.0510 -0.0368 -0.1353
20089W        W35220   4.829  11.004   1.728  0.2262  0.3759  0.1874
20090W        W35221  15.468   3.180   2.457  0.0137 -0.1426 -0.1925
20091W        W35222  13.977  13.064  13.988 -0.1756 -0.0233  0.0543
20092W        W35223  15.838  12.819   4.527  0.1834  0.1860  0.0727
20093W        W35224   8.798  14.882  14.526  0.0903  0.3006 -0.0502
20094W        W35225   7.827   0.575  14.232 -0.1163 -0.0759 -0.0839
20095W        W35226   3.970   0.786   1.436  0.1057  0.1250 -0.0768
20096W        W35227   0.024   4.286   0.937 -0.1688 -0.2755 -0.0663
20097W        W35228   5.111  10.672   0.839  0.0776  0.0369  0.2188
20098W        W35229  11.986   6.382  13.935 -0.2460 -0.0036 -0.0086
20099W        W35230  15.927   9.059   1.010 -0.0910 -0.1357  0.0764
20100W        W35231  15.011   2.100   1.597 -0.0255 -0.4195  0.0408
20101W        W35232  10.482   4.827  10.124  0.0152  0.2401 -0.0196
20102W        W35233  10.684  11.438   3.261 -0.0065  0.1371 -0.2217
20103W        W35234   1.778   7.813  12.638  0.0372  0.1724  0.1361
20104W        W35235  16.081  16.381   4.076 -0.1200  0.0872 -0.4116
20105W        W35236   5.355  12.810  12.816 -0.2378 -0.0037 -0.1300
20106W        W35237   0.775   0.638   0.426 -0.1606  0.1861  0.0661
20107W        W35238  13.147   1.337   5.266  0.0852 -0.0522  0.0331
20108W        W35239  17.884  11.353   4.051 -0.4350 -0.0547  0.3614
20109W        W35240   5.496   3.416   4.123  0.2253 -0.0539  0.1246
20110W        W35241   4.732  16.901   3.629  0.0042 -0.2456 -0.0509
20111W        W35242   7.813   7.151  13.498  0.2607 -0.2286 -0.1643
20112W        W35243   9.626   0.053   4.910  0.0954  0.4267  0.0686
20113W        W35244  12.431  12.651  11.953  0.0192 -0.3223  0.0508
20114W        W35245  13.062  13.112   1.580  0.0134  0.2523  0.0995
20115W        W35246   0.663   0.099   1.378  0.0730 -0.1465 -0.2553
20116W        W35247  17.928   7.742   3.616 -0.3802  0.2702 -0.0357
20117W        W35248   3.911   1.975   1.935  0.1280 -0.3740  0.0887
20118W        W35249  12.933   6.591  11.336 -0.0091  0.0907 -0.1113
20119W        W35250  15.711   8.232   5.127  0.1909 -0.1075  0.1189
20120W        W35251   1.033  11.621   4.529  0.1596  0.2122 -0.0222
20121W        W35252   3.720   2.484   4.168 -0.0569 -0.1723 -0.2270
20122W        W35253  14.081  17.168   0.645  0.2451  0.1562 -0.2643
20123W        W35254   6.020   5.307   0.947  0.0415  0.1471  0.0606
20124W        W35255   5.110   7.798   3.707 -0.0442 -0.0526  0.0532
20125W        W35256   7.348   0.380  10.154 -0.0127  0.2517  0.0403
20126W        W35257   0.817   2.898  15.058  0.0959 -0.1069  0.2007
20127W        W35258  15.814   6.276  14.044 -0.2859  0.0408  0.2022
20128W        W35259   7.803   3.777  13.636 -0.2691 -0.0349  0.1059
20129W        W35260   7.147  10.124   3.609  0.3221 -0.1900 -0.0104
20130W        W35261   0.544  16.143  10.213  0.0959  0.2001 -0.0237
20131W        W35262   9.993   0.380   1.580 -0.1125 -0.0332 -0.1202
20132W        W35263   9.125  17.852   2.202  0.1134 -0.0456 -0.0274
20133W        W35264   6.791   6.957   3.723 -0.2736 -0.1182  0.2511
20134W        W35265   4.170  14.401  15.564 -0.4243  0.0172 -0.1170
20135W        W35266   4.815  13.187   1.291 -0.1489  0.1410  0.1697
20136W        W35267  17.855   1.083   2.683  0.3589  0.0908  0.4024
20137W        W35268  17.609   8.185   1.922  0.0261 -0.2727  0.0601
20138W        W35269  14.422   4.742  11.454 -0.1693  0.0689 -0.2410
20139W        W35270  12.022   3.612   4.210 -0.2942 -0.0443 -0.0679
20140W        W35271   9.671   9.406  12.194 -0.0749 -0.1878 -0.3000
20141W        W35272   3.877  12.814  14.750  0.4011 -0.1410 -0.0824
20142W        W35273  17.726   4.299   1.137 -0.0702  0.0342  0.0728
20143W        W35274   6.069  13.494   3.251  0.1109  0.0018  0.0614
20144W        W35275  14.893   5.532   5.798 -0.1363  0.2263  0.2651
20145W        W35276   8.340  12.958  11.104  0.3109  0.4785  0.1273
20146W        W35277  16.858  16.755   4.588 -0.1514  0.0945  0.2744
20147W        W35278   0.523   5.481   4.389 -0.0426  0.0572  0.2890
20148W        W35279  13.616  13.456   3.057 -0.1241 -0.4093  0.0924
20149W        W35280   2.337  12.267  11.576  0.1289 -0.1735  0.1015
20150W        W35281   5.060   5.156   1.028  0.1228  0.0404 -0.0679
20151W        W35282   8.424  12.383   5.373  0.0375  0.0916  0.1543
20152W        W35283   7.643   8.452  15.739 -0.0997  0.2030 -0.1004
20153W        W35284  18.460   1.968   1.476  0.1735 -0.2138  0.0606
20154W        W35285   8.498   9.166  15.635  0.0419 -0.0897  0.2194
20155W        W35286   8.663   8.011  14.074 -0.1853 -0.2008 -0.1905
20156W        W35287  15.035  15.021  12.523 -0.0123 -0.2765 -0.1584
20157W        W35288  16.869   8.576   1.207  0.0923 -0.1276 -0.2012
20158W        W35289   3.028  13.539  15.682  0.0592 -0.0287 -0.1123
20159W        W35290   1.450  17.617   1.649 -0.2226  0.0458 -0.1891
20160W        W35291   8.699  16.595  14.171 -0.1731 -0.1607  0.1983
20161W        W35292   4.640  11.190  11.400  0.1365  0.0967  0.4935
20162W        W35293  11.529   0.844  11.508 -0.1749  0.1576 -0.0269
20163W        W35294   9.591   4.888  12.763 -0.0780 -0.0996  0.0139
20164W        W35295  13.051   1.780   1.541 -0.0856 -0.0472  0.0585
20165W        W35296  10.186  17.888  11.051 -0.0957  0.0292  0.0926
20166W        W35297  10.321   2.685   5.705  0.3193 -0.0551 -0.0801
20167W        W35298  14.555  15.917   1.644  0.0553  0.2252  0.2803
20168W        W35299   0.507  16.819   3.513 -0.1671  0.2408  0.1038
20169W        W35300   8.759   3.207  10.421 -0.1522 -0.0841 -0.1094
20170W        W35301  17.591   9.446  13.514 -0.1143  0.2312  0.0016
20171W        W35302  15.927   0.812  15.408  0.0550  0.3151 -0.0627
20172W        W35303  10.386  11.627  11.930 -0.0247 -0.1995  0.1158
20173W        W35304  12.271   1.487  12.389  0.0588 -0.2163 -0.2081
20174W        W35305   2.307  15.944  11.269 -0.1443  0.0353 -0.4427
20175W        W35306  10.755  16.135  15.703  0.5106  0.1343  0.0317
20176W        W35307  14.333   8.091   2.727  0.1477  0.0648  0.3977
20177W        W35308  17.695  18.284   4.354  0.2211 -0.0690 -0.0004
20178W        W35309  16.803  15.358  13.859  0.0042 -0.0085  0.2709
20179W        W35310  12.188  17.881  10.901 -0.0141 -0.0887  0.1422
20180W        W35311   8.139   6.853   4.607 -0.0921 -0.0223  0.2042
20181W        W35312   5.010  17.053   3.995 -0.0270  0.2453 -0.0262
20182W        W35313   4.750  14.524   0.188 -0.2440 -0.0707 -0.0193
20183W        W35314   7.117  17.681   2.249  0.0432 -0.3042 -0.2644
20184W        W35315   4.157  18.072   9.538 -0.1747 -0.2185 -0.0091
20185W        W35316   2.561   8.244   4.684 -0.1572  0.2001  0.1524
20186W        W35317  11.256  16.110   1.874 -0.0994  0.0874  0.2011
20187W        W35318  12.269  14.499   1.006  0.0474 -0.0267  0.2222
20188W        W35319   8.517  15.197   4.978  0.1771 -0.3290 -0.0209
20189W        W35320  10.452  12.045   0.198 -0.1144 -0.1150  0.3737
20190W        W35321  10.899  15.942  12.197 -0.1188  0.1811  0.1298
20191W        W35322  11.054  12.874   1.879 -0.1099 -0.0912 -0.0833
20192W        W35323   7.625   5.548   1.813 -0.0171 -0.1628  0.0142
20193W        W35324   4.958   4.646  10.933 -0.1479 -0.1731  0.0055
20194W        W35325   6.819   9.081   1.995  0.5184  0.2381 -0.2126
20195W        W35326  11.611   2.214   0.581  0.1514  0.3466 -0.0745
20196W        W35327   6.190  12.044   1.506  0.2017 -0.0793 -0.2802
20197W        W35328  14.194   2.450   2.048  0.1458  0.4257  0.1192
20198W        W35329  13.324   8.351   5.192 -0.0217  0.0798 -0.0037
20199W        W35330  11.886  11.172  10.607  0.0982  0.0926  0.0229
20200W        W35331   9.037  14.135   0.054 -0.0690 -0.3207 -0.1895
20201W        W35332   7.374  13.548  10.933  0.0894 -0.0546  0.1032
20202W        W35333   6.701   1.985  13.635 -0.1584 -0.0292 -0.3137
20203W        W35334  15.730  11.287  15.118 -0.0468 -0.0762  0.0966
20204W        W35335  11.998   2.717  14.895 -0.0737 -0.6513 -0.2278
20205W        W35336   0.154   6.938  14.160  0.0067  0.3119 -0.3188
20206W        W35337   0.157   8.728   0.375 -0.1015  0.2467  0.2034
20207W        W35338   3.168   6.272  14.302 -0.1714  0.1065 -0.4815
20208W        W35339   7.467   2.583  13.996  0.0800  0.0932  0.0015
20209W        W35340   2.987   7.956  12.860  0.2383  0.1191  0.0571
20210W        W35341  17.265   4.517   1.315 -0.0123  0.0578  0.0549
20211W        W35342  18.108  12.888   0.913 -0.3161  0.1501 -0.1724
20212W        W35343   8.197  11.372  14.778  0.0942 -0.0765  0.0681
20213W        W35344  15.583  14.000  10.986 -0.3286 -0.0438 -0.2389
20214W        W35345   0.715  13.044   3.097 -0.5046  0.2486  0.0410
20215W        W35346  10.861   5.638  10.962 -0.1231  0.0045  0.4455
20216W        W35347  17.275  15.560  14.052  0.3164 -0.0339  0.0444
20217W        W35348   3.659   9.747   4.811  0.2048 -0.0972 -0.0217
20218W        W35349   6.993   7.041  15.315  0.3461 -0.4352  0.1516
20219W        W35350   6.380  18.233   3.681  0.0609  0.3068  0.1796
20220W        W35351  11.393  17.547   2.436  0.3631  0.1611 -0.0005
20221W        W35352   8.101   6.581  15.256  0.3349 -0.2648 -0.1483
20222W        W35353   2.381   9.601   4.477 -0.1330 -0.1865 -0.2600
20223W        W35354   5.275   4.779   0.132 -0.1215  0.0693 -0.1088
20224W        W35355  15.873  15.925  10.839  0.3021  0.0244 -0.1247
20225W        W35356  11.559   5.027  14.375 -0.1341 -0.0188  0.1128
20226W        W35357  14.102  11.008   1.262 -0.1147  0.0050 -0.0830
20227W        W35358  13.169  12.112  11.129  0.0801 -0.0657 -0.2913
20228W        W35359   4.717   5.748   0.779 -0.0930  0.2071  0.1423
20229W        W35360  17.385  10.902   0.825  0.0035  0.2236  0.2150
20230W        W35361   4.374   5.385  15.655 -0.3958  0.0328  0.2555
20231W        W35362  14.183   9.063   0.008 -0.1906 -0.1661  0.1584
20232W        W35363   9.936   3.850   4.860 -0.0748 -0.3132  0.0725
20233W        W35364  17.869  12.616   0.050 -0.1276  0.1699  0.2902
20234W        W35365  16.134   7.846  14.051  0.0772 -0.1434  0.1094
20235W        W35366  17.458  15.859   1.573 -0.3085 -0.0098 -0.2259
20236W        W35367   8.262  14.233  14.870 -0.0022 -0.1547  0.1321
20237W        W35368   4.057  15.688   5.221  0.2891  0.1417 -0.2583
20238W        W35369   9.131  13.812   3.834  0.2207  0.0276 -0.2711
20239W        W35370   6.509  13.695   3.297 -0.1417 -0.2499  0.0896
20240W        W35371  16.845   2.706  13.822 -0.1269  0.1262 -0.0595
20241W        W35372   9.032   2.305   9.783 -0.1051  0.2071 -0.2299
20242W        W35373   0.665  13.697  10.488  0.1890 -0.0780 -0.1184
20243W        W35374  11.357  17.507  10.358  0.2543 -0.1324  0.2309
20244W        W35375   5.519  12.582  14.558  0.1898 -0.0439 -0.1688
20245W        W35376  18.381  11.337   5.117 -0.0128  0.1359 -0.0019
20246W        W35377   1.611  11.401  13.125 -0.0699  0.0653 -0.0760
20247W        W35378   9.684  10.858  14.987 -0.1354 -0.2909  0.0150
20248W        W35379  11.862   6.796   6.074  0.3186 -0.2420 -0.2026
20249W        W35380   1.180  16.754  15.266 -0.3904  0.5467  0.2991
20250W        W35381  13.027  12.030   3.788  0.1805 -0.1571  0.3510
20251W        W35382  10.121   3.957  12.464 -0.3762  0.3255  0.0454
20252W        W35383   3.677   0.129   4.804 -0.1036 -0.2227  0.5791
20253W        W35384   8.131  14.920   4.770  0.3807  0.1003  0.0119
20254W        W35385  11.098  14.903   3.206 -0.1202 -0.1583 -0.1850
20255W        W35386  17.385  14.074  15.657  0.2932 -0.0398  0.0848
20256W        W35387  16.686  18.567   4.459  0.0494  0.3282 -0.0313
20257W        W35388  16.044  15.464  13.635  0.2262 -0.1201 -0.1654
20258W        W35389   9.326  10.076   1.281  0.1546  0.3829  0.0018
20259W        W35390   5.571  13.653   1.789 -0.2165  0.1949 -0.2085
20260W        W35391  17.241   5.895   3.040 -0.0215 -0.0943 -0.2938
20261W        W35392  11.739   3.515  14.698 -0.0776  0.0203 -0.0235
20262W        W35393   2.880  12.047  15.946  0.1614  0.2027 -0.0833
20263W        W35394   3.170   7.438  11.125  0.2208 -0.1734  0.2961
20264W        W35395   3.826  16.677  14.747  0.2731  0.3564  0.1079
20265W        W35396   6.812  11.309  10.053 -0.0496 -0.0423  0.1824
20266W        W35397  10.222  16.431   1.660  0.0483 -0.1350  0.1271
20267W        W35398   9.401   8.918  13.130  0.4268 -0.2118  0.3258
20268W        W35399   5.736   6.758  11.973 -0.0496  0.0175 -0.0815
20269W        W35400   6.225  17.462   2.103  0.1385 -0.1428  0.2211
20270W        W35401  13.766   0.941   5.862  0.0309 -0.2567 -0.3509
20271W        W35402  12.897   7.703  10.028  0.0315  0.1538  0.0905
20272W        W35403  12.163   9.262   3.840  0.0016 -0.1513 -0.1359
20273W        W35404  11.378   4.440   1.586  0.1127 -0.1092 -0.3164
20274W        W35405  12.134  13.449  14.292  0.2032  0.1195 -0.1607
20275W        W35406   1.099   7.645   2.436  0.0633  0.1873  0.0002
20276W        W35407   1.303  11.754   5.503  0.2965  0.2016 -0.1039
20277W        W35408   1.058  16.591  12.581  0.1508  0.0908  0.0308
20278W        W35409  14.038   5.501  13.314 -0.0677 -0.1974 -0.2756
20279W        W35410   7.750   9.920   5.590  0.1152  0.0204  0.0252
20280W        W35411   4.128   2.146   4.027 -0.3016  0.0323  0.0761
20281W        W35412   1.696  15.608  15.610  0.1426 -0.1799 -0.2596
20282W        W35413  11.872  18.380   0.687  0.0050  0.0662 -0.1708
20283W        W35414  18.175   2.023   6.451  0.2071  0.1209  0.0611
20284W        W35415   6.446  17.565  12.684  0.0107 -0.1637 -0.3500
20285W        W35416  15.579   7.374   4.073  0.0932  0.1805 -0.3237
20286W        W35417  11.116  11.021   0.135  0.1049  0.0644 -0.0724
20287W        W35418   5.777   8.498   6.092  0.1251 -0.0130  0.0083
20288W        W35419  12.670   7.388   5.104 -0.2994  0.2072  0.1423
20289W        W35420  14.410   7.605  15.544  0.4363  0.1593  0.0392
20290W        W35421   2.397   0.052  15.666 -0.4116 -0.3150 -0.1768
20291W        W35422  18.057  14.781   1.599 -0.2108  0.2553  0.1015
20292W        W35423   0.785   2.778  13.288 -0.1693  0.1078 -0.0090
20293W        W35424   9.587   3.674  14.179 -0.0285  0.1441 -0.0271
20294W        W35425  12.697  10.533   0.450 -0.0139  0.0995  0.2848
20295W        W35426  18.234  17.775  14.894 -0.2639  0.0678 -0.1298
20296W        W35427  14.057   4.058  12.824  0.0055 -0.4256  0.1081
20297W        W35428  16.490   5.861   0.879 -0.1001 -0.1124  0.2570
20298W        W35429   9.324   2.044   0.625  0.1098  0.0480  0.1608
20299W        W35430  13.550   5.985   5.545  0.0876 -0.2186  0.0201
20300W        W35431  12.868  12.447   0.557  0.1065 -0.0309 -0.1424
20301W        W35432  12.969   3.043   1.485 -0.0484  0.0026 -0.0075
20302W        W35433   4.048   5.410  11.428  0.1044 -0.2059  0.2042
20303W        W35434   6.615   1.882   2.559  0.1578  0.0758 -0.2498
20304W        W35435   2.045  17.980   5.821  0.2222  0.1016 -0.1605
20305W        W35436   9.002  15.025   5.126  0.0384  0.3364 -0.0488
20306W        W35437  11.954   8.069  15.150  0.1375  0.0182  0.1785
20307W        W35438   2.751   2.012   5.224  0.0413  0.2045  0.0848
20308W        W35439   0.202   6.402   0.247 -0.1548  0.3196  0.1899
20309W        W35440  16.448   2.541   1.932  0.4203  0.2685 -0.1671
20310W        W35441   3.857   6.366   3.712 -0.2648  0.0869  0.2797
20311W        W35442   4.476  12.291   4.441 -0.0231  0.0906  0.2623
20312W        W35443  16.007  12.317  11.546 -0.1099 -0.0996 -0.0295
20313W        W35444   2.522  17.538   5.130 -0.1212 -0.2800  0.0262
20314W        W35445   6.414  16.188  12.706  0.0070 -0.0613 -0.0478
20315W        W35446  18.218   9.096  10.458 -0.1001 -0.0067  0.0860
20316W        W35447  17.749  13.779   1.812  0.1046 -0.1136  0.1772
20317W        W35448  15.108   3.243   0.117  0.2580 -0.2247 -0.2891
20318W        W35449   0.451  15.021  10.923 -0.3019 -0.0982  0.3571
20319W        W35450  13.195  18.470   4.443  0.1446 -0.0498  0.1485
20320W        W35451  14.257   8.369  11.271  0.1588 -0.0375 -0.1991
20321W        W35452  13.692   0.493  13.033 -0.0127  0.2230  0.2940
20322W        W35453   5.277  16.417  14.921  0.0434 -0.1555 -0.4357
20323W        W35454   1.428  10.117   0.457  0.1009 -0.1987 -0.3368
20324W        W35455  10.713   3.190  13.266  0.1781 -0.0412 -0.2773
20325W        W35456   0.778   5.444  14.136 -0.1338  0.1820 -0.0153
20326W        W35457   6.543  18.457   4.722  0.2656 -0.1602  0.4940
20327W        W35458  14.060  17.898  10.698  0.1428  0.1752 -0.1237
20328W        W35459  16.320  13.111   5.042 -0.1865  0.1737  0.1687
20329W        W35460   4.299   6.435   6.055 -0.0860  0.1884 -0.3312
20330W        W35461   0.292   3.329   3.382 -0.0700  0.0923 -0.2292
20331W        W35462   8.337   9.818  12.163  0.3003 -0.3308 -0.4745
20332W        W35463   5.597   5.112   1.799  0.0953 -0.4235 -0.0326
20333W        W35464  16.874   3.348  11.664 -0.0178  0.1044  0.2131
20334W        W35465   2.028  16.328   0.753 -0.0606  0.3551 -0.1637
20335W        W35466  11.516   3.606   3.911 -0.1252  0.2007  0.1020
20336W        W35467   3.603  14.232  12.024  0.2370 -0.0729 -0.0238
20337W        W35468  11.962   3.484   4.727  0.1548 -0.0885  0.0662
20338W        W35469  15.374  13.598   1.105 -0.1264 -0.2233 -0.1306
20339W        W35470   7.309   8.457   3.391  0.2217  0.1770  0.1920
20340W        W35471   4.866   4.045  12.125 -0.1492 -0.2321 -0.0006
20341W        W35472  14.324   8.974  14.273 -0.1938  0.1670 -0.1880
20342W        W35473  17.624  17.796  12.620  0.0677 -0.1853  0.4091
20343W        W35474  14.369   7.061   1.586  0.3221  0.2685 -0.0646
20344W        W35475   4.009  18.203  13.556 -0.1975  0.0317  0.1627
20345W        W35476   9.975  17.675   1.165  0.0058 -0.1873 -0.1629
20346W        W35477   8.106  17.077  13.157  0.1030 -0.0262 -0.2930
20347W        W35478   5.521   5.071   0.972 -0.1240 -0.0077  0.0028
20348W        W35479  18.548   0.052   1.956 -0.1456 -0.0341 -0.2584
20349W        W35480   5.246  13.203  14.091 -0.0162 -0.0740 -0.0416
20350W        W35481   6.137  18.204   0.523 -0.0136 -0.0706 -0.1668
20351W        W35482   7.990   0.982  12.628 -0.0436  0.0145  0.1640
20352W        W35483   2.204   0.822   3.679 -0.2285 -0.0308  0.0817
20353W        W35484  11.098  14.080  15.541  0.1977  0.0237  0.2464
20354W        W35485   0.659   5.791  14.997 -0.0512  0.0040  0.3708
20355W        W35486   6.258  10.134  13.679  0.2723  0.3058 -0.1683
20356W        W35487  12.685   7.280   3.789 -0.2339 -0.1838 -0.1211
20357W        W35488   7.046  13.172  13.827 -0.1551 -0.3339  0.0177
20358W        W35489  13.273   8.549  14.693 -0.1247 -0.1740 -0.0056
20359W        W35490   2.795  13.589   5.049 -0.0047  0.0192  0.0456
20360W        W35491   2.577  14.829   0.268  0.0353 -0.0772  0.0341
20361W        W35492  12.117  13.506   4.093 -0.1677  0.0231 -0.0630
20362W        W35493   9.841  10.304  13.677 -0.0881 -0.1446 -0.0275
20363W        W35494  12.017   4.938  14.027 -0.2373 -0.1239 -0.0914
20364W        W35495  16.322  17.585  13.970 -0.1465  0.0557  0.0132
20365W        W35496   6.140   1.408   0.180 -0.0644 -0.0565  0.0948
20366W        W35497  12.807  13.825  15.309  0.1843  0.1084  0.0718
20367W        W35498  11.849   4.419   1.063  0.0392  0.1235 -0.1211
20368W        W35499   6.999  13.389  10.665 -0.1444 -0.0210 -0.1818
20369W        W35500  14.250  10.012  14.480 -0.0524  0.0823 -0.0464
20370W        W35501  15.519   2.045  12.861  0.0872  0.0019 -0.1342
20371W        W35502  15.723   0.580   2.717  0.0527 -0.2238 -0.0103
20372W        W35503  10.904   0.735  10.837  0.0487 -0.0444  0.0175
20373W        W35504   8.844  15.752  13.348  0.1801 -0.2561 -0.3048
20374W        W35505   2.898  13.552  13.151  0.1238  0.1074 -0.0628
20375W        W35506   9.706   9.345   0.167 -0.0377  0.0449 -0.2643
20376W        W35507  13.533   5.105   0.336  0.0393 -0.0764 -0.1898
20377W        W35508  17.637  15.307   0.725 -0.1679 -0.2358  0.0830
20378W        W35509  17.059   6.687  12.925 -0.1946 -0.0934 -0.0652
20379W        W35510  14.826   1.335  13.502 -0.1345 -0.0965  0.0109
20380W        W35511   7.136   3.316  15.263 -0.0018 -0.3040  0.0468
20381W        W35512  11.785   8.199  11.902 -0.0588  0.0077  0.0827
20382W        W35513   8.132   2.848   2.897  0.1321  0.1793 -0.1414
20383W        W35514   8.134  12.727   3.252  0.1763 -0.0130 -0.0260
20384W        W35515  16.819   4.529  15.889 -0.0311 -0.1837  0.1727
20385W        W35516  16.713   4.821  14.011 -0.2776  0.1255  0.3778
20386W        W35517  11.676   4.734   0.640  0.2060  0.1841 -0.2849
20387W        W35518  15.826   7.031  11.301 -0.0524 -0.5018  0.0844
20388W        W35519  12.523   9.986   0.477 -0.3934 -0.2569 -0.0572
20389W        W35520  17.717  13.393   3.328 -0.0654 -0.0706  0.0667
20390W        W35521  12.506   7.601   1.345  0.2185  0.0158  0.0644
20391W        W35522   1.607  10.605   3.031  0.0109  0.0717 -0.1654
20392W        W35523   6.889   6.512   3.472  0.0821  0.1202  0.1893
20393W        W35524   2.756   4.653   2.583 -0.2951  0.1863 -0.0688
20394W        W35525   3.305   9.650  15.547  0.3683  0.1019  0.0167
20395W        W35526  10.741   4.717  12.318 -0.3208 -0.0327 -0.1175
20396W        W35527  17.667   8.566  14.082 -0.5438 -0.0815 -0.1323
20397W        W35528   6.352  15.901  15.342  0.0697  0.0516 -0.0331
20398W        W35529  13.884   0.658   2.452  0.2418  0.0248 -0.0001
20399W        W35530   8.104   9.948   1.837 -0.1473 -0.1012 -0.0987
20400W        W35531  15.319  12.124  11.734  0.3540  0.2122  0.0089
20401W        W35532   1.081   7.118  13.792  0.3433 -0.2122  0.1697
20402W        W35533   9.655   9.773  14.223 -0.0098  0.0729  0.1744
20403W        W35534   3.893   9.027  15.675 -0.0006 -0.2992  0.1012
20404W        W35535  15.500   8.286  13.816 -0.0127  0.3190 -0.1644
20405W        W35536  17.565  12.810   4.977  0.1199  0.0149 -0.1692
20406W        W35537  17.006   8.202   5.235 -0.1018 -0.1190  0.0130
20407W        W35538  17.225   7.797  15.757  0.1211 -0.1906  0.0544
20408W        W35539   4.512   3.159  11.321 -0.0406  0.0144 -0.0112
20409W        W35540   1.389  12.494  11.402 -0.1362 -0.0209  0.1099
20410W        W35541   3.592   7.618  14.052  0.2033  0.2055 -0.0301
20411W        W35542   2.882   9.137  10.156 -0.0386 -0.2287 -0.2362
20412W        W35543  12.281   2.805   2.591 -0.0899  0.2241 -0.4479
20413W        W35544  11.636   2.566  13.999 -0.1821 -0.3747  0.2519
20414W        W35545  10.432   5.675   3.287 -0.0222 -0.1415  0.3013
20415W        W35546  12.139  10.430  10.798 -0.2569 -0.2345 -0.1958
20416W        W35547   8.663   9.862   2.431 -0.5264  0.2424  0.1505
20417W        W35548  13.046   4.937   2.786  0.2676 -0.2004 -0.1994
20418W        W35549  15.318   9.702  15.538 -0.1345  0.2045 -0.0656
20419W        W35550   4.182   3.024   0.310  0.1165  0.6112  0.0214
20420W        W35551   4.776   9.853  11.028  0.0080 -0.0780  0.0245
20421W        W35552   7.482  15.178  11.770 -0.0353  0.0648  0.1146
20422W        W35553   4.599   2.534  11.730 -0.1022  0.3072  0.2028
20423W        W35554  18.051   9.175  13.147 -0.0205 -0.1248 -0.1487
20424W        W35555   8.145  10.794  13.950 -0.1823  0.0586 -0.0222
20425W        W35556   4.447   2.650   0.639  0.1329  0.0107 -0.0348
20426W        W35557   4.338   9.101   3.792  0.1083  0.3018 -0.2276
20427W        W35558  15.733   8.117  11.942  0.0169 -0.1004 -0.3817
20428W        W35559   4.081  12.650   3.089 -0.1490 -0.1970 -0.0366
20429W        W35560   4.232   9.740   1.507  0.2219 -0.1675  0.3233
20430W        W35561   6.404  11.763   0.065  0.2208 -0.1271 -0.2101
20431W        W35562   2.927   0.144   3.161 -0.1129  0.4497 -0.0263
20432W        W35563  18.442  14.364  10.809  0.4769 -0.0603 -0.1197
20433W        W35564  18.493   3.645  13.698 -0.2412  0.2699 -0.1323
20434W        W35565  12.652   0.924   5.216  0.1157 -0.1739 -0.2194
20435W        W35566   4.894   4.062   5.241 -0.2049  0.0391  0.0548
20436W        W35567   6.290  16.786   0.468  0.0190  0.0489 -0.0669
20437W        W35568   4.849  15.445  15.529 -0.3181 -0.1679 -0.3220
20438W        W35569  16.813   4.472   1.494 -0.0169 -0.0885 -0.2080
20439W        W35570   6.603   8.370   3.145  0.2047 -0.0276  0.0819
20440W        W35571   4.016   9.254  11.392 -0.0057  0.1152 -0.1764
20441W        W35572  12.282  14.472  11.356  0.0137  0.1201  0.2559
20442W        W35573  13.598   0.008  13.120 -0.2941 -0.1174 -0.2457
20443W        W35574  14.023  15.145  13.368  0.0195  0.0191 -0.0853
20444W        W35575   3.720  12.972   0.268 -0.0918 -0.1683  0.3117
20445W        W35576  17.322   6.068  14.128  0.0957 -0.2029 -0.1086
20446W        W35577  13.849  12.480  10.208  0.2219  0.1407 -0.0640
20447W        W35578   4.773  14.200  13.627 -0.2514  0.3863  0.1015
20448W        W35579  11.299   5.860  13.473  0.2574  0.0385 -0.1710
20449W        W35580   7.654   3.316  10.780  0.2010  0.0247  0.0204
20450W        W35581  13.413  16.846   3.021 -0.0338  0.1735  0.1528
20451W        W35582  16.991  11.211   2.194 -0.1442  0.0721  0.0310
20452W        W35583   5.048  10.448  11.501 -0.0162 -0.0015 -0.1532
20453W        W35584   3.257  17.600   3.872 -0.4631 -0.2070  0.0034
20454W        W35585   3.054  12.697   1.308  0.0307 -0.2663  0.1451
20455W        W35586  12.225   2.423   1.505  0.1286  0.0084 -0.2279
20456W        W35587   9.705  15.444  13.269  0.0565  0.0297 -0.1859
20457W        W35588  11.611  17.620  12.939  0.2001 -0.0975  0.2599
20458W        W35589   7.791   9.711  11.990 -0.0044 -0.1529 -0.1345
20459W        W35590  16.235  16.836  13.432  0.2595  0.1626 -0.0321
20460W        W35591   9.093  10.962   4.918 -0.1405  0.1922 -0.0853
20461W        W35592  16.477  12.736  11.168  0.3666  0.0858 -0.0758
20462W        W35593   6.387   5.722  14.133 -0.1317  0.1890 -0.0254
20463W        W35594  12.034  13.335  13.809  0.1648  0.1906  0.1239
20464W        W35595   1.741   7.282  11.913  0.2413 -0.4031 -0.2712
20465W        W35596  15.365   5.293  15.745  0.0791 -0.0699 -0.2147
20466W        W35597  10.960  15.547  12.906 -0.2180 -0.2411 -0.0054
20467W        W35598   4.497   2.140  11.185  0.3264 -0.2639 -0.1829
20468W        W35599   9.569   8.782   1.312 -0.0572 -0.5191 -0.3170
20469W        W35600   0.798   6.600   3.272 -0.1105  0.1829 -0.1146
20470W        W35601   7.468  13.144  13.494  0.0458  0.1253 -0.3922
20471W        W35602   3.662  17.954   1.831 -0.0046 -0.1684 -0.1993
20472W        W35603   7.156   9.732   5.020 -0.0960  0.1684  0.0431
20473W        W35604   2.055  12.699   2.922 -0.1161  0.3087  0.0450
20474W        W35605  12.292  15.914  12.228 -0.0623 -0.2261 -0.2776
20475W        W35606  11.489   1.651  12.906  0.1317 -0.0285  0.2276
20476W        W35607  16.329  18.090  11.870 -0.2292 -0.0050 -0.1533
20477W        W35608   1.164  16.328   0.364 -0.0380 -0.2489  0.2374
20478W        W35609  16.765   0.846   3.686  0.4043 -0.2325 -0.3574
20479W        W35610  14.740   9.629  11.045  0.0465 -0.2208 -0.2072
20480W        W35611   5.409   9.486  14.614  0.0928  0.2143 -0.2284
20481W        W35612   4.979  12.970  13.186 -0.6176 -0.0361 -0.0439
20482W        W35613  10.011   5.844  11.017 -0.0601  0.0517 -0.2154
20483W        W35614   3.926   2.729  13.243  0.3142 -0.2193  0.1411
20484W        W35615   2.208  13.185   3.062 -0.0560  0.0419  0.1294
20485W        W35616   5.467  10.196  11.690 -0.5158  0.0753 -0.0843
20486W        W35617   8.851   9.459   0.666 -0.0437  0.0478 -0.1467
20487W        W35618  17.363   1.551   2.407  0.1223 -0.2820  0.0442
20488W        W35619   1.580   5.025  13.542 -0.0122 -0.2626  0.1300
20489W        W35620   4.494  10.910  14.600 -0.1609  0.0088  0.0418
20490W        W35621   9.077   4.688   1.613 -0.0605  0.0462 -0.1907
20491W        W35622  11.347  16.432  14.567 -0.4043  0.1351 -0.0724
20492W        W35623   1.188   2.452   3.622 -0.1312  0.1562 -0.0366
20493W        W35624   4.108   3.653   1.785  0.2634  0.4898 -0.0187
20494W        W35625   6.652  10.488   1.728  0.2327 -0.0664 -0.0193
20495W        W35626   6.336   3.468   1.685 -0.0774  0.0087 -0.1471
20496W        W35627  18.514  10.013  15.579 -0.2042  0.0367 -0.1573
20497W        W35628   8.249  13.374   1.494 -0.1215 -0.0791  0.0203
20498W        W35629  14.423   3.381  11.694 -0.0570  0.3230  0.0778
20499W        W35630   9.079   7.090   0.997  0.4394  0.1146  0.2695
20500W        W35631   8.011   3.848   2.324 -0.1469 -0.1453 -0.1228
20501W        W35632  18.282   0.391  13.547  0.1050  0.2513  0.0629
20502W        W35633   3.990   8.904   3.478 -0.0567 -0.1110 -0.3417
20503W        W35634  11.701  13.209  10.185 -0.1780 -0.0619 -0.0252
20504W        W35635  16.856  15.010  11.511  0.0910  0.3448  0.2049
20505W        W35636  17.766   5.647   3.766  0.3639  0.1416 -0.0549
20506W        W35637  17.629   2.729  11.783 -0.0356  0.0068  0.1894
20507W        W35638   7.766   3.341  13.440  0.4333 -0.0793 -0.5171
20508W        W35639  17.905   0.365   5.453  0.0574 -0.0196  0.1430
20509W        W35640  11.297  17.711  12.567 -0.1082  0.1569 -0.1773
20510W        W35641   2.006   3.179   4.170 -0.1516  0.0544 -0.1444
20511W        W35642   4.326   4.443   2.374 -0.1134  0.3960  0.0837
20512W        W35643   4.846  17.778   3.138  0.1502  0.3322 -0.0111
20513W        W35644  13.971  13.107   2.653  0.2365 -0.0271  0.2225
20514W        W35645  12.268   1.345  11.116 -0.2326  0.1520 -0.0638
20515W        W35646   5.041   1.698   0.804  0.1852 -0.4365  0.2213
20516W        W35647  13.486   2.242   2.385 -0.2335  0.1038 -0.1844
20517W        W35648  16.836  12.266   1.383  0.3335 -0.2243  0.1550
20518W        W35649  17.665   7.425  13.265  0.1713  0.2310 -0.0323
20519W        W35650   1.915  12.815  15.192 -0.0440  0.1272 -0.2069
20520W        W35651   5.044   3.742   1.332 -0.1037 -0.0371 -0.0547
20521W        W35652   7.237   9.366  14.831 -0.2755 -0.1766 -0.4896
20522W        W35653   7.076  17.595   1.174 -0.0223 -0.0441 -0.0766
20523W        W35654  17.254  16.327  15.490  0.1399  0.0592  0.2110
20524W        W35655   0.801   1.237   5.633  0.1813 -0.0538  0.2051
20525W        W35656   3.883  12.244   0.295 -0.2212  0.0700 -0.0459
20526W        W35657  11.648  15.798  14.335 -0.0071  0.1758 -0.0882
20527W        W35658   4.942   5.493   4.112 -0.1360 -0.0756  0.0842
20528W        W35659   9.961   7.530   3.100  0.1673 -0.1135 -0.2192
20529W        W35660  13.381  14.863   5.578  0.1314  0.3617 -0.1582
20530W        W35661  16.108  12.506   6.156  0.3023 -0.1948 -0.1950
20531W        W35662  17.412  13.007   2.866 -0.0799 -0.0438 -0.0032
20532W        W35663   0.736   7.565   5.562  0.0996  0.0783  0.0546
20533W        W35664   9.975  13.290  11.116  0.1688  0.2400 -0.2496
20534W        W35665  11.385   9.101   2.180  0.1592 -0.0687  0.0651
20535W        W35666  12.514  10.480  10.343 -0.1609 -0.1916 -0.2184
20536W        W35667  14.207  11.723   1.224 -0.1190  0.1632 -0.4008
20537W        W35668   0.186  10.881   5.773  0.2369  0.0262  0.3391
20538W        W35669   0.355  16.241   3.379 -0.6492 -0.1235 -0.0958
20539W        W35670  10.661  10.382   3.856 -0.2311 -0.1421 -0.1869
20540W        W35671  16.026   2.252  15.906 -0.0078 -0.2899  0.4780
20541W        W35672   2.541   5.090  14.990 -0.0109 -0.1365 -0.0317
20542W        W35673  13.519  14.092  13.621 -0.0226  0.1077  0.3059
20543W        W35674   6.113   9.618   0.929 -0.1696 -0.1779 -0.0387
20544W        W35675  11.656  16.803  10.926 -0.2494 -0.1309 -0.2314
20545W        W35676   7.310   2.397   5.396  0.2000 -0.0599  0.2869
20546W        W35677   4.876   6.112  12.260 -0.1211  0.1946  0.2511
20547W        W35678  14.055  14.708   2.935  0.1221 -0.1020  0.3591
20548W        W35679   3.996   4.414   0.605  0.0599 -0.0009 -0.3133
20549W        W35680  11.727  10.238   4.657  0.0498 -0.1256 -0.1907
20550W        W35681  18.471   6.699  13.694  0.1905  0.0551  0.1693
20551W        W35682  15.428  16.200  12.447 -0.4228 -0.0233 -0.0928
20552W        W35683   4.887   4.262   4.278  0.3817  0.0011 -0.1519
20553W        W35684  11.602  15.501  13.049  0.2040  0.0026 -0.3782
20554W        W35685   2.208  10.539  13.061 -0.2515 -0.3439  0.0056
20555W        W35686   7.525  10.154   0.317  0.2645  0.0310 -0.1238
20556W        W35687   4.413  14.808   4.045 -0.0344  0.1284 -0.1136
20557W        W35688   9.459   8.053   2.174 -0.2097  0.1881 -0.0388
20558W        W35689   6.187   3.698   5.121 -0.1869 -0.2118  0.0587
20559W        W35690  11.006  10.985  12.935 -0.0507  0.2420  0.2223
20560W        W35691  13.248   0.817   4.058  0.0844  0.0308 -0.1369
20561W        W35692   4.282  13.885  10.882  0.0359  0.2359  0.3650
20562W        W35693   9.303  15.091   4.227 -0.2974  0.2572  0.1539
20563W        W35694  17.173  11.436  15.673 -0.0281 -0.2490  0.0293
20564W        W35695   4.228   8.111   6.239 -0.1766  0.3849  0.0363
20565W        W35696  11.447  11.158   3.785  0.2243 -0.0718 -0.0708
20566W        W35697  18.472   6.083   3.715  0.0004  0.0740 -0.1148
20567W        W35698  13.113   5.824  11.356 -0.2436 -0.0828  0.0333
20568W        W35699   3.943  14.038   0.091 -0.2369 -0.1590  0.4586
20569W        W35700   8.074   7.047  12.291 -0.1907  0.3512 -0.1574
20570W        W35701   7.000  10.550  11.221  0.0246 -0.0433  0.1613
20571W        W35702   4.844   8.954  15.843  0.2397 -0.2430 -0.4021
20572W        W35703   1.161  16.484   1.679  0.4015  0.3631 -0.2052
20573W        W35704  14.087   0.506  15.808  0.0152 -0.2735  0.4648
20574W        W35705  17.614  15.382  14.816 -0.2447 -0.1989 -0.0919
20575W        W35706   1.826  15.941  11.140  0.0885 -0.1652 -0.2221
20576W        W35707   4.449   4.161  13.030 -0.1866  0.0213  0.1759
20577W        W35708  15.927  13.875   2.196  0.2115  0.2548  0.1145
20578W        W35709   1.649   6.481   5.388 -0.3821  0.1157 -0.3315
20579W        W35710  13.112  11.204  12.595 -0.1055 -0.2634  0.2359
20580W        W35711   8.152   3.493  15.014 -0.0313 -0.0024  0.0892
20581W        W35712  17.027  18.109   2.429  0.0983 -0.0402  0.2078
20582W        W35713   5.380   7.610  12.535  0.0745  0.2111 -0.0244
20583W        W35714  16.794   2.351  15.892 -0.1175  0.1415 -0.1098
20584W        W35715   0.669  14.732   4.803  0.1351 -0.2847 -0.1579
20585W        W35716   5.745   9.304  15.446  0.0622  0.3952  0.2081
20586W        W35717  13.275  17.566  13.767 -0.0883  0.1214  0.1281
20587W        W35718   7.964   0.655   2.236 -0.0292  0.1169  0.0367
20588W        W35719  14.244   9.847  13.933 -0.1656  0.0609  0.0693
20589W        W35720  11.915  11.682   2.159 -0.2236  0.0111  0.1668
20590W        W35721   6.529  18.385  14.623 -0.2365 -0.1553 -0.1644
20591W        W35722  10.750   0.271  12.287  0.2410  0.1893  0.0662
20592W        W35723  12.104   4.756  15.709  0.1942 -0.1454  0.1794
20593W        W35724  13.215   1.881   2.540  0.1977  0.2392  0.0789
20594W        W35725   2.959   9.908  14.782  0.1665 -0.2059  0.1132
20595W        W35726  18.504   1.558   3.824 -0.2757 -0.0984 -0.3644
20596W        W35727  14.090   1.984  13.669 -0.3335  0.0341 -0.1033
20597W        W35728   4.433  18.304   5.527 -0.0296  0.1290  0.2233
20598W        W35729   0.893   5.375   1.190 -0.1936 -0.4413 -0.0300
20599W        W35730  17.626   1.351   1.215  0.0428 -0.0732  0.0845
20600W        W35731   2.816   9.475   4.759  0.2653  0.0241 -0.2387
20601W        W35732   5.135   3.928  13.789  0.0107 -0.1124 -0.0410
20602W        W35733  16.274   4.421   0.966  0.1075  0.2442 -0.0653
20603W        W35734   8.137   9.278  14.095  0.3145 -0.0961  0.2083
20604W        W35735   0.815   2.799   0.499  0.0399  0.2751 -0.0664
20605W        W35736   2.506  16.177   3.478  0.0431 -0.1282  0.0493
20606W        W35737  12.766  10.027   4.916  0.0328  0.1318 -0.0356
20607W        W35738  14.413   5.957   3.045 -0.0711 -0.3795 -0.0062
20608W        W35739   0.737   3.189   4.780  0.2524 -0.2437  0.4502
20609W        W35740   5.142  14.109   0.903  0.2149 -0.1143 -0.3787
20610W        W35741  10.798  16.351   2.411 -0.1656  0.3138  0.0442
20611W        W35742   8.202  18.315   3.948  0.1640 -0.0353 -0.2279
20612W        W35743   2.181  17.960   5.314  0.2186 -0.2474 -0.1438
20613W        W35744  14.913   4.784   0.416 -0.0363  0.1663 -0.2214
20614W        W35745  14.479  10.328   4.794  0.0568 -0.0383 -0.0082
20615W        W35746   5.832   9.106  14.991  0.0000  0.4542 -0.1692
20616W        W35747   1.834   3.006   5.092 -0.1043 -0.1748 -0.0357
20617W        W35748   0.933  15.989   1.809  0.0025  0.2427  0.0801
20618W        W35749   9.985  15.392   1.231 -0.1152  0.0104  0.0255
20619W        W35750   4.676  16.938  10.790  0.0307  0.0534  0.0013
20620W        W35751   9.578  12.876  15.149 -0.0218 -0.2119 -0.1453
20621W        W35752   6.752   2.108  15.754  0.1533  0.1445 -0.1139
20622W        W35753  15.188   9.142   6.376  0.0564 -0.0361  0.2318
20623W        W35754  16.600  14.330   0.571  0.0753  0.0359 -0.0752
20624W        W35755  12.592  13.340  11.165 -0.1691 -0.1753  0.0453
20625W        W35756   9.635   4.022   5.329  0.2453 -0.2549 -0.0473
20626W        W35757  16.636   4.418  12.268 -0.1623  0.2248 -0.3576
20627W        W35758   2.729  12.823   4.275  0.1245  0.2729 -0.0990
20628W        W35759  14.731   7.188   4.008 -0.2051 -0.0425 -0.0185
20629W        W35760   8.088  14.129  15.731  0.0624 -0.1396 -0.1431
20630W        W35761  13.899  16.997  12.258 -0.3465  0.1951  0.4467
20631W        W35762  16.070  18.276   0.416 -0.0169  0.0065 -0.3512
20632W        W35763   1.873  12.396  12.240 -0.1711 -0.1897 -0.1815
20633W        W35764   8.462   3.846   1.586  0.2336 -0.0040  0.0828
20634W        W35765   1.845  18.460  13.628  0.0937 -0.0957  0.3551
20635W        W35766   9.106   8.892  14.327  0.4261  0.0150  0.0245
20636W        W35767  10.173  12.008  14.568  0.5943 -0.1776  0.0312
20637W        W35768   2.367  13.752   2.814  0.0619 -0.1271 -0.1645
20638W        W35769  11.903   7.049   1.293  0.0753 -0.1209  0.0416
20639W        W35770   5.386   5.588  15.634 -0.0883  0.0791  0.1415
20640W        W35771  11.736  15.164  11.595 -0.1994 -0.0046 -0.0254
20641W        W35772   5.219   9.569   3.807  0.2155  0.1668  0.0928
20642W        W35773   8.705  16.543   5.701  0.1256  0.3879 -0.0666
20643W        W35774  16.235   0.744   3.680  0.0594 -0.3404  0.3177
20644W        W35775  18.266  10.246  14.298  0.0561 -0.0073 -0.0765
20645W        W35776   0.373  13.821  11.671  0.0521 -0.0414  0.1174
20646W        W35777  17.503  18.083   0.017  0.1911  0.0232  0.3029
20647W        W35778   3.959  15.931  13.677 -0.1535  0.2933  0.0392
20648W        W35779   1.900   3.655   5.557 -0.1255  0.0579  0.0052
20649W        W35780  11.447  18.568  12.602 -0.5575 -0.0205  0.1962
20650W        W35781   4.288   8.092   4.983  0.2406  0.1401  0.3745
20651W        W35782   4.674   3.443   2.548  0.0995  0.2280  0.0173
20652W        W35783   6.547   9.531   4.674  0.0593  0.0661 -0.0204
20653W        W35784   4.734   3.744  10.969 -0.3136  0.0275 -0.3267
20654W        W35785  15.306   8.496  15.234 -0.1675  0.0394  0.4109
20655W        W35786   8.737  18.019  14.424  0.0510  0.0366 -0.3838
20656W        W35787  13.661  18.170  15.563 -0.2215  0.1293 -0.2330
20657W        W35788  13.068  15.182   4.952 -0.0865  0.0325  0.2542
20658W        W35789   7.972  17.829   2.312  0.2485  0.1556  0.0237
20659W        W35790   2.398   1.326  14.528 -0.1814 -0.1433  0.0558
20660W        W35791  15.734   3.132  10.817  0.0943 -0.1772  0.0429
20661W        W35792   6.979  16.165  11.914 -0.0640  0.1129 -0.0832
20662W        W35793  12.512  17.684  13.907 -0.1893 -0.2935  0.2187
20663W        W35794  17.795  17.862  12.101  0.0653  0.0999 -0.1429
20664W        W35795   8.140   4.345  11.844 -0.2140  0.0294 -0.1422
20665W        W35796   9.618  14.298  11.824 -0.3612 -0.0162  0.1692
20666W        W35797   6.310  10.433  14.555 -0.1848  0.1606 -0.2918
20667W        W35798   5.733   0.561  10.433 -0.0419  0.0854  0.0823
20668W        W35799  16.274  16.070  13.914 -0.1079 -0.0412 -0.0626
20669W        W35800  12.926   2.467   3.152  0.1188 -0.0699  0.3914
20670W        W35801  18.154   3.490  15.038 -0.1520 -0.0793 -0.0429
20671W        W35802   2.577   3.303   1.966  0.0869  0.0626 -0.3257
20672W        W35803   8.434  11.992  14.474  0.0401 -0.1713 -0.2500
20673W        W35804   5.517   4.628   1.824  0.0129 -0.0162 -0.1158
20674W        W35805   3.330   5.454   5.525 -0.2673 -0.3207 -0.4277
20675W        W35806  12.931   2.360   2.612 -0.0642  0.0142  0.3873
20676W        W35807  14.374   1.731   2.314 -0.0371 -0.0782 -0.1796
20677W        W35808   2.564  17.204   1.383  0.1689  0.0107 -0.3118
20678W        W35809  12.494  17.811   1.823 -0.1252 -0.0311  0.0894
20679W        W35810   7.411   9.470   3.327  0.0697  0.1667  0.0146
20680W        W35811   9.741   0.673   1.969 -0.1679 -0.2481 -0.1635
20681W        W35812  13.590  16.156  15.491  0.3450  0.0840 -0.0765
20682W        W35813   1.045  16.016  11.858 -0.3394  0.3618  0.3353
20683W        W35814   9.626   2.176  15.072  0.4208 -0.1172 -0.0614
20684W        W35815   9.435   8.382  13.116 -0.0273  0.2584 -0.5115
20685W        W35816  17.322  11.014  11.199  0.2400 -0.0255  0.2504
20686W        W35817   5.447   0.471   5.244 -0.0417  0.1088  0.1285
20687W        W35818  13.770  13.812   3.925  0.1955 -0.0647  0.0080
20688W        W35819   6.184  18.265  10.755  0.5493  0.0366 -0.0280
20689W        W35820   7.419  12.957  14.732 -0.0623 -0.4916 -0.1862
20690W        W35821  17.589   4.017   2.109 -0.1662  0.0808 -0.3772
20691W        W35822  12.048  12.235   1.430 -0.0330 -0.0672  0.1549
20692W        W35823   0.253  11.056   4.273  0.0794 -0.2475  0.0734
20693W        W35824   2.978   3.643   0.662 -0.2955  0.1362 -0.0340
20694W        W35825  14.658   9.204   0.095 -0.0333  0.1922 -0.1406
20695W        W35826  10.034  10.212   1.646 -0.1438  0.1145 -0.1342
20696W        W35827   2.305   4.626   1.695  0.0412 -0.0819  0.0882
20697W        W35828  16.029   4.127  13.449  0.1548  0.0285 -0.2177
20698W        W35829  14.915  13.888  12.523  0.1164 -0.1733 -0.1144
20699W        W35830  13.149  13.682  12.299 -0.4590  0.0559  0.0770
20700W        W35831   2.523  10.328  12.374  0.3174 -0.2902  0.1945
20701W        W35832  14.604  11.106   3.685  0.0600  0.0916 -0.3091
20702W        W35833  13.860   3.811  15.277 -0.0066  0.0315  0.1641
20703W        W35834  15.731   9.508   0.860  0.0880 -0.1032  0.1652
20704W        W35835   9.745  10.206   4.439  0.1508 -0.0410 -0.0716
20705W        W35836   2.958   5.063   4.419 -0.0327  0.0757  0.0877
20706W        W35837   7.397  18.203   1.630 -0.0705  0.1287 -0.1101
20707W        W35838  13.298  14.562  10.997  0.0713 -0.2227  0.3805
20708W        W35839   7.504   7.716  15.588  0.0003 -0.0999 -0.1654
20709W        W35840  12.003  15.984   3.605  0.2443 -0.1029 -0.1973
20710W        W35841  15.182  11.975   3.569  0.2147  0.2717 -0.1650
20711W        W35842   6.935  12.706   3.562  0.1712 -0.0982 -0.0645
20712W        W35843   7.851  10.942   1.178 -0.3068  0.0683  0.2721
20713W        W35844  12.977  17.125  12.314 -0.1504 -0.4112 -0.0124
20714W        W35845  16.397  11.686   6.030  0.0147  0.2925  0.2013
20715W        W35846   6.460  11.868  12.208 -0.2456 -0.4392 -0.3311
20716W        W35847  18.175   5.564   0.137 -0.1134  0.3600  0.1410
20717W        W35848   1.975   0.821   5.809  0.0436  0.2621  0.0111
20718W        W35849  13.051   4.723   0.254  0.0137  0.2424 -0.3971
20719W        W35850   5.676   8.978   0.407 -0.0288  0.0605 -0.2907
20720W        W35851   1.231   6.072  11.130  0.0855 -0.1187  0.0940
20721W        W35852   8.484   0.625  14.682 -0.0396 -0.1325 -0.1969
20722W        W35853  11.642  12.271   2.757  0.2908  0.1619 -0.0425
20723W        W35854  17.922   9.144  15.198  0.0832 -0.1344 -0.0519
20724W        W35855   5.724   7.264  15.933  0.1073 -0.4887  0.2372
20725W        W35856  14.480  17.134  13.071  0.2103  0.2386 -0.0229
20726W        W35857   5.271  15.275   0.482  0.4281  0.3446 -0.0911
20727W        W35858  16.018  10.236  12.931  0.4352 -0.0713 -0.3644
20728W        W35859  17.513  15.568   1.167 -0.2087  0.0360  0.0082
20729W        W35860   0.654   5.231  14.859 -0.1385  0.0177  0.1207
20730W        W35861  16.944  10.523  12.034 -0.0228  0.0985 -0.1657
20731W        W35862   1.735   2.851  12.123  0.2573  0.0637  0.2008
20732W        W35863   4.114   1.136   5.490 -0.2543  0.0832 -0.0349
20733W        W35864   3.054  10.533  13.659 -0.1783 -0.0744 -0.5190
20734W        W35865   9.938   8.087  12.797 -0.1575  0.3920 -0.1249
20735W        W35866  15.536  14.847  13.895 -0.2703  0.4425 -0.3489
20736W        W35867  14.430  13.033  13.726 -0.0585  0.0991 -0.2000
20737W        W35868  10.894   3.938  10.767  0.0363  0.0856  0.3680
20738W        W35869   5.222  17.179  14.210  0.1406  0.2528 -0.0268
20739W        W35870  11.632  13.112   3.210  0.1078 -0.0440  0.0242
20740W        W35871   3.219  17.235  12.365  0.0875  0.1463 -0.1316
20741W        W35872   8.137  13.012   1.041 -0.1770 -0.0784  0.2882
20742W        W35873   6.379   1.939   4.471 -0.0137 -0.0613 -0.0893
20743W        W35874  18.422   9.041   5.858 -0.1042  0.2550 -0.0066
20744W        W35875   1.169  14.020  11.019 -0.0170  0.1250  0.0634
20745W        W35876   1.821   0.838  15.365 -0.0041  0.0520 -0.2187
20746W        W35877   4.242   1.746   0.407 -0.4075 -0.1121 -0.2508
20747W        W35878  13.476  17.296   9.979  0.0756  0.0042 -0.1637
20748W        W35879  16.493  14.690   3.592 -0.0370 -0.0975  0.3755
20749W        W35880  12.794   3.177  13.837  0.2916 -0.1888 -0.0938
20750W        W35881   7.429  18.108   2.533  0.0271  0.1844 -0.0744
20751W        W35882  15.193   3.104   4.490  0.4542 -0.2916 -0.0200
20752W        W35883   9.772  18.297   1.789 -0.1549  0.0500  0.0705
20753W        W35884   5.892   2.670   3.138 -0.2032  0.0866 -0.5033
20754W        W35885   9.568  13.815  11.764 -0.1108  0.0647  0.4328
20755W        W35886  16.580  10.789   0.389  0.0748  0.0003  0.0001
20756W        W35887  13.183  10.939  14.280  0.1474  0.1172  0.0250
20757W        W35888   4.494   7.569   2.849 -0.0355  0.0275 -0.1035
20758W        W35889   0.768   7.176   2.452  0.0708 -0.2837 -0.1632
20759W        W35890   1.656  16.978   1.133  0.0854 -0.1497  0.0008
20760W        W35891   5.791  13.900  12.537 -0.0157 -0.2547  0.2342
20761W        W35892  16.054   6.555  13.478  0.0856 -0.0739  0.0283
20762W        W35893   4.114  10.469   0.180  0.2698  0.3362  0.2591
20763W        W35894   9.203   4.969   1.130  0.1024 -0.0883  0.0835
20764W        W35895   5.405  13.409   2.650 -0.1415  0.0962 -0.0511
20765W        W35896   2.575   0.595   5.040 -0.0029 -0.0681 -0.2177
20766W        W35897  18.324   1.530  12.088  0.4881 -0.1721 -0.0999
20767W        W35898  13.391  16.519  15.827 -0.0805  0.0023 -0.0148
20768W        W35899  13.634   6.479   5.318  0.3161 -0.0746 -0.2093
20769W        W35900  16.227  15.454   5.736  0.0016 -0.2395 -0.3389
20770W        W35901  14.290   1.407  14.323  0.1045  0.0421 -0.0405
20771W        W35902   3.594  17.860  11.046  0.0283 -0.1927  0.2710
20772W        W35903   5.174  11.222   0.808  0.1054 -0.0686 -0.0867
20773W        W35904  13.929   9.291   3.247 -0.2234  0.0330 -0.1198
20774W        W35905   3.085  15.485  12.004 -0.0797 -0.1547  0.4487
20775W        W35906  12.537  15.512   2.474 -0.1516  0.1893  0.0463
20776W        W35907  16.681  14.974  14.657  0.2707 -0.3992  0.0654
20777W        W35908  12.238   2.455  15.230 -0.0555 -0.1289 -0.1341
20778W        W35909   9.506  10.109   3.427  0.5295 -0.1755 -0.0727
20779W        W35910  11.898  12.943  10.620 -0.1691 -0.0432 -0.2551
20780W        W35911   3.831  16.098   1.388  0.2277  0.2607  0.2861
20781W        W35912   2.944  17.239  15.086  0.0994 -0.0528  0.1681
20782W        W35913   5.025  14.402  10.678  0.1551 -0.0273  0.1129
20783W        W35914  11.607   3.970   3.391  0.2301  0.3347  0.0504
20784W        W35915   5.106  11.575  10.678 -0.1323  0.2988  0.1429
20785W        W35916  17.494  15.213  13.556 -0.0805  0.0949 -0.0501
20786W        W35917  15.208   0.931   0.830 -0.0182 -0.0364 -0.3852
20787W        W35918  10.566   8.112   1.161  0.1689 -0.1026 -0.4788
20788W        W35919  14.063   8.656  14.615 -0.0370  0.3198 -0.1634
20789W        W35920  16.412  11.671  13.058  0.0001  0.2147 -0.1311
20790W        W35921  15.231  13.851  10.709  0.0766 -0.0790  0.0484
20791W        W35922  14.418  14.440   2.579 -0.2092  0.1290  0.4239
20792W        W35923  10.466  12.434   1.710 -0.0025  0.2584  0.0270
20793W        W35924  13.463  18.100  15.006 -0.0990 -0.1949  0.1771
20794W        W35925  15.325  17.508  11.668  0.2784  0.0459  0.0232
20795W        W35926  15.270  16.469   5.125  0.2118  0.2178  0.1087
20796W        W35927  14.703   1.904   1.950  0.1192  0.0402 -0.2475
20797W        W35928   2.034  16.338   3.391  0.0127 -0.1351 -0.1533
20798W        W35929  12.149   9.368  12.259 -0.3665 -0.0699 -0.0717
20799W        W35930   8.016   4.707   4.265  0.0333  0.1260 -0.1026
20800W        W35931   5.544   5.502   5.071 -0.1789 -0.2998 -0.1419
20801W        W35932   0.332  12.850   1.459 -0.1122 -0.0193 -0.0644
20802W        W35933  10.084  15.971  15.256  0.2535  0.0426 -0.0522
20803W        W35934  18.399   7.707   5.494  0.1124  0.2551 -0.0535
20804W        W35935  12.249   9.867   2.598  0.2031 -0.0564 -0.0580
20805W        W35936  16.790  14.600  15.382 -0.0759  0.0680 -0.0786
20806W        W35937  11.761   0.819   5.650 -0.2284  0.2009  0.0558
20807W        W35938  13.144   4.591  14.975  0.3519  0.1382  0.1574
20808W        W35939   6.248  10.501  15.025 -0.3070 -0.1082  0.2172
20809W        W35940  11.061  14.271  12.503 -0.0698 -0.0930 -0.0780
20810W        W35941   8.404   1.117  15.509  0.3852 -0.0483 -0.0743
20811W        W35942   1.640   5.803  11.250 -0.1084  0.1519 -0.0124
20812W        W35943  18.319  15.132   3.511  0.5280  0.3745 -0.1906
20813W        W35944   4.766   1.169  12.060 -0.0330 -0.0486 -0.1935
20814W        W35945   4.004  18.044   2.353 -0.1553 -0.0008 -0.1109
20815W        W35946   2.150   1.248   5.983  0.1851 -0.2164 -0.3023
20816W        W35947   3.788  10.836   4.183 -0.1627 -0.0202 -0.0019
20817W        W35948  12.706   4.610   4.052 -0.2389 -0.1719 -0.1407
20818W        W35949  13.645   8.748  14.914  0.0893 -0.1545  0.0691
20819W        W35950   1.296   6.976   0.911 -0.3653  0.0093 -0.0096
20820W        W35951  12.038  15.569  13.963  0.0357  0.0233  0.0013
20821W        W35952   6.790  17.867  12.391  0.4131 -0.1093  0.1668
20822W        W35953  15.476   9.244   0.568 -0.0977  0.0671  0.0752
20823W        W35954   8.584   6.480  11.500 -0.3230  0.0093 -0.0200
20824W        W35955  11.504  14.046  12.821 -0.0329 -0.1758  0.3157
20825W        W35956  10.653   3.493  14.040 -0.2071  0.3230 -0.0517
20826W        W35957   3.876   7.683  15.123  0.0114  0.0904  0.0112
20827W        W35958  15.999  17.535   4.478  0.1405  0.1647  0.3150
20828W        W35959   3.462  17.465   1.302  0.4953 -0.0184  0.1739
20829W        W35960  10.236  11.628  15.241  0.1417  0.1409 -0.2787
20830W        W35961   7.406   5.719  10.617 -0.0833  0.0225 -0.0889
20831W        W35962  14.776   8.333  14.114  0.0011  0.1491  0.1064
20832W        W35963  15.372   2.487  13.305 -0.0727  0.1809 -0.1253
20833W        W35964   9.093   3.350  11.870 -0.2323 -0.0410 -0.0444
20834W        W35965  17.735   7.601  15.482  0.2463  0.0779 -0.1689
20835W        W35966   1.717   3.603   4.979  0.1579 -0.0331  0.0741
20836W        W35967   6.882   3.146   4.347  0.6393 -0.0910  0.0508
20837W        W35968  10.451   4.903  13.109  0.5131  0.0645  0.0160
20838W        W35969  12.420   2.671   4.400 -0.0576  0.1310 -0.3191
20839W        W35970   2.771   5.962  12.227 -0.2558  0.1043  0.1660
20840W        W35971  13.120   6.388   1.816 -0.0228 -0.3237  0.2261
20841W        W35972  16.719  18.096  15.198 -0.0632 -0.0658 -0.1063
20842W        W35973   0.478   7.111   4.717 -0.2397 -0.3415  0.1067
20843W        W35974  11.687   5.847  14.929  0.0079  0.1256  0.1009
20844W        W35975   8.886   8.933   0.419 -0.2217 -0.0532  0.3220
20845W        W35976   9.456  12.185   1.284  0.0003  0.0411 -0.2155
20846W        W35977  12.795  16.756   4.588 -0.2098  0.0270  0.2595
20847W        W35978  16.699   7.364   3.140 -0.3377 -0.1991  0.1328
20848W        W35979  18.008   5.663   0.591  0.0176 -0.1191 -0.1081
20849W        W35980  14.518   6.293  14.555  0.1421 -0.0625 -0.0525
20850W        W35981  15.478   6.074   2.926 -0.2391  0.1363  0.2515
20851W        W35982   6.171  16.986  15.351 -0.4645 -0.0842  0.0423
20852W        W35983   1.680  16.391  10.379 -0.0509  0.1776 -0.2216
20853W        W35984   5.983  15.676   3.773  0.1949  0.3457  0.3595
20854W        W35985   6.570   4.090   5.104 -0.0638 -0.0624  0.0977
20855W        W35986   2.852   0.293  15.673  0.2512  0.2206 -0.1427
20856W        W35987  14.918  17.516   0.075  0.0689 -0.2335  0.1817
20857W        W35988   8.238   7.735  14.147 -0.3215 -0.1764 -0.0159
20858W        W35989  17.927  10.818   0.747 -0.3646  0.2414  0.1102
20859W        W35990  12.649   3.291  15.362 -0.1704 -0.0725  0.0653
20860W        W35991   4.126   6.790  12.716 -0.1987 -0.1197  0.0351
20861W        W35992  18.366  16.969   1.991  0.2040 -0.0079  0.0443
20862W        W35993  18.143  16.138  11.517 -0.0277 -0.2585  0.2188
20863W        W35994   0.039  16.905  11.438  0.1016  0.0947  0.0909
20864W        W35995  17.552  13.201  12.819  0.0373 -0.0515 -0.3537
20865W        W35996   0.139  16.022  13.036  0.2507  0.0246  0.0550
20866W        W35997  12.410  16.985  10.661  0.0498 -0.3426 -0.3186
20867W        W35998   3.159   0.867  13.067 -0.2893 -0.3653 -0.0025
20868W        W35999   2.317   3.297  11.909  0.3605  0.2478  0.2083
20869W        W36000  10.798  11.898  11.130  0.0495  0.2819  0.1109
20870W        W36001  13.499   9.293  10.181 -0.3562  0.1658 -0.0702
20871W        W36002  14.180   5.055  15.163  0.3020  0.2615  0.1816
20872W        W36003  16.995  16.183   4.428 -0.0095 -0.4050  0.0278
20873W        W36004  12.868   4.054   3.923 -0.1152  0.5523 -0.1661
20874W        W36005  11.839   9.630   0.494  0.0715 -0.1930 -0.0479
20875W        W36006   6.314   0.188  15.403  0.1948  0.1212 -0.2164
20876W        W36007   0.371   4.687  15.657 -0.0106 -0.4766 -0.0792
20877W        W36008   9.662   8.890   4.751  0.0226  0.0956  0.2413
20878W        W36009  16.221   4.859   5.382  0.0607  0.1308 -0.0620
20879W        W36010  16.237  15.452   0.370 -0.0358 -0.0089  0.0291
20880W        W36011  16.109  14.496   0.703  0.0387 -0.0251  0.1021
20881W        W36012   3.499  13.849   2.415 -0.1808 -0.0000 -0.0678
20882W        W36013  11.246   6.216   3.551  0.1377 -0.1339 -0.1259
20883W        W36014  15.907   2.286  11.256  0.0629 -0.2297  0.2432
20884W        W36015   5.372   0.547   3.859 -0.0550  0.1173 -0.2176
20885W        W36016   5.338   1.677   0.365 -0.0913  0.2421 -0.1558
20886W        W36017  10.199  18.513   2.732  0.0159 -0.1881  0.0730
20887W        W36018   6.907   0.596  10.086  0.1221  0.3761 -0.0315
20888W        W36019  15.449   9.754   3.933 -0.2144  0.1199 -0.0125
20889W        W36020   9.173   2.720   1.512 -0.5565  0.1564  0.2040
20890W        W36021   3.179   9.577  10.109  0.1079 -0.0848 -0.2186
20891W        W36022  15.604   8.367   6.498 -0.2276 -0.0053  0.0189
20892W        W36023   9.653   3.687  10.109 -0.0755  0.1761  0.3575
20893W        W36024   3.093   7.324  14.295 -0.1938  0.0069 -0.1204
20894W        W36025  17.241   7.873   0.756 -0.0830  0.0107 -0.2933
20895W        W36026   4.660   0.216   2.470 -0.1959 -0.0044  0.1447
20896W        W36027  18.564   1.916   2.530 -0.2523 -0.1236  0.2216
20897W        W36028  16.387  15.909  10.996 -0.3366  0.1345  0.0728
20898W        W36029   8.109   2.820  12.523  0.0320  0.2125 -0.0763
20899W        W36030  16.393   4.737   2.794 -0.0934  0.1240  0.1768
20900W        W36031   3.770   8.372   4.751  0.2024  0.1250  0.2056
20901W        W36032   2.561  17.565   3.728  0.0836 -0.0410  0.0971
20902W        W36033   2.902  15.751  11.588  0.0796 -0.0849  0.2878
20903W        W36034  16.681  10.706  13.822 -0.0368 -0.1109 -0.3790
20904W        W36035  12.598  13.932  12.440  0.1811 -0.3082  0.1183
20905W        W36036  17.317  16.998  11.886  0.1330 -0.4370  0.2175
20906W        W36037  12.082  11.951  15.040  0.1236 -0.2924  0.1172
20907W        W36038   3.118   0.340  11.683  0.0751 -0.4895  0.3110
20908W        W36039  11.824   3.716  10.648  0.0544 -0.1587 -0.0930
20909W        W36040   4.049  10.451  12.290 -0.0486 -0.1019 -0.1132
20910W        W36041  16.906   8.911  12.297  0.0806  0.1514  0.1011
20911W        W36042  10.612   4.711  11.835 -0.3225 -0.0837 -0.0464
20912W        W36043   0.057  12.999  10.551 -0.5466  0.2270  0.2473
20913W        W36044   0.649   2.165   4.468  0.2543  0.0460 -0.1806
20914W        W36045  17.740   9.502   1.009 -0.0431 -0.0228 -0.2210
20915W        W36046   6.751   9.754  10.387  0.0279 -0.0683  0.0372
20916W        W36047   5.701   1.025   0.779 -0.3313 -0.3424 -0.1192
20917W        W36048  11.398   5.223  12.104 -0.0507 -0.1982  0.0123
20918W        W36049   0.915   3.068  15.518  0.2857  0.1524  0.0046
20919W        W36050  12.661   6.903  15.437  0.0110  0.2502  0.0530
20920W        W36051   0.459   1.462  14.015  0.3571 -0.1003 -0.0202
20921W        W36052   3.100  17.185  14.561 -0.3585 -0.0128 -0.1314
20922W        W36053   4.645  14.419   2.569  0.0786 -0.0495  0.0562
20923W        W36054   8.344  14.899   4.155  0.2567  0.1078  0.2369
20924W        W36055   1.584  14.227  11.084 -0.2124  0.2293 -0.0630
20925W        W36056  15.210   7.056   4.249  0.2858 -0.2136  0.0696
20926W        W36057  14.420   2.613   1.256 -0.0828 -0.0286  0.0824
20927W        W36058   9.052   4.728   5.266 -0.0543  0.2001  0.1380
20928W        W36059  10.429  17.758  10.251  0.0581 -0.0801 -0.0208
20929W        W36060  18.486  11.287  12.331  0.2175  0.0623  0.1731
20930W        W36061  15.768   7.346   4.747 -0.2291 -0.0187  0.1223
20931W        W36062   4.905  17.102   0.769  0.2925 -0.2823 -0.0658
20932W        W36063   2.366  17.888   4.115  0.1012  0.0212 -0.0451
20933W        W36064  15.969   3.839   2.760 -0.2360 -0.0320 -0.1021
20934W        W36065   4.118  11.433   4.428 -0.0632 -0.1985  0.3257
20935W        W36066   4.822   9.072  14.068  0.1641 -0.0263  0.0482
20936W        W36067   0.045   8.987  11.781  0.0105 -0.0315  0.0650
20937W        W36068  16.962   3.376  14.321 -0.0513  0.2198  0.1013
20938W        W36069  14.540   9.201  11.374 -0.2636  0.0032 -0.0383
20939W        W36070  11.215  17.045   3.811  0.1382 -0.1987 -0.1444
20940W        W36071   9.364  15.700  13.486  0.2430 -0.2145  0.2651
20941W        W36072   0.590   0.256  12.695 -0.1288 -0.4484  0.0353
20942W        W36073   9.832  18.426  14.596 -0.3576 -0.0140 -0.2589
20943W        W36074  16.761  11.077  14.254 -0.1985  0.1558 -0.2907
20944W        W36075  17.523   0.431   3.240 -0.0400 -0.2016 -0.0436
20945W        W36076   2.588   2.243   0.892 -0.1054  0.0907 -0.0132
20946W        W36077  14.172   8.831  13.170  0.3344 -0.0344  0.2572
20947W        W36078   2.254   0.280   3.542 -0.0017 -0.3152 -0.2930
20948W        W36079   0.084  10.208  10.882 -0.2252 -0.3800  0.2958
20949W        W36080  12.450   1.490   2.168 -0.0500 -0.1984 -0.0929
20950W        W36081  17.975  12.044   0.344  0.0335 -0.1022 -0.1422
20951W        W36082   5.660  18.310  14.993  0.1769  0.1355  0.0067
20952W        W36083   1.013   0.071  12.974  0.0959  0.1521  0.1453
20953W        W36084  18.560  16.407   1.842  0.0099 -0.0947  0.0407
20954W        W36085   0.675  10.800  15.904  0.0927  0.1883  0.2696
20955W        W36086  12.680  14.646   5.048  0.3488 -0.1199  0.4240
20956W        W36087   0.290   8.734   3.809  0.2684 -0.1577 -0.0021
20957W        W36088  12.146  14.356  15.461 -0.1988  0.2955 -0.5428
20958W        W36089  17.946  16.401   5.935  0.0754 -0.1808 -0.0394
20959W        W36090   5.659  17.344  11.687  0.0950  0.2054  0.0300
20960W        W36091   1.293  13.688  13.495 -0.2640  0.0312  0.3015
20961W        W36092  17.458   3.148  10.547  0.0856 -0.0918 -0.1351
20962W        W36093   4.854   8.064   0.824 -0.1207  0.0750  0.0203
20963W        W36094   8.755  10.300  12.022  0.0130 -0.0331 -0.0686
20964W        W36095   3.450  10.084  12.309  0.1280  0.2739 -0.0334
20965W        W36096   6.853  13.243   3.396 -0.1721 -0.0607  0.3908
20966W        W36097   2.714  14.405  11.999  0.2031  0.2245 -0.2257
20967W        W36098  14.916   4.741   1.187 -0.1441  0.0542  0.0093
20968W        W36099   5.246   1.711  13.305 -0.3037  0.4396 -0.0984
20969W        W36100  17.400   2.016  11.340  0.1568 -0.0209  0.1438
20970W        W36101   0.397  13.983   2.920  0.1889 -0.4164  0.0939
20971W        W36102   8.053  13.478  11.814 -0.1507  0.0675 -0.0384
20972W        W36103  13.410   1.217  13.370  0.0224 -0.0689  0.2336
20973W        W36104  16.333   7.820   3.949 -0.0913  0.2601  0.0739
20974W        W36105  12.641  15.240  14.006  0.1826 -0.1282  0.0679
20975W        W36106   3.754   1.847  10.939 -0.0198  0.2651 -0.0855
20976W        W36107   2.449  13.222   2.543 -0.3245  0.3251 -0.0659
20977W        W36108   4.290   7.352   1.657 -0.1676 -0.1107  0.3271
20978W        W36109  12.930  18.053   3.773  0.2168  0.1014 -0.2462
20979W        W36110  13.352  15.321   3.497  0.3687 -0.1784 -0.0583
20980W        W36111   0.879   3.705   4.054  0.3037  0.0309 -0.1847
20981W        W36112   1.672  11.947   5.188  0.0796  0.1064  0.1205
20982W        W36113   4.137   2.461  15.150 -0.0489 -0.0722 -0.3532
20983W        W36114  15.839   8.954   4.001 -0.0926  0.1837 -0.2137
20984W        W36115  17.045   6.726  15.198 -0.1750 -0.2357 -0.0990
20985W        W36116   4.903   7.429   6.098  0.1627  0.3177 -0.0161
20986W        W36117  11.567  12.991   5.438  0.0923 -0.2258 -0.2964
20987W        W36118  14.766  13.154   1.696  0.0227 -0.2097  0.2301
20988W        W36119  11.753  15.998   1.625  0.0650  0.0627  0.1159
20989W        W36120   5.041   2.967   0.275  0.1141  0.7659  0.0610
20990W        W36121   4.693   5.764  11.980  0.0486  0.1539  0.1283
20991W        W36122  11.094   3.818   3.744  0.2309  0.1631 -0.2144
20992W        W36123  13.005  11.579   0.681  0.0253  0.3348  0.1922
20993W        W36124  15.532  17.207  12.770 -0.0609  0.0531  0.1457
20994W        W36125   8.286   0.261  12.987 -0.1042  0.1315  0.0835
20995W        W36126  16.372   9.726   6.218  0.0424 -0.0850  0.3178
20996W        W36127   7.633  13.247  15.422 -0.2469 -0.0167  0.2406
20997W        W36128   3.995   7.089  10.963 -0.1264  0.1108  0.1406
20998W        W36129   6.515   2.712   0.465 -0.0783 -0.1613 -0.1480
20999W        W36130  17.159  10.516   3.175 -0.1556  0.0405  0.2013
21000W        W36131   2.041  18.353  10.966 -0.0168 -0.1789  0.1931
21001W        W36132  17.486   0.276   5.265 -0.0855  0.4247 -0.2671
21002W        W36133  12.058  10.418  14.600  0.0033 -0.0440 -0.5594
21003W        W36134   2.906   7.125   3.041 -0.1056  0.1424  0.1201
21004W        W36135  17.512   1.745   1.478  0.1490 -0.1151 -0.1496
21005W        W36136  15.650  17.784  13.389 -0.2043  0.0486 -0.1426
21006W        W36137  10.059   1.752   2.415 -0.1215 -0.0309 -0.1963
21007W        W36138  13.979  14.531  14.327 -0.0996 -0.1940  0.0453
21008W        W36139   8.620   0.302  14.322  0.0720 -0.0345 -0.2208
21009W        W36140   6.261   2.171  15.585 -0.1116 -0.1432 -0.0270
21010W        W36141  17.493   2.865  15.127  0.2502 -0.0954  0.1154
21011W        W36142  10.112   5.202   2.582 -0.0166  0.1567  0.2330
21012W        W36143  16.117  16.279  11.185  0.2281  0.1355 -0.1666
21013W        W36144  17.532  11.158  10.632  0.0271  0.3259 -0.1083
21014W        W36145  14.079   2.446   1.539 -0.0159 -0.3025 -0.0706
21015W        W36146  15.846  16.865   0.570 -0.0751  0.1304 -0.1142
21016W        W36147   3.748   5.874   2.528  0.1276 -0.4257 -0.1471
21017W        W36148  17.679   2.405   2.675 -0.0484 -0.3608 -0.0257
21018W        W36149  11.592  11.227   1.975 -0.1048 -0.2975  0.2441
21019W        W36150   9.071   5.186  11.538 -0.0284  0.1145 -0.0238
21020W        W36151   1.755   2.436   3.600 -0.2466 -0.1407 -0.4482
21021W        W36152  10.477  11.757  13.272 -0.3286  0.1136  0.0123
21022W        W36153  10.461  17.667  13.532 -0.0239  0.0470  0.0979
21023W        W36154  17.156   7.749   4.830  0.1892  0.0461  0.0847
21024W        W36155  12.321   9.836  15.710  0.1318 -0.2170  0.0665
21025W        W36156  17.561  10.882  14.412 -0.2676 -0.0709 -0.2352
21026W        W36157  14.994  14.913   0.622  0.0426 -0.2997 -0.2252
21027W        W36158  15.396   3.177   3.042  0.1920 -0.1837 -0.0949
21028W        W36159   6.269  17.283   0.608  0.0673  0.4027 -0.3076
21029W        W36160  13.166   9.424   5.260  0.1976 -0.0752  0.0476
21030W        W36161  12.415  16.037  12.784  0.0034 -0.1209  0.0706
21031W        W36162   5.432   7.236   5.542 -0.1453  0.0984  0.0971
21032W        W36163   8.240   1.468  12.561 -0.0238 -0.0140 -0.0341
21033W        W36164   5.151   3.413   2.296  0.1442  0.0756  0.0831
21034W        W36165  17.878   5.047   5.576  0.0419  0.1348 -0.1185
21035W        W36166  10.116   3.130  14.836 -0.3804  0.0342 -0.0830
21036W        W36167   8.970   5.209  12.040 -0.0963 -0.1499  0.3496
21037W        W36168  11.327   4.718   2.751  0.0528 -0.0144  0.0478
21038W        W36169   4.620  14.099   0.983 -0.0943 -0.3216 -0.3940
21039W        W36170   9.258  18.187  11.116 -0.1513  0.0449  0.0225
21040W        W36171  13.761   3.357   5.321 -0.3392 -0.0524 -0.2979
21041W        W36172   4.345  15.491  14.014  0.1215 -0.0261 -0.0521
21042W        W36173  17.878  13.599  15.151  0.0853  0.1375  0.0006
21043W        W36174  13.567  11.335   3.439  0.1105 -0.3755 -0.0590
21044W        W36175  10.978  11.495   9.853 -0.1959 -0.0089 -0.4507
21045W        W36176  13.352  11.529   2.514 -0.0367  0.2421  0.0180
21046W        W36177   6.894   7.087   0.738 -0.0549 -0.1361  0.4173
21047W        W36178  17.715  16.976  13.642  0.1244 -0.0262 -0.2135
21048W        W36179  10.600   4.662   4.980 -0.0771 -0.1206 -0.1574
21049W        W36180   7.604  13.108   4.099 -0.0075  0.1068  0.1520
21050W        W36181   5.271   0.270  11.046 -0.0719  0.2564  0.1590
21051W        W36182   6.695   3.529  15.485 -0.1639  0.2406 -0.1586
21052W        W36183   4.466   5.490  15.160 -0.1833  0.0256 -0.1972
21053W        W36184   7.014  17.474   5.402  0.1104 -0.1590  0.0050
21054W        W36185   9.477  16.981   4.332 -0.1043 -0.3135 -0.3274
21055W        W36186  10.275   5.501  10.719  0.0929  0.3596  0.1502
21056W        W36187  17.893   7.543   0.768 -0.0340 -0.0186 -0.0580
21057W        W36188  16.127  13.175  14.486 -0.0701  0.0584 -0.0977
21058W        W36189   1.048  17.478  12.002 -0.1555  0.2573 -0.2957
21059W        W36190   3.141  17.692  15.193 -0.0111 -0.0662  0.0699
21060W        W36191   4.335  14.122  13.941 -0.0131  0.5353  0.0685
21061W        W36192   7.584   7.664  14.306  0.2568  0.2433 -0.1910
21062W        W36193   5.019  12.708  11.000 -0.3078  0.0418 -0.1537
21063W        W36194   1.769  10.512  13.414 -0.2204  0.2875  0.1474
21064W        W36195  14.632   5.160  11.071  0.0829 -0.2044  0.1798
21065W        W36196  17.080   1.364   0.288 -0.0749 -0.1459  0.5401
21066W        W36197   3.646   7.118   1.671  0.3014 -0.0622  0.5077
21067W        W36198   2.059  18.475   0.619 -0.0872 -0.2086 -0.0631
21068W        W36199  13.367  16.083   0.486 -0.0341 -0.0512 -0.0979
21069W        W36200   1.104   2.058   2.890  0.2569  0.1053 -0.3431
21070W        W36201   8.956  17.511   1.086  0.2719  0.0680  0.1756
21071W        W36202  18.209   9.313  10.934 -0.1068 -0.2450 -0.2296
21072W        W36203  14.754   8.175   6.336 -0.3492  0.1189 -0.0292
21073W        W36204   7.606  14.504   2.844  0.2582  0.2568 -0.1702
21074W        W36205   4.748  13.044   4.127  0.0115 -0.0487  0.3183
21075W        W36206   7.767   4.069   3.013  0.3048 -0.0631 -0.0774
21076W        W36207   3.473   8.407   5.661  0.1719  0.0290 -0.1198
21077W        W36208   3.186  11.824  15.050  0.0118 -0.2767 -0.2342
21078W        W36209   9.226   5.994  15.131 -0.2524  0.1369 -0.0007
21079W        W36210   6.834  11.052  12.547  0.1341 -0.1432  0.4137
21080W        W36211   6.090  16.469   1.640  0.1005  0.1405  0.1414
21081W        W36212  15.696   7.361  13.983  0.0699 -0.0040 -0.0782
21082W        W36213  11.129   8.573   4.071 -0.1245  0.1252  0.0723
21083W        W36214   9.538   0.044  14.123  0.0173  0.1768 -0.2379
21084W        W36215   7.032  13.037   4.827 -0.1785  0.0990 -0.1429
21085W        W36216   6.317  11.697   3.664  0.4341 -0.1099  0.0552
21086W        W36217  14.706  10.210   2.626 -0.2559 -0.2380 -0.0770
21087W        W36218   6.194  16.555  15.061 -0.2986  0.1596 -0.2671
21088W        W36219  15.287  18.329  11.448 -0.0731  0.0918 -0.0486
21089W        W36220  16.752   6.181   1.174  0.1373 -0.0827 -0.0039
21090W        W36221   1.278  16.250   2.082  0.2458  0.1939 -0.0460
21091W        W36222   3.914  13.148  11.641  0.2329 -0.4460  0.0301
21092W        W36223  10.195  15.948   0.480 -0.1657 -0.1506 -0.1097
21093W        W36224   3.614   9.253   0.070  0.2680  0.2045  0.0825
21094W        W36225  18.530  14.153  12.718 -0.2028 -0.0057 -0.2724
21095W        W36226  13.651   7.861   1.523  0.1462 -0.0659 -0.4319
21096W        W36227   6.322  17.547   4.852  0.3330 -0.1306 -0.4654
21097W        W36228  13.564  11.701  11.200  0.0600  0.0413 -0.1473
21098W        W36229   7.564   8.733  12.836  0.1274  0.3749  0.1238
21099W        W36230  15.307  15.991   1.880  0.1038  0.0034  0.1628
21100W        W36231   9.946  11.922   0.207 -0.1990 -0.0544 -0.2787
21101W        W36232   1.036   7.433  12.430  0.1078  0.0901  0.3497
21102W        W36233  18.495   5.862  14.654 -0.1818 -0.1536  0.2243
21103W        W36234   3.099   9.127   5.059  0.0713 -0.0667  0.1330
21104W        W36235   2.962   9.296   1.851 -0.0172  0.1724  0.2465
21105W        W36236   3.564   5.801   4.611  0.1358 -0.2713  0.0375
21106W        W36237  14.205  13.394   1.790  0.1294 -0.1831 -0.1150
21107W        W36238   8.860   0.804  14.464  0.0317  0.0801 -0.1776
21108W        W36239   2.673  13.273  12.795  0.0949 -0.0511 -0.0578
21109W        W36240  11.351  13.696  11.248  0.2101 -0.1364  0.2589
21110W        W36241  13.562   9.567   4.954 -0.1078 -0.2366 -0.2033
21111W        W36242   4.652   3.908  14.091 -0.0853 -0.2033 -0.3735
21112W        W36243  17.870   0.670  13.059 -0.0042  0.2358  0.0357
21113W        W36244   9.212   9.945  14.144  0.2266  0.0960 -0.0190
21114W        W36245  10.770  14.482   0.477 -0.0505  0.1595  0.0545
21115W        W36246   5.789   0.723   2.226  0.0709  0.3337  0.1156
21116W        W36247   3.749   8.508  10.314  0.0388 -0.1903 -0.1636
21117W        W36248  12.236  10.856  15.875 -0.0846 -0.0817 -0.3153
21118W        W36249  12.915   9.482   3.358  0.0003 -0.2494 -0.1060
21119W        W36250   8.820  12.116  12.079  0.0371  0.1378  0.2444
21120W        W36251   2.754  16.079  15.030  0.1317 -0.0908  0.1736
21121W        W36252   6.637   2.157  15.230  0.0673 -0.1469  0.2533
21122W        W36253  13.777  14.917   4.301 -0.2990  0.0639 -0.0999
21123W        W36254   1.368   7.219  12.791 -0.1380  0.2811 -0.1021
21124W        W36255  16.422   3.553   5.177 -0.1666 -0.3155  0.1294
21125W        W36256   4.679  10.056   3.116  0.2188 -0.1494 -0.1872
21126W        W36257   9.863  14.950   2.310 -0.3261  0.1036  0.0850
21127W        W36258   0.235   3.822  12.059 -0.0655 -0.0942  0.0627
21128W        W36259   4.715  16.266  14.795  0.0754  0.1940 -0.0861
21129W        W36260   2.454   2.513   4.638  0.0969 -0.1058  0.2237
21130W        W36261  13.432   2.594   2.715  0.0999 -0.0185 -0.1312
21131W        W36262  15.274   7.559  12.629  0.3238 -0.1068  0.1335
21132W        W36263   4.893   3.464  11.360 -0.0846  0.2167 -0.1396
21133W        W36264  18.258   4.903   3.515 -0.0329 -0.1568  0.0915
21134W        W36265   6.858  18.557   1.760  0.3236 -0.0252 -0.0568
21135W        W36266   1.063  17.607  11.451 -0.2847 -0.0725 -0.2524
21136W        W36267  13.660  11.175   5.582 -0.1986 -0.0162  0.0244
21137W        W36268   5.592  15.947   3.711  0.0107 -0.3135 -0.2308
21138W        W36269  11.466   4.472  12.076  0.2178 -0.2264 -0.2373
21139W        W36270  13.336   7.343  14.952  0.0638  0.0496  0.3257
21140W        W36271  11.741   0.397  14.236 -0.0487 -0.1499 -0.1117
21141W        W36272  16.819   7.979   2.470  0.3282 -0.0656  0.4577
21142W        W36273  16.191  13.774  15.112  0.1834  0.2711  0.0024
21143W        W36274   5.837   3.743  15.488  0.0069 -0.2221  0.2062
21144W        W36275  18.555   9.661   3.268 -0.1736  0.1307 -0.1628
21145W        W36276  10.482   3.055  11.248 -0.0595  0.2097  0.0973
21146W        W36277  11.470  17.248   0.206  0.0415  0.0786  0.2120
21147W        W36278   2.681  17.283   2.419 -0.0055  0.4403 -0.0833
21148W        W36279   3.062  15.462   4.432 -0.0868  0.0333  0.1464
21149W        W36280   0.505   0.152   5.846  0.0778 -0.1579  0.1579
21150W        W36281   6.619  13.316  12.607 -0.3204 -0.0253 -0.2212
21151W        W36282   9.594   7.169  10.990  0.2785  0.0292 -0.0338
21152W        W36283  18.212   4.176   1.429 -0.0878  0.2903  0.3450
21153W        W36284  16.781  15.935   1.667 -0.0574  0.3209 -0.2986
21154W        W36285   7.793  16.713  13.420  0.0022 -0.2534 -0.1435
21155W        W36286  17.117   7.098   1.012 -0.2059  0.5459 -0.2136
21156W        W36287  16.543   0.801  11.778 -0.0717  0.1183  0.1294
21157W        W36288   2.104  18.416   0.071 -0.2084 -0.1104  0.3599
21158W        W36289  16.842  11.399  15.138 -0.2898  0.0321 -0.0661
21159W        W36290   2.711   6.712   2.943 -0.3265 -0.1354  0.0508
21160W        W36291  17.791   6.622   2.545  0.1069 -0.0204 -0.1093
21161W        W36292   6.251  15.607  15.719  0.7047  0.3286 -0.3939
21162W        W36293   7.392  14.548   4.411 -0.1452  0.0450 -0.1051
21163W        W36294  11.751  16.231   0.389  0.0838 -0.0986  0.1329
21164W        W36295  13.450  12.364   6.180 -0.0470 -0.2652  0.3549
21165W        W36296   7.970  17.167  15.106 -0.1635 -0.0659  0.1717
21166W        W36297  14.713  17.364   3.130 -0.1417 -0.2275  0.2132
21167W        W36298   7.754   6.733  12.017 -0.0136 -0.1601  0.1363
21168W        W36299  17.381   5.606  12.010  0.0739 -0.1235  0.3552
21169W        W36300  13.035   6.774  12.558 -0.0201  0.0096 -0.0590
21170W        W36301   5.018   8.815  14.491  0.1569 -0.0929  0.2558
21171W        W36302  16.474   1.145   5.653 -0.1318  0.0569 -0.4528
21172W        W36303  18.103   7.979   1.246  0.2552  0.0205 -0.1442
21173W        W36304   7.886   8.501  11.934  0.1817 -0.1577  0.2429
21174W        W36305  18.219   0.719   4.794 -0.2023  0.1086 -0.2461
21175W        W36306   2.676   0.517   3.382  0.0754 -0.0221 -0.1106
21176W        W36307   1.501  15.972  10.667  0.0705 -0.1374 -0.2420
21177W        W36308  14.832   3.763   3.713 -0.1012  0.2038 -0.0559
21178W        W36309   9.820   9.485  11.587  0.1583 -0.0328 -0.0978
21179W        W36310   9.955   2.202  14.218 -0.2080 -0.0066 -0.3299
21180W        W36311  11.780   2.982  11.246  0.2099  0.0078  0.1414
21181W        W36312   3.833   7.265   3.803  0.0780  0.0719 -0.1759
21182W        W36313   3.147  15.250   3.267 -0.0478 -0.2760 -0.3170
21183W        W36314  14.696  14.802  10.230  0.0733  0.2307  0.2114
21184W        W36315  10.135  15.890   2.018 -0.1936 -0.1238 -0.0046
21185W        W36316   8.005   3.576  11.135  0.0240 -0.3222 -0.2931
21186W        W36317  13.227   0.826   5.233  0.1853 -0.1903 -0.1515
21187W        W36318   4.165   1.415   5.085 -0.1476  0.2619 -0.0768
21188W        W36319  16.706   6.107   5.434 -0.0880  0.0016 -0.2450
21189W        W36320  13.684  16.086  10.242 -0.0243  0.0285 -0.1291
21190W        W36321  17.663   8.876   4.850  0.0912 -0.0168  0.1954
21191W        W36322   5.836   3.504   1.660  0.1043  0.0082  0.3256
21192W        W36323   1.530  16.327  15.462  0.0744  0.2038  0.1914
21193W        W36324  11.442   9.217   0.424 -0.0601  0.1037  0.0166
21194W        W36325   0.980   6.208  15.722  0.2012 -0.2522  0.0964
21195W        W36326  17.235   0.320   5.877 -0.2091 -0.2041 -0.0520
21196W        W36327   6.621  11.172  15.287 -0.0905 -0.1974  0.1715
21197W        W36328   9.601   0.459   9.664  0.0713 -0.0010 -0.3529
21198W        W36329   2.267   3.887  13.129 -0.1801  0.0226 -0.3127
21199W        W36330  14.131   9.226   3.688  0.3148 -0.0441 -0.1365
21200W        W36331   7.921  13.112  13.832 -0.3414 -0.1498  0.1908
21201W        W36332   3.425  17.128  11.440 -0.0076  0.0339  0.0249
21202W        W36333  17.868   8.904   3.521 -0.0140 -0.0524  0.0434
21203W        W36334  10.857   2.602   4.198 -0.2905  0.1454 -0.1768
21204W        W36335   5.836   5.926  14.730 -0.0671 -0.0095  0.5280
21205W        W36336  11.821  17.761   4.506 -0.2215 -0.2256 -0.2329
21206W        W36337   0.130  12.558  15.331  0.1169  0.1541 -0.0641
21207W        W36338   0.949   0.871   4.132 -0.4519  0.2743 -0.0811
21208W        W36339   7.171   2.753  15.025  0.1272  0.0620  0.1237
21209W        W36340   5.061   9.837   1.420  0.1700 -0.2268  0.0813
21210W        W36341  11.033  17.003  15.283  0.0024  0.0484 -0.2089
21211W        W36342  12.576   1.790   1.472  0.3527  0.0519 -0.1832
21212W        W36343   9.112   2.271  12.328 -0.0426 -0.0428  0.2087
21213W        W36344   3.951  10.979  12.281 -0.0449  0.0974  0.0768
21214W        W36345   8.916   4.763  11.787  0.3212 -0.0552 -0.2547
21215W        W36346  13.058   8.470   3.463  0.4031 -0.4476  0.1801
21216W        W36347   1.164   8.790   1.035  0.1069 -0.0563 -0.1802
21217W        W36348   0.730   7.607   6.155  0.1173 -0.1176  0.0833
21218W        W36349   3.287   7.171   3.454 -0.1581  0.2040  0.4413
21219W        W36350  12.395  17.054   4.526 -0.3593 -0.0039 -0.0304
21220W        W36351  11.647  14.193  15.488  0.1996  0.1493  0.0945
21221W        W36352   4.764   5.745   2.479 -0.2546  0.2210  0.2081
21222W        W36353   0.251  13.472   0.444  0.0544 -0.0213 -0.2817
21223W        W36354  11.570  17.804  14.924  0.1175  0.3671 -0.1843
21224W        W36355  14.448   7.403   0.028  0.0276  0.1991 -0.2189
21225W        W36356   2.717   4.600  11.343  0.1884  0.0018 -0.0257
21226W        W36357  12.635  17.190   1.819  0.0489 -0.1180  0.4535
21227W        W36358  16.974   8.230  14.061  0.1380  0.0599 -0.1798
21228W        W36359   6.838  14.172  14.142 -0.1946  0.2224 -0.1987
21229W        W36360  13.701   2.657  10.492 -0.0129  0.3327  0.1546
21230W        W36361  16.154  13.135  13.629 -0.0330  0.2173 -0.7547
21231W        W36362  10.991  16.718  14.818  0.1665 -0.3063 -0.0343
21232W        W36363   4.485  12.538   3.564 -0.3160 -0.0364  0.1534
21233W        W36364  14.351  10.768   2.401  0.0964  0.0235 -0.3818
21234W        W36365  15.174  10.713   5.984  0.3324  0.1284  0.1916
21235W        W36366  14.338   8.471   1.296  0.1317 -0.1829  0.1973
21236W        W36367  10.487   8.937   2.032 -0.1463 -0.1533 -0.3284
21237W        W36368  11.647   7.837   3.044  0.2569 -0.0555  0.0498
21238W        W36369   7.143   8.458  14.574  0.0322  0.1469  0.1015
21239W        W36370  14.105  10.535  13.925  0.1135  0.0038  0.0843
21240W        W36371  17.882   6.183  15.254 -0.1614  0.0381  0.0611
21241W        W36372   3.580   1.959   1.482  0.2097  0.3633 -0.3666
21242W        W36373  17.907  16.527  14.061 -0.0406  0.1516  0.0385
21243W        W36374  11.629  12.642   4.085 -0.0679  0.4129  0.1585
21244W        W36375   4.274   8.246  11.689  0.1373  0.0058  0.2867
21245W        W36376   6.605  10.418  11.546  0.0383 -0.0297  0.3253
21246W        W36377  14.738  11.128   2.463 -0.0093  0.0220 -0.0092
21247W        W36378  12.593   4.369  14.572  0.0171  0.1349 -0.0499
21248W        W36379   3.033  17.555   0.578 -0.2957 -0.0428  0.3053
21249W        W36380  12.770  18.504  12.897  0.0253 -0.2306  0.3596
21250W        W36381   7.467  12.343   5.694 -0.0151  0.1910 -0.2065
21251W        W36382  17.086   7.438  12.257 -0.0341 -0.0448 -0.0618
21252W        W36383  15.434   4.072   0.841  0.0180 -0.0340 -0.0944
21253W        W36384   1.648   8.730   2.738 -0.0300  0.1200  0.0854
21254W        W36385   5.659   8.604   1.605  0.2842  0.2640 -0.0203
21255W        W36386  12.719   6.540  13.343  0.0801 -0.0781  0.0721
21256W        W36387   6.379  14.765   1.064 -0.0808 -0.3232 -0.1176
21257W        W36388   5.100  12.318   4.962  0.0656 -0.1510 -0.2557
21258W        W36389   2.273  14.091  12.127  0.2590 -0.0607  0.1539
21259W        W36390  11.620   6.234   0.103 -0.4159 -0.0180 -0.1610
21260W        W36391  17.015  13.749  15.604 -0.1393  0.3122  0.2465
21261W        W36392   3.105   5.697   1.788 -0.2402  0.0072 -0.0606
21262W        W36393  15.786  13.816   2.845  0.1265  0.0551 -0.3062
21263W        W36394   9.194  13.774   2.962  0.0804  0.2280  0.1063
21264W        W36395  11.403   0.739  14.350 -0.2378 -0.2263  0.2903
21265W        W36396   5.040  18.047  15.844 -0.0886  0.1082 -0.0535
21266W        W36397   9.857   4.036  13.630  0.2266  0.0465 -0.2510
21267W        W36398   2.087   3.495   1.677 -0.0142 -0.1037  0.0869
21268W        W36399  16.224  13.859   2.607  0.1905  0.0559  0.5018
21269W        W36400   2.157  15.899   1.046  0.0458 -0.1442 -0.0321
21270W        W36401  10.020  11.871  11.506 -0.0727  0.0212  0.0507
21271W        W36402   7.912  10.165  14.394 -0.0451  0.0857  0.0691
21272W        W36403   9.912   5.035  10.951 -0.3569 -0.1469 -0.4163
21273W        W36404  15.031   7.604  10.232  0.0655  0.1794  0.1230
21274W        W36405   5.474   1.729   3.656 -0.2671 -0.1602  0.0728
21275W        W36406   2.082   9.893   2.723  0.0471  0.2357 -0.0830
21276W        W36407  12.304   8.678   0.424 -0.0263 -0.2638 -0.0444
21277W        W36408   6.021   0.527  13.141 -0.3025  0.1753 -0.3299
21278W        W36409  16.466   3.182   2.572  0.2898 -0.1346  0.0031
21279W        W36410   1.631   6.550   0.115 -0.2220  0.3646 -0.1612
21280W        W36411  14.580  16.658  12.616  0.2093 -0.1517 -0.1247
21281W        W36412  17.773  12.964  13.865 -0.3115 -0.0956  0.1214
21282W        W36413   2.722  15.294  12.458  0.1301 -0.2811 -0.3312
21283W        W36414   6.768  11.622   2.992  0.4505 -0.2307 -0.3120
21284W        W36415  12.902  10.082  14.255 -0.0054  0.2353  0.1638
21285W        W36416  16.771   0.871  13.561 -0.0645 -0.1412 -0.0993
21286W        W36417   2.083  11.004   0.583 -0.0816 -0.0777 -0.0321
21287W        W36418   9.852   5.840   0.520  0.1666  0.0826  0.2482
21288W        W36419   3.476   5.028  12.640 -0.0705  0.3633 -0.1503
21289W        W36420   5.142   0.884   0.954 -0.0181 -0.1655 -0.0876
21290W        W36421  15.303   6.146   3.514 -0.0740 -0.5009  0.2012
21291W        W36422   6.781   6.569  13.041 -0.0301 -0.0814 -0.1441
21292W        W36423  14.848  10.662   4.747  0.1142 -0.1239  0.0791
21293W        W36424  14.963  12.380   1.338 -0.2617 -0.2563  0.0147
21294W        W36425  10.222   8.635  12.794 -0.2027  0.1870  0.4374
21295W        W36426   8.310  16.823   9.960  0.0758  0.0641  0.0967
21296W        W36427   4.257   7.498   2.225 -0.0936  0.0435 -0.2539
21297W        W36428   6.646   3.136  15.230  0.1560 -0.1967 -0.2945
21298W        W36429   4.026   7.598   3.093  0.2675 -0.2069 -0.0601
21299W        W36430  16.839  18.207  13.027 -0.2640  0.1251  0.2306
21300W        W36431   1.328   7.825   2.963 -0.1939  0.0175  0.2041
21301W        W36432   2.043   0.764  12.685  0.1195  0.3640  0.1474
21302W        W36433   8.511   8.894  13.440  0.0738  0.2293 -0.4566
21303W        W36434   9.363  13.374  13.378  0.0139  0.0023  0.3374
21304W        W36435  16.973  12.686   1.220 -0.0007  0.2990  0.3167
21305W        W36436   8.308   7.230  14.696 -0.2381  0.1861 -0.0621
21306W        W36437   3.786   5.080  11.662  0.0217 -0.0174  0.0420
21307W        W36438  10.732  14.261  10.145  0.1735  0.0723  0.2609
21308W        W36439  17.849  15.051  15.243  0.0415  0.2948  0.0625
21309W        W36440  15.013   2.437   0.693  0.2271 -0.0261 -0.0555
21310W        W36441  10.922   5.418   2.602  0.1139 -0.0176 -0.0503
21311W        W36442   3.979   4.848  14.645  0.0582  0.1392 -0.0143
21312W        W36443   7.239   6.257   3.707 -0.0168 -0.0913  0.0672
21313W        W36444   3.291   4.372   1.668 -0.1712  0.2739  0.2515
21314W        W36445  13.595   0.582  11.077 -0.2206 -0.1478  0.1230
21315W        W36446   3.843  17.011   4.289  0.0408 -0.0179 -0.1582
21316W        W36447  12.466   4.413  15.546 -0.1708 -0.0902  0.0263
21317W        W36448   1.377  18.052   4.168 -0.0438 -0.1006  0.1608
21318W        W36449  11.050  17.968   3.474 -0.0234 -0.1555  0.1538
21319W        W36450   5.143  16.585   4.789  0.1596 -0.3297 -0.0498
21320W        W36451   0.682  16.695   1.075 -0.1552  0.1604 -0.0838
21321W        W36452  10.433  14.026   4.119  0.1666 -0.1163 -0.2354
21322W        W36453   7.670  14.844  11.456  0.0539  0.1065  0.0499
21323W        W36454  12.258   1.218  15.442 -0.2402  0.1559 -0.1056
21324W        W36455  18.156  13.071  15.629  0.2350 -0.1363  0.1737
21325W        W36456   9.734  12.801  13.268 -0.0268 -0.1498 -0.2050
21326W        W36457  17.697   6.491   4.714 -0.0926 -0.0494 -0.0190
21327W        W36458   9.282   5.628  11.505 -0.0089  0.0689  0.3111
21328W        W36459   7.629   4.354   0.365 -0.1736  0.2968  0.0823
21329W        W36460  13.864  14.782  14.818 -0.1148 -0.0875  0.1343
21330W        W36461   7.162  11.492  10.853 -0.0780 -0.0275  0.0426
21331W        W36462   4.305   6.684  12.038  0.0371 -0.1405  0.0439
21332W        W36463   5.503  12.901   1.849 -0.2417  0.1827  0.1364
21333W        W36464   4.056   6.169  11.984  0.0911  0.0939  0.0766
21334W        W36465  16.499   0.887  15.536 -0.0900  0.2579  0.0055
21335W        W36466   9.329  11.663   4.492  0.1331  0.1078 -0.1997
21336W        W36467   9.153  11.783  12.232 -0.0125  0.0864  0.1928
21337W        W36468  14.066   4.918   2.680  0.0316  0.0053 -0.1370
21338W        W36469  12.883  14.846  14.902  0.4514 -0.1226  0.0570
21339W        W36470   6.104   4.774   4.648 -0.1241 -0.2363  0.2176
21340W        W36471  12.489  13.970   3.680 -0.0325  0.0357 -0.0149
21341W        W36472  11.604  18.055  11.602 -0.1704  0.0558 -0.4325
21342W        W36473   8.968   6.123   0.893 -0.0666 -0.0980  0.0759
21343W        W36474   3.995  15.845  14.583  0.1403 -0.0330 -0.0022
21344W        W36475   3.942   3.802  14.156  0.3212 -0.0076 -0.0837
21345W        W36476  10.932   8.531   3.629 -0.0362  0.2131 -0.3221
21346W        W36477   8.232  16.989   4.823  0.2090  0.2485  0.0791
21347W        W36478   8.520   7.758   2.596 -0.0269 -0.0430  0.2022
21348W        W36479  12.430  18.113   3.042 -0.2921 -0.0388  0.0593
21349W        W36480   9.938  16.491  10.456 -0.0955  0.1872  0.1553
21350W        W36481   5.363   9.351  11.932  0.1162  0.1110 -0.3114
21351W        W36482   0.525   7.219   1.411 -0.0515  0.1663 -0.1025
21352W        W36483   2.262   2.116   6.408  0.0612 -0.0773 -0.1879
21353W        W36484   9.126   4.745  13.021 -0.1445 -0.0110  0.2099
21354W        W36485  14.789   2.862   0.905 -0.2109 -0.3137 -0.0313
21355W        W36486   4.282  16.651  15.008  0.0716 -0.1656 -0.0881
21356W        W36487  12.130  10.174  13.056 -0.1997 -0.1112 -0.1847
21357W        W36488  16.314   5.290   3.607 -0.2018 -0.0877 -0.1492
21358W        W36489  10.476   6.232  13.200  0.0010 -0.4341 -0.2560
21359W        W36490   6.345   9.032  13.572 -0.0114  0.0885 -0.0792
21360W        W36491   8.044  11.676   4.481  0.1581 -0.0849  0.0975
21361W        W36492  11.395   2.179  15.790  0.1395 -0.1922  0.1596
21362W        W36493   1.561  14.525   1.391  0.2361 -0.0314  0.3037
21363W        W36494  15.772   3.091  12.993 -0.0714 -0.0556 -0.0382
21364W        W36495  17.030  11.219  14.660 -0.0567 -0.3319 -0.0722
21365W        W36496  11.031   7.865  13.131  0.1904 -0.3271  0.1875
21366W        W36497  15.320   4.460   5.103 -0.0761  0.2034 -0.0343
21367W        W36498  15.116  14.679  13.781 -0.1030  0.2102 -0.2022
21368W        W36499  18.084  17.208   0.420  0.0769  0.1291 -0.2608
21369W        W36500  14.670   5.839   4.921 -0.0469  0.1542 -0.3125
21370W        W36501   6.751   7.413  12.569 -0.1370  0.0696 -0.2036
21371W        W36502  14.063   5.078  12.971 -0.0431 -0.1558 -0.0710
21372W        W36503   5.655  17.348   1.314  0.2100 -0.1457 -0.1664
21373W        W36504  10.185  10.761   4.282 -0.0079  0.1816 -0.4064
21374W        W36505  17.873  10.641  14.690  0.0955  0.0264 -0.0809
21375W        W36506  15.010   0.963  12.195 -0.2663 -0.1895  0.2134
21376W        W36507   6.737  10.813   4.729 -0.0081 -0.0450  0.1937
21377W        W36508  13.513  17.495   5.451 -0.1029  0.2463  0.0305
21378W        W36509   2.128   0.506   4.723 -0.1044 -0.3392 -0.4246
21379W        W36510   6.628   2.982   9.874 -0.0462  0.2888 -0.0279
21380W        W36511   0.603  15.698   5.027  0.0400 -0.0520  0.1129
21381W        W36512   5.790   0.955  12.454 -0.0631 -0.0790  0.1738
21382W        W36513   2.955  17.260   3.521 -0.0667 -0.4247  0.2942
21383W        W36514  16.801   1.210   1.657 -0.0867  0.1420 -0.0977
21384W        W36515  14.951   4.848  13.954  0.1252  0.1716 -0.0155
21385W        W36516  12.002  16.535  14.124  0.2683 -0.4058  0.2888
21386W        W36517  16.367   7.120  11.611 -0.0255  0.0613 -0.2156
21387W        W36518  13.430  13.021   5.311 -0.0549  0.3130 -0.1937
21388W        W36519  14.080   7.567  12.234 -0.3206 -0.0981  0.0354
21389W        W36520  12.461  18.260  10.970 -0.0504  0.0012  0.2261
21390W        W36521  13.448  13.383   3.831  0.2300  0.1839 -0.0706
21391W        W36522  11.715   3.872   2.433  0.2812 -0.0612  0.0150
21392W        W36523   5.796  16.387   4.020  0.0163 -0.0270  0.4736
21393W        W36524  17.110   4.750   1.827 -0.0871  0.2763  0.2358
21394W        W36525  17.476  15.839  15.141 -0.0146  0.0865  0.2128
21395W        W36526   3.314  11.747   4.546  0.4905  0.1977 -0.1321
21396W        W36527   6.660   0.733  10.795 -0.0307  0.1315  0.3599
21397W        W36528   3.047   9.551  15.108 -0.1895  0.2070 -0.3900
21398W        W36529   0.655  10.440   3.981 -0.2035 -0.1193  0.0328
21399W        W36530   7.171  18.512  13.747  0.1393  0.1332  0.0135
21400W        W36531   1.206   2.466   2.123 -0.2653  0.1368 -0.4602
21401W        W36532   3.811  16.741   0.037  0.0424 -0.2766 -0.2172
21402W        W36533   0.015  12.461   3.152 -0.0708 -0.3631 -0.0367
21403W        W36534  14.163   8.573  15.883 -0.0214  0.0968  0.2967
21404W        W36535  13.714   3.070  12.221  0.0662  0.0896  0.2415
21405W        W36536  14.154  16.247   1.217  0.2788  0.0841 -0.0689
21406W        W36537   6.126  12.163  12.379 -0.0916  0.0644 -0.0969
21407W        W36538  13.377   0.354   5.123  0.1304 -0.1532 -0.1369
21408W        W36539  14.857   0.706  13.012 -0.0556  0.1159 -0.3169
21409W        W36540  11.070   9.932  11.211 -0.0717 -0.2310 -0.3875
21410W        W36541  10.485   8.102  12.041 -0.0804 -0.1735  0.2212
21411W        W36542  18.313  10.748   2.323  0.3044  0.0076  0.1319
21412W        W36543   6.706  15.093  11.825 -0.0446  0.0157  0.0555
21413W        W36544   3.737  11.347   3.575  0.0924 -0.0875  0.0120
21414W        W36545   9.666  12.123   4.776  0.1592  0.5175 -0.1497
21415W        W36546   4.258  10.802  13.713 -0.2153  0.0030  0.2281
21416W        W36547  13.063  15.556  15.817 -0.2185 -0.1098 -0.1167
21417W        W36548   2.584  12.449   4.584  0.1418 -0.1091 -0.4161
21418W        W36549  14.285  13.325   3.299 -0.1508  0.2328  0.2962
21419W        W36550  12.366   4.951  11.459 -0.0868 -0.0800  0.1980
21420W        W36551  14.939   7.986   5.816 -0.0274 -0.1882  0.0987
21421W        W36552  18.551  14.640  14.728  0.0342 -0.0688 -0.0997
21422W        W36553  18.139   1.937   2.312 -0.0271 -0.2760  0.0215
21423W        W36554   0.955  11.423  10.600  0.2321 -0.0214 -0.0558
21424W        W36555   6.984  17.775   0.287  0.1118 -0.1997  0.1265
21425W        W36556  12.886   3.834   4.621  0.1290 -0.2226  0.0925
21426W        W36557  17.082  12.871   0.698 -0.1548  0.3403 -0.0317
21427W        W36558   2.541   5.637   1.481 -0.1194 -0.0322 -0.0138
21428W        W36559   3.721   7.422   5.384 -0.1985 -0.1671 -0.1294
21429W        W36560   8.331  10.388  11.765 -0.0405 -0.0815  0.0264
21430W        W36561   1.120   5.512  15.029 -0.1252 -0.1953 -0.1947
21431W        W36562  15.107   4.071  15.694  0.0522 -0.4813  0.1078
21432W        W36563  17.264   8.914   0.354  0.2156 -0.0431  0.1911
21433W        W36564  16.244   5.023   0.291  0.0674 -0.0245 -0.0869
21434W        W36565   9.462   3.207  15.340 -0.3281 -0.2985 -0.0581
21435W        W36566   1.961  15.380  14.692  0.1137  0.1932 -0.0155
21436W        W36567   1.395   9.447   5.038 -0.1573 -0.4227 -0.0353
21437W        W36568   1.598   0.386  15.344 -0.1443  0.1763  0.1171
21438W        W36569   9.092   8.889   4.672 -0.3024 -0.1464 -0.1331
21439W        W36570  14.069   8.017   4.641 -0.1441 -0.2726 -0.1272
21440W        W36571  17.700  15.811   2.751  0.2249  0.1119  0.1136
21441W        W36572   7.150  15.246   1.857 -0.0289 -0.2145  0.0651
21442W        W36573   0.423  17.799   4.070  0.2887  0.2294 -0.0612
21443W        W36574   1.508   8.035   3.979  0.1029  0.3430  0.0605
21444W        W36575   2.062   5.490  10.837  0.2727 -0.1127  0.1809
21445W        W36576  15.970  11.523   0.342  0.0532  0.1376 -0.2118
21446W        W36577  18.467  10.606   5.418  0.0752  0.0138 -0.0970
21447W        W36578  17.888  11.775   3.799  0.1959  0.1958 -0.0716
21448W        W36579  15.374   3.828   1.282  0.3039  0.1809  0.1456
21449W        W36580   8.794   2.302  15.615 -0.2034  0.1395  0.1199
21450W        W36581  17.050   7.980  11.923 -0.0416  0.0562  0.0319
21451W        W36582  13.843  10.023   4.848 -0.1190 -0.0897  0.0070
21452W        W36583  16.163  15.563   3.569 -0.0829  0.0664  0.3910
21453W        W36584  10.737  12.939   3.508  0.2008 -0.1257  0.2259
21454W        W36585  17.133  17.633   5.917 -0.0324 -0.4422 -0.2515
21455W        W36586  13.509  11.486   4.609  0.2188  0.0544 -0.1277
21456W        W36587   6.721   1.164   2.151  0.4055  0.3807 -0.2192
21457W        W36588   0.950  15.896   0.316 -0.0033  0.1760 -0.2561
21458W        W36589   3.737   3.905  14.651  0.1678 -0.1975  0.1149
21459W        W36590   8.832  15.957  12.845 -0.1627 -0.2451 -0.0295
21460W        W36591  15.637  15.716   2.320  0.2832  0.1924  0.0911
21461W        W36592  18.551  17.480  13.981  0.1867 -0.2564  0.0327
21462W        W36593  14.860   2.066  14.095 -0.0665 -0.1884  0.0551
21463W        W36594  10.745   6.615   1.205 -0.3348  0.3333 -0.0608
21464W        W36595   8.301   0.832   1.315 -0.2611  0.2389 -0.1681
21465W        W36596  17.253   2.202   0.088 -0.1243  0.1653  0.2368
21466W        W36597  17.623  15.835   0.756 -0.2306 -0.1380  0.1790
21467W        W36598   4.707   6.619   2.298  0.2726 -0.2097  0.0160
21468W        W36599   0.828   4.206  14.756  0.1251  0.1948 -0.2839
21469W        W36600  15.532  10.939   2.165 -0.0058  0.2506  0.3076
21470W        W36601  15.882   8.670  14.522  0.0945  0.1553  0.0302
21471W        W36602   8.934   3.200  14.213  0.0958 -0.1066  0.1180
21472W        W36603   3.932  12.182   2.924 -0.0252  0.2719 -0.0323
21473W        W36604  16.501  15.711  13.725 -0.1861  0.2027 -0.0234
21474W        W36605  17.116  10.736   3.991  0.0774  0.1152  0.3079
21475W        W36606   1.795   1.725   0.352  0.2880  0.0802  0.0800
21476W        W36607  10.116   0.962  13.472 -0.0153 -0.2825  0.1663
21477W        W36608   7.699   6.036   5.052 -0.0883  0.3777  0.1727
21478W        W36609   9.491  15.552  10.638 -0.1072 -0.3270 -0.2369
21479W        W36610   6.585  18.544  11.776 -0.0454  0.0062 -0.2113
21480W        W36611  10.866  13.703   2.803 -0.0571 -0.2631  0.1361
21481W        W36612   6.516   7.330  12.130 -0.0222  0.0597 -0.0824
21482W        W36613  14.518   9.855  14.908  0.0359  0.1122  0.2738
21483W        W36614   4.316   2.660  10.821 -0.0644 -0.0297  0.0954
21484W        W36615   9.028   6.521  11.298  0.0700 -0.2264 -0.3548
21485W        W36616  10.684   3.098   0.174 -0.3434 -0.2486  0.1897
21486W        W36617   9.376  13.722   4.955 -0.0290 -0.1733  0.0469
21487W        W36618  15.044  18.411  13.651 -0.0151 -0.4997  0.0376
21488W        W36619   5.786  10.587   5.485 -0.1551 -0.1244  0.0500
21489W        W36620  17.241  12.967  13.900  0.1003  0.1425 -0.1284
21490W        W36621  13.796  14.263   3.546 -0.3938  0.2153  0.0226
21491W        W36622   6.602  10.361   4.904 -0.0534 -0.1285  0.1577
21492W        W36623  10.820   6.395  10.730  0.1137  0.2304  0.0222
21493W        W36624   2.316  15.360   0.874 -0.1517  0.3428 -0.4495
21494W        W36625  11.944   9.752  11.150  0.1606  0.0339 -0.0207
21495W        W36626   5.557  13.657  13.206  0.1162 -0.0942  0.0720
21496W        W36627   9.078   1.208   5.454 -0.0463 -0.1621 -0.1252
21497W        W36628   3.617  17.908  13.955  0.2588  0.0605 -0.2041
21498W        W36629   6.218  12.770  12.610 -0.0844  0.1029  0.1711
21499W        W36630   7.790  13.293  10.949  0.5478 -0.1916 -0.0608
21500W        W36631   3.068   7.146   2.472  0.1428 -0.1096  0.0793
21501W        W36632   1.062   4.648  14.570 -0.0882  0.1624 -0.2343
21502W        W36633   0.381   7.692  12.217 -0.4721 -0.0666 -0.2263
21503W        W36634   7.806   9.476  14.918 -0.1205 -0.1593  0.1365
21504W        W36635   5.608   2.465   3.816  0.2109 -0.2969  0.2196
21505W        W36636  13.739  15.027   3.262 -0.0291 -0.1955 -0.1750
21506W        W36637  11.599   6.341   3.259 -0.0829  0.4060  0.4126
21507W        W36638   5.727  14.464  13.519 -0.1697 -0.0985 -0.2813
21508W        W36639   2.999  17.035   1.640  0.1641 -0.0941 -0.0041
21509W        W36640   1.294  17.491  13.959 -0.1147  0.0120 -0.1597
21510W        W36641   1.183   7.178  11.828 -0.0094  0.0132  0.0620
21511W        W36642   9.805   7.998  13.525  0.3598 -0.0699 -0.4074
21512W        W36643  16.028   9.632  12.861 -0.2421  0.1810  0.4803
21513W        W36644  17.043  11.987  12.655  0.3075  0.0783 -0.0427
21514W        W36645  10.256  14.441  12.905 -0.2746  0.0150  0.2304
21515W        W36646  14.595   6.190   0.041  0.0037  0.1505  0.0830
21516W        W36647  12.789  17.497  13.521  0.2289 -0.3217 -0.0739
21517W        W36648   5.508  12.526   4.920  0.0015 -0.1020 -0.0401
21518W        W36649   6.845   5.604  12.467 -0.0146  0.0245 -0.2726
21519W        W36650  15.529  17.112   3.535 -0.1491  0.1269  0.1286
21520W        W36651   0.194  13.634   4.370 -0.0492 -0.0810 -0.1669
21521W        W36652   9.467   9.164   4.394  0.5468  0.1362  0.0223
21522W        W36653  18.269  10.376   3.840 -0.1579  0.0132  0.1049
21523W        W36654  13.593   5.697  15.717  0.1263 -0.2636  0.0868
21524W        W36655  18.437   6.993   5.931 -0.3837  0.0063 -0.0067
21525W        W36656   5.660  11.874   2.914 -0.1193 -0.0267 -0.2450
21526W        W36657   9.564  17.875  11.992  0.1991  0.2309  0.0107
21527W        W36658  16.292   5.210   2.629 -0.0443 -0.2380  0.2457
21528W        W36659  10.597  18.509   2.437 -0.1495 -0.0709  0.1640
21529W        W36660   2.543   1.912   4.728  0.0437  0.1283  0.1716
21530W        W36661  18.283   7.958   0.014  0.1745 -0.0579  0.1621
21531W        W36662   8.525   3.097   1.786  0.2271  0.3537  0.3088
21532W        W36663   4.688   3.167  15.927  0.2267 -0.1662  0.0335
21533W        W36664  11.956  17.487  13.915 -0.0286 -0.0872 -0.0853
21534W        W36665  14.320   5.400   1.894 -0.2984  0.1992 -0.2303
21535W        W36666   8.629  15.511  12.409 -0.0509 -0.2466 -0.2623
21536W        W36667  15.070   8.150  10.869  0.1719  0.2254 -0.1176
21537W        W36668  15.266   9.748   3.028 -0.2859 -0.2993 -0.2172
21538W        W36669   4.564  10.087  14.270  0.0080  0.1534 -0.3274
21539W        W36670   1.910  15.176  14.236  0.1846 -0.1281 -0.1808
21540W        W36671  14.142  18.506  12.419 -0.1983  0.1433 -0.0506
21541W        W36672  13.480  10.674  10.627  0.1639  0.1464 -0.0990
21542W        W36673  17.542   7.174  11.669  0.0550  0.1113  0.1565
21543W        W36674   2.962   9.105  11.531  0.0371 -0.0365  0.2579
21544W        W36675  14.297  10.339   4.044 -0.1789  0.2623  0.0489
21545W        W36676   4.597   6.291   0.738  0.1052 -0.0020 -0.2913
21546W        W36677   5.539   1.236   4.700 -0.0073 -0.1506 -0.0701
21547W        W36678  10.166   8.146   0.923  0.2428 -0.1056  0.0385
21548W        W36679  11.474  14.930  15.860  0.0421 -0.0810 -0.0889
21549W        W36680   1.036   4.809  11.408  0.1944 -0.3095  0.0388
21550W        W36681  17.134   3.577  11.201 -0.1257 -0.1613 -0.1579
21551W        W36682  16.348   4.715   3.273  0.0720  0.0404  0.1359
21552W        W36683  14.744   0.196  12.842 -0.1278 -0.1210 -0.0537
21553W        W36684   1.807   8.806   0.305 -0.1964  0.3857 -0.0765
21554W        W36685  14.138   0.304   4.577  0.4122  0.1666 -0.1229
21555W        W36686  14.095  10.802  11.280 -0.1099 -0.0830 -0.0569
21556W        W36687  16.389  13.948   3.024 -0.1281  0.0650 -0.0645
21557W        W36688   9.339  15.600   1.708  0.1645 -0.0521 -0.3099
21558W        W36689  16.571   8.262   1.962 -0.2411 -0.1055  0.3214
21559W        W36690  12.578   4.632   0.035 -0.0637  0.2514 -0.4758
21560W        W36691   9.051  16.609   4.672  0.1166  0.1346 -0.1155
21561W        W36692  16.928   0.255  13.971 -0.2872 -0.2558 -0.2174
21562W        W36693  10.979  11.678   2.403  0.2205 -0.0616  0.0363
21563W        W36694  13.324  15.970  10.582  0.0194 -0.1534 -0.0179
21564W        W36695  14.756   3.848  12.269 -0.1073  0.1091  0.1993
21565W        W36696   9.256  15.481  14.605 -0.1689  0.3239 -0.3815
21566W        W36697  10.076  11.604   1.988 -0.2195  0.0816 -0.0763
21567W        W36698  16.412   6.308  15.795 -0.2363  0.0786 -0.2046
21568W        W36699   0.323   1.780  11.325 -0.1692 -0.2198  0.2560
21569W        W36700   7.306  11.895   2.039 -0.0245 -0.3023 -0.2672
21570W        W36701   5.367   9.824   1.853  0.3361 -0.1970  0.0343
21571W        W36702   4.563   4.401  15.438  0.1284 -0.0081 -0.0783
21572W        W36703  13.378   7.754   0.325  0.1432 -0.0372  0.1212
21573W        W36704  12.984  10.270  12.545 -0.0150  0.2285 -0.2703
21574W        W36705  10.340   7.637   1.006  0.2169  0.1940  0.1494
21575W        W36706   2.994   6.852   1.739 -0.1326 -0.0511 -0.0568
21576W        W36707   0.609   8.873   5.694 -0.3907  0.0040  0.1074
21577W        W36708  15.895  10.534  11.247 -0.0507 -0.1014  0.1241
21578W        W36709   2.255   8.071   0.034 -0.0624  0.2524  0.0142
21579W        W36710   0.959  17.865   3.887 -0.0381 -0.0300  0.1632
21580W        W36711   6.244   2.643  11.718  0.0602  0.2966 -0.1767
21581W        W36712   3.772   6.688   0.054 -0.1497  0.3969 -0.1468
21582W        W36713  16.577  12.153   4.385  0.5000 -0.0964 -0.1299
21583W        W36714   0.083   9.822  14.028 -0.2489  0.3355  0.0588
21584W        W36715  13.581   6.153   2.002  0.2342 -0.2098  0.2995
21585W        W36716  15.323  18.453   3.959  0.3328 -0.0109  0.0151
21586W        W36717  13.703   7.950  15.515  0.0067 -0.2498 -0.4748
21587W        W36718  13.852   3.813  15.793  0.0687  0.0796  0.0194
21588W        W36719   8.042   1.463   3.600  0.3168  0.2017  0.0421
21589W        W36720   3.934   0.612   3.794  0.1948  0.2007 -0.1221
21590W        W36721  12.982  17.715  14.210  0.3106 -0.1413  0.1629
21591W        W36722  16.378  14.056   0.237  0.0830 -0.3231 -0.0522
21592W        W36723  16.166  12.500   0.589  0.0493  0.2475  0.0565
21593W        W36724   5.154   7.356  14.792  0.2167 -0.2289 -0.1620
21594W        W36725  15.036  17.141  11.498  0.2745 -0.0288 -0.1602
21595W        W36726   7.024   4.030  14.080 -0.0933 -0.2798 -0.1972
21596W        W36727   3.316   7.703  13.118 -0.2564  0.0780  0.0070
21597W        W36728  13.278  18.400   0.832  0.1050 -0.2250 -0.1440
21598W        W36729  15.433   0.643   6.078 -0.4034  0.3733  0.1543
21599W        W36730   7.808   5.939   2.825  0.0503  0.0744  0.0457
21600W        W36731   3.786  15.280   0.593  0.2036  0.1289 -0.2897
21601W        W36732  14.435  13.320  12.538 -0.4468  0.1198  0.2399
21602W        W36733  11.291   2.329   1.202 -0.1224 -0.0598  0.1771
21603W        W36734  17.046   1.624   1.736  0.0522  0.0595 -0.3508
21604W        W36735  15.658   6.494   2.543  0.2410 -0.0163  0.1613
21605W        W36736   8.079  10.113  13.291  0.0748  0.0646 -0.4785
21606W        W36737  10.227  13.779   4.623 -0.1394  0.0746 -0.0456
21607W        W36738   9.381  14.491  13.996 -0.3518  0.0577  0.0048
21608W        W36739  12.555   1.807  12.087  0.0621  0.4206 -0.1788
21609W        W36740  12.675   4.841   0.572  0.1412  0.0952 -0.3227
21610W        W36741   5.169   0.077  13.110  0.4342 -0.0680 -0.1153
21611W        W36742  10.885  15.763  14.110  0.0423 -0.0111  0.1333
21612W        W36743  13.291  15.068  11.023 -0.3328 -0.0436 -0.1607
21613W        W36744   3.372   2.132   4.192 -0.1742  0.2328  0.0366
21614W        W36745  16.757   2.261   2.184  0.0868  0.0924  0.2094
21615W        W36746  11.166  14.556  15.565 -0.0023 -0.2166  0.0442
21616W        W36747  12.296   2.858   3.981  0.0279  0.0049  0.3066
21617W        W36748  15.194  14.079  15.072  0.1622  0.1022 -0.0651
21618W        W36749  15.306  11.425  13.968  0.1633 -0.2220 -0.0664
21619W        W36750  14.974   5.165  14.615  0.2718 -0.0522  0.1139
21620W        W36751   0.072   2.571   2.384  0.0257  0.0553 -0.2010
21621W        W36752  13.114   7.876   3.444  0.1245  0.1375 -0.2750
21622W        W36753   0.454  16.501   5.432  0.4232 -0.1594 -0.1437
21623W        W36754   0.072   8.323  10.881  0.0714  0.2951  0.1921
21624W        W36755   1.989   9.672   0.742 -0.0489  0.0607 -0.0460
21625W        W36756   1.184   1.134   3.170  0.1032  0.3148 -0.1527
21626W        W36757  15.503  10.131   0.665  0.0263  0.0071 -0.1304
21627W        W36758  12.956  14.079   3.427  0.4340 -0.1557  0.1057
21628W        W36759   9.871   5.164  15.849  0.1001 -0.1561 -0.0395
21629W        W36760   1.163  18.550  13.902  0.0998 -0.1428  0.0501
21630W        W36761  16.916   1.266   2.174  0.0132 -0.2195 -0.0103
21631W        W36762   4.118   5.365   1.325  0.1839  0.0104 -0.3682
21632W        W36763   5.156  12.235   0.820  0.2330 -0.3137  0.3121
21633W        W36764  11.713  17.938  13.518 -0.0878  0.5198  0.2282
21634W        W36765  16.603   5.498   0.113 -0.1750 -0.1532 -0.0503
21635W        W36766  16.032  18.010   6.297  0.2702  0.0691  0.2504
21636W        W36767  10.557  15.237   5.730  0.0218 -0.1013 -0.2407
21637W        W36768   9.290   0.967  15.403 -0.2543 -0.1572 -0.0682
21638W        W36769   3.709   7.483  10.908  0.3071  0.2402  0.2901
21639W        W36770  11.189   6.499   0.353 -0.1209  0.1281 -0.1539
21640W        W36771  11.305   9.963  13.584  0.0714 -0.1520 -0.0315
21641W        W36772   7.570   1.024   3.323  0.4021  0.0615  0.1368
21642W        W36773  12.675   0.945  10.843 -0.3402 -0.1682 -0.0792
21643W        W36774   8.925   5.314  15.771  0.1580  0.3392  0.2366
21644W        W36775   4.803   4.721   0.392  0.1544 -0.2129  0.0675
21645W        W36776  15.436  10.251   3.196 -0.1109 -0.0734 -0.2036
21646W        W36777  16.467   9.050   4.354  0.0938 -0.1002  0.1503
21647W        W36778   7.341   3.121   2.457 -0.1598 -0.2197  0.1329
21648W        W36779   7.551  10.792  15.025 -0.0895  0.2954  0.1697
21649W        W36780   6.268  16.229  11.378  0.0526  0.1253 -0.0165
21650W        W36781  18.308  15.647  14.568 -0.1836 -0.1826 -0.2844
21651W        W36782   4.519  13.154  13.364 -0.0095 -0.2069 -0.0740
21652W        W36783  13.845  12.793  13.120  0.1815 -0.2141  0.1885
21653W        W36784   0.161   1.500  11.710 -0.5958  0.1471  0.3008
21654W        W36785   2.291   6.110  15.344 -0.1311  0.2101  0.1730
21655W        W36786  17.697  18.529   0.827  0.2667 -0.2068 -0.0775
21656W        W36787  17.885  14.207  14.739 -0.0278 -0.0792 -0.0810
21657W        W36788  10.056  12.323  11.293 -0.0158 -0.0139 -0.3362
21658W        W36789  16.352   6.269   3.367  0.0458 -0.1701  0.0364
21659W        W36790   7.327   0.406  11.609 -0.0714  0.3019  0.1837
21660W        W36791   8.977  17.301  15.916  0.0291  0.1315 -0.0874
21661W        W36792  15.080   1.585   3.633  0.0520 -0.0809  0.0627
21662W        W36793   8.968  14.414   1.100  0.0244  0.3968  0.1324
21663W        W36794  12.110   7.939   3.173  0.0396  0.2508  0.0073
21664W        W36795   6.107   0.033   2.163 -0.1374  0.1764  0.1155
21665W        W36796   7.757   8.211   1.447  0.1939 -0.1001 -0.2865
21666W        W36797   6.764   5.875  13.837 -0.0241 -0.4799 -0.0514
21667W        W36798  12.939  13.987  13.527 -0.0959 -0.4564 -0.0765
21668W        W36799  17.439  10.724   6.384 -0.0974  0.1270  0.2015
21669W        W36800   6.562  17.763  15.365 -0.3031  0.0531 -0.2755
21670W        W36801   2.706   5.785   0.551 -0.0865  0.0189 -0.0646
21671W        W36802  12.970  18.428  12.486  0.0875 -0.2863  0.1850
21672W        W36803   4.919   4.398  15.092 -0.0073  0.1728  0.2895
21673W        W36804   1.876   2.298   5.293  0.3228  0.2393  0.0449
21674W        W36805  11.272   0.784   1.648  0.1285 -0.0552 -0.2353
21675W        W36806  17.681  13.629  12.345 -0.1115 -0.3177 -0.0585
21676W        W36807   4.800  10.789  11.184  0.1564 -0.1995  0.4812
21677W        W36808   7.476  13.766   1.247  0.1143 -0.0463 -0.0004
21678W        W36809  11.866   8.557  12.761  0.1070 -0.1215  0.2016
21679W        W36810   3.632  11.308  11.206 -0.0581 -0.0683 -0.1153
21680W        W36811  12.145  11.054   1.120 -0.1443 -0.1158  0.0436
21681W        W36812   9.824   2.141   5.296 -0.0325  0.5256 -0.3823
21682W        W36813   1.434   3.784   3.986  0.0751  0.0199 -0.0980
21683W        W36814   7.614  10.728  13.061 -0.1107  0.1791 -0.2964
21684W        W36815  14.935  17.965  12.826 -0.0042  0.0019 -0.0484
21685W        W36816  13.364   9.474   0.566  0.0968  0.3965  0.1914
21686W        W36817  15.768  17.044  12.256  0.1260 -0.0587 -0.1142
21687W        W36818  16.189  13.662  12.236  0.1121  0.0642  0.1425
21688W        W36819  15.274  11.419   2.398 -0.2183 -0.0547  0.1603
21689W        W36820   2.825   8.061   0.098  0.1536  0.1399  0.1462
21690W        W36821   9.150  10.586   1.176 -0.1519  0.1194 -0.2591
21691W        W36822  14.356   8.915  12.203 -0.0238  0.1023 -0.2335
21692W        W36823  11.710   5.360  12.619 -0.1515 -0.1919 -0.2349
21693W        W36824   4.056   1.039   4.751 -0.1348 -0.0335  0.0996
21694W        W36825  15.779   1.045  13.957  0.0896 -0.1011  0.1256
21695W        W36826  13.226   1.161   1.732  0.1132 -0.0631  0.2061
21696W        W36827   8.165  12.284  13.487  0.0060  0.0948  0.2706
21697W        W36828  10.385  16.061   2.447 -0.0594  0.1893  0.0772
21698W        W36829   4.534   2.749  12.469  0.1617 -0.1314 -0.3829
21699W        W36830  16.849  12.166   3.203 -0.1104  0.0231 -0.0405
21700W        W36831   0.459  11.890   5.682  0.2218 -0.1281  0.2440
21701W        W36832  12.148   7.691  13.080 -0.5434 -0.4243  0.0923
21702W        W36833   7.635   2.385   1.572 -0.0842 -0.1830  0.0492
21703W        W36834   5.921  13.440   2.311 -0.4481  0.2530  0.1118
21704W        W36835  13.848  17.714  11.679 -0.1150 -0.1518  0.0644
21705W        W36836  13.803   1.040   0.461 -0.2187  0.0168  0.1251
21706W        W36837   3.140   3.934  13.100  0.1400  0.1558  0.3176
21707W        W36838  15.845  17.788   0.244 -0.0309  0.2782 -0.2585
21708W        W36839   8.733  13.611  13.051  0.2310  0.0324 -0.3124
21709W        W36840   6.494   1.763  11.460  0.2703  0.0249 -0.2046
21710W        W36841   1.367   4.945  10.590  0.1422  0.2850  0.2694
21711W        W36842  10.157  13.779  13.569  0.0525  0.0891 -0.3550
21712W        W36843   4.371   5.081  14.841  0.0084 -0.1081  0.1462
21713W        W36844  10.205   2.618   5.150  0.1179 -0.2517  0.1854
21714W        W36845  10.592  12.363  11.158  0.1305 -0.4105 -0.2085
21715W        W36846  15.857   4.542   3.455  0.2357  0.0411  0.1156
21716W        W36847   5.519  10.023   2.570  0.3456 -0.0897  0.0184
21717W        W36848   8.355   8.749   0.246  0.1742 -0.0759 -0.1323
21718W        W36849  17.750  10.831   3.967  0.0230 -0.0354  0.1149
21719W        W36850   2.601   0.390   4.553 -0.0176  0.0015  0.2319
21720W        W36851  12.720  16.779   0.896 -0.0170 -0.0735 -0.2196
21721W        W36852   0.887  10.930   1.589  0.1315  0.1077  0.0467
21722W        W36853   1.384   1.976   0.229  0.0589  0.0335  0.0281
21723W        W36854   9.436   3.406   0.528  0.0935  0.0669 -0.2106
21724W        W36855   7.211  18.041  10.455  0.0107  0.0098 -0.1997
21725W        W36856   4.491   2.945   1.220 -0.2194 -0.2173  0.1514
21726W        W36857   5.384   2.955  14.924  0.1311  0.0799 -0.1704
21727W        W36858   1.437  18.139  14.519 -0.2713  0.0183  0.2544
21728W        W36859   8.049  14.411  13.595 -0.1633 -0.0291  0.1304
21729W        W36860  10.043  10.903  14.330 -0.0270  0.1718  0.4636
21730W        W36861   1.548  14.332  12.566  0.2646 -0.1881 -0.2827
21731W        W36862   0.046   9.727   1.586 -0.1210  0.2312 -0.3148
21732W        W36863   3.986   0.773   2.472 -0.2645  0.0175  0.0139
21733W        W36864   5.947   1.007  14.879 -0.2143 -0.1107  0.1234
21734W        W36865  12.145   2.132  14.828  0.2097 -0.2603  0.2070
21735W        W36866  13.712   9.169  15.135  0.0919 -0.2406 -0.0419
21736W        W36867  18.190  17.078  12.888  0.0197  0.2026 -0.0610
21737W        W36868   8.127   7.666  12.248  0.0080 -0.0366  0.2064
21738W        W36869   6.270  14.190   0.750  0.0555 -0.3010  0.0433
21739W        W36870  12.676   9.306  14.799 -0.1362  0.0594 -0.1587
21740W        W36871  12.065  17.774  12.836  0.1069 -0.3964  0.0102
21741W        W36872  10.016  13.742   4.172  0.0233  0.1408 -0.1748
21742W        W36873   8.381   8.119  14.538 -0.0798  0.0571  0.1895
21743W        W36874  13.576  14.459  14.620 -0.2689 -0.1796  0.1002
21744W        W36875  16.436  14.568   1.149  0.2462 -0.2659  0.1015
21745W        W36876   2.784  17.016  12.067  0.0376 -0.0801 -0.0236
21746W        W36877   3.274   4.368  13.834  0.0038 -0.0992  0.1655
21747W        W36878   4.174  14.990  11.804  0.1376 -0.1063  0.0343
21748W        W36879   6.437   0.200   4.279 -0.1044  0.4303  0.0047
21749W        W36880   4.503   0.724  13.998  0.0731 -0.0977 -0.1613
21750W        W36881  11.956   1.501   2.152  0.3241 -0.3222  0.4316
21751W        W36882  18.553  12.409   6.134 -0.0270 -0.1743 -0.0431
21752W        W36883  18.286  10.346  12.236 -0.0503  0.0771  0.0685
21753W        W36884   3.498  14.666   3.133 -0.0694 -0.0652  0.2593
21754W        W36885  13.885  11.672   5.774 -0.0776 -0.0211  0.1049
21755W        W36886   3.336  12.601  12.399 -0.3214  0.2542  0.0333
21756W        W36887   5.822   9.952  14.000 -0.0234  0.0429 -0.0769
21757W        W36888  17.019   2.191  13.399 -0.2776 -0.0480  0.0251
21758W        W36889  11.182  11.451  12.985  0.2551 -0.1865 -0.0379
21759W        W36890   3.228   1.969   5.925 -0.1405  0.0644 -0.1075
21760W        W36891  10.072   3.797  14.101  0.1757 -0.5395 -0.0376
21761W        W36892  11.238  16.354   4.697 -0.0524 -0.0790  0.2586
21762W        W36893   8.690   6.992   3.919 -0.0762 -0.0640 -0.1445
21763W        W36894   2.879   8.761   1.825 -0.3075 -0.1947 -0.2053
21764W        W36895   2.980  15.631   0.682 -0.1412  0.1626 -0.0782
21765W        W36896   0.986   3.833   1.504  0.2630 -0.0589  0.1547
21766W        W36897   8.933   7.603  12.518 -0.2387 -0.0335  0.0977
21767W        W36898   6.424  16.800   2.935 -0.4078 -0.0620 -0.0111
21768W        W36899   5.860  12.174   2.545  0.1782 -0.1016  0.0577
21769W        W36900   4.574   0.486  11.474  0.2135 -0.0273  0.2621
21770W        W36901  12.745  15.695  15.255 -0.0489 -0.1501 -0.0287
21771W        W36902   7.051   4.474   3.565  0.1227 -0.0103 -0.0214
21772W        W36903   2.197  15.942  14.983 -0.2091  0.1282 -0.1404
21773W        W36904  15.128   2.597   5.509  0.2151  0.2149  0.1696
21774W        W36905   3.847  11.216  15.133 -0.2197 -0.0039  0.1105
21775W        W36906   7.896  17.937  11.300 -0.4036  0.2256  0.3639
21776W        W36907   8.877   7.097  12.597 -0.2492  0.0236 -0.0296
21777W        W36908   1.702   3.755   2.284 -0.4038  0.0645  0.3094
21778W        W36909  18.469  16.460  11.296  0.0294 -0.0521 -0.1834
21779W        W36910   0.550  14.659  10.224  0.2202  0.0653  0.1054
21780W        W36911   1.940   0.557  10.231  0.0081  0.0681  0.0727
21781W        W36912  18.351   7.669   0.424 -0.1571 -0.3027  0.1554
21782W        W36913   1.208  17.652   0.736 -0.0250 -0.0093 -0.0406
21783W        W36914   6.099  13.031  11.996 -0.2789  0.2064  0.3556
21784W        W36915   0.954   4.868   3.798  0.1418 -0.1109  0.0572
21785W        W36916   3.424   5.152   5.087  0.1471 -0.0410  0.0929
21786W        W36917   5.320  18.109  13.945  0.0068  0.1545 -0.0043
21787W        W36918  11.506  12.492   3.628 -0.2624  0.0902  0.1615
21788W        W36919  14.646  10.897   1.331 -0.1200  0.1139 -0.0962
21789W        W36920  12.277  11.219   5.294 -0.1107  0.1214  0.1285
21790W        W36921   1.495  10.929  13.071  0.0212 -0.3101 -0.1198
21791W        W36922   4.150  17.646  11.879  0.0935  0.3231 -0.1131
21792W        W36923   5.564  16.880  11.119 -0.2626 -0.1294 -0.3251
21793W        W36924   6.488  12.028  10.722 -0.3762  0.1629  0.0192
21794W        W36925  11.285  14.890  11.815 -0.1617  0.1419 -0.0681
21795W        W36926  13.011  18.041  11.644  0.0870 -0.2069 -0.0699
21796W        W36927  16.208   3.593   2.369 -0.0470  0.2217 -0.0963
21797W        W36928   6.372   2.319   3.996 -0.3137 -0.0349  0.0714
21798W        W36929   7.218   3.445  11.161 -0.0116  0.1769  0.2981
21799W        W36930   1.010  13.427   3.418  0.1062 -0.1420 -0.1561
21800W        W36931  17.187   2.223  13.805  0.1901  0.0644  0.0467
21801W        W36932   6.646   8.632  14.331 -0.2528 -0.1858  0.2088
21802W        W36933  13.249  15.100   1.880  0.0438 -0.0827 -0.2724
21803W        W36934  11.370  14.982  15.403  0.3501 -0.0362 -0.2078
21804W        W36935   2.438   7.177  12.863 -0.0921 -0.1327  0.1919
21805W        W36936  10.289   3.338   2.264  0.1507 -0.0561 -0.3701
21806W        W36937  10.351   3.861   4.454 -0.0574 -0.3484 -0.1698
21807W        W36938  18.393   4.663  11.713 -0.1628  0.0236 -0.0049
21808W        W36939  17.538   6.725   2.954  0.0319  0.1397  0.4152
21809W        W36940  10.576   9.336  13.763 -0.0691 -0.1144  0.0870
21810W        W36941   9.652  14.005   3.856 -0.1507  0.0914  0.1729
21811W        W36942  15.591   1.969  11.505  0.1552  0.2855 -0.0523
21812W        W36943   9.281   8.682   2.626  0.5091 -0.2701  0.0304
21813W        W36944   2.181  12.670   1.901 -0.2674  0.0174  0.4181
21814W        W36945  11.202   9.634   2.372  0.0533 -0.0180  0.0758
21815W        W36946   0.360  14.667   2.162 -0.3712 -0.0575 -0.1289
21816W        W36947   6.390  12.737   1.316  0.0939 -0.0697 -0.0255
21817W        W36948   8.092   2.956   2.003  0.1478  0.1730 -0.1558
21818W        W36949   6.075  15.802  10.754  0.0508 -0.1232 -0.2868
21819W        W36950   8.381   4.568   3.918  0.1980 -0.1759  0.0865
21820W        W36951  14.973  17.786   5.015 -0.2960 -0.1559 -0.2556
21821W        W36952   7.977   7.423   2.472 -0.4789 -0.0041 -0.2424
21822W        W36953  14.262   7.104  12.413  0.0085 -0.2671 -0.2137
21823W        W36954   4.994   4.933  14.143 -0.0118 -0.0262 -0.3452
21824W        W36955  12.822  17.290  10.654  0.1240  0.3368 -0.3421
21825W        W36956   8.925   2.266   3.691  0.0808  0.4193 -0.0421
21826W        W36957  15.090  13.409  11.333 -0.0915 -0.2646  0.1322
21827W        W36958   3.849  16.341   3.541  0.4236  0.0025 -0.2656
21828W        W36959  16.748   2.780  12.075  0.1679 -0.1052 -0.1916
21829W        W36960  16.767  10.721  13.247  0.2041 -0.1863 -0.1841
21830W        W36961   3.156  14.950   2.837 -0.2306 -0.5299  0.0600
21831W        W36962  15.240   3.803  12.442  0.0969 -0.0309 -0.3097
21832W        W36963  10.440  13.273  10.135  0.0549  0.2962  0.2220
21833W        W36964  11.394  12.790  10.331  0.1137 -0.1566 -0.3695
21834W        W36965   6.831  10.171  14.483 -0.1023 -0.1063  0.0608
21835W        W36966   3.645  16.137   2.666  0.1274 -0.0515  0.0748
21836W        W36967   4.909   7.014   0.777 -0.2480  0.3641  0.0076
21837W        W36968   5.474  17.376  12.803  0.2332 -0.1840  0.1764
21838W        W36969   5.118  13.816   9.843  0.0225 -0.1282  0.3366
21839W        W36970   2.298  18.272   1.631  0.0598  0.2220 -0.0018
21840W        W36971  14.372   8.005  14.198 -0.2720  0.0850 -0.0508
21841W        W36972  14.872   2.099   2.895 -0.0701  0.0526 -0.0920
21842W        W36973   8.296  15.789   0.756  0.1787 -0.0790 -0.0085
21843W        W36974   2.236   5.435   0.023 -0.1463  0.2493  0.1615
21844W        W36975   6.574  11.066  13.911 -0.2030 -0.3803 -0.1779
21845W        W36976   2.209  12.075  13.657 -0.0423 -0.1147 -0.2393
21846W        W36977   3.836   4.856  13.378 -0.1387  0.0003 -0.0732
21847W        W36978  11.178  10.363   0.556  0.0392 -0.1347  0.1386
21848W        W36979  11.762   7.840  10.557 -0.0299  0.0208  0.0508
21849W        W36980  10.778  15.347   2.395 -0.1403  0.0574 -0.0299
21850W        W36981  16.369   8.127  10.663 -0.1326 -0.0286 -0.1059
21851W        W36982   9.347  13.121  14.524 -0.2766 -0.2931 -0.3195
21852W        W36983   9.438   5.777   3.287 -0.3640 -0.1271 -0.2281
21853W        W36984  18.065   7.936   3.042  0.3991 -0.0796  0.0040
21854W        W36985   0.295  10.441  14.159 -0.1744  0.1639  0.1810
21855W        W36986   4.819   3.087   0.749 -0.1119 -0.1960  0.1199
21856W        W36987   4.737  12.776   0.225 -0.0006  0.0299  0.1739
21857W        W36988   7.655  13.799   0.628 -0.0254 -0.2576 -0.0580
21858W        W36989  15.772   6.531  14.513 -0.0288 -0.3223  0.1407
21859W        W36990   9.262   7.501   2.033 -0.0468 -0.0701 -0.0280
21860W        W36991   8.125   5.105  11.030 -0.1005  0.1371  0.4280
21861W        W36992   8.600  12.532  11.266  0.1004  0.0348  0.1758
21862W        W36993   1.405  15.279  11.898 -0.0328 -0.2358  0.2568
21863W        W36994   0.993  12.435   4.029 -0.0785 -0.1195 -0.2073
21864W        W36995  16.858   3.731   1.901  0.0809 -0.0047 -0.1802
21865W        W36996   1.924   3.733  14.202  0.0148  0.1915 -0.2115
21866W        W36997   5.605   3.033  10.725  0.3468  0.3344  0.2133
21867W        W36998   8.640  11.541   2.034  0.1919 -0.3355 -0.0935
21868W        W36999   3.578  15.961  14.055 -0.0307 -0.4075  0.0585
21869W        W37000   5.441   4.140  11.641  0.2554  0.1908  0.0401
21870W        W37001   2.435   0.683  13.702  0.1143  0.3330  0.0672
21871W        W37002   7.429   1.398  14.777 -0.0897 -0.1225  0.2202
21872W        W37003  12.491  11.023  13.383  0.1767 -0.1106 -0.0605
21873W        W37004  16.608   5.993  13.598 -0.0585 -0.2430 -0.2598
21874W        W37005   3.872  15.857   3.537 -0.0445 -0.1231 -0.1443
21875W        W37006   0.906   9.936  13.228  0.0609  0.0286 -0.0854
21876W        W37007   4.565  16.410   4.365  0.3362  0.0716 -0.2592
21877W        W37008  13.604   6.600  12.994  0.1009  0.0325 -0.0253
21878W        W37009   7.236  12.531  14.994  0.0522 -0.0629  0.1610
21879W        W37010   2.682   5.072   3.961 -0.0329 -0.1220  0.2315
21880W        W37011  11.945   9.432  15.922  0.0890 -0.0937 -0.2648
21881W        W37012  18.119  15.562   1.914 -0.0204  0.1207 -0.1724
21882W        W37013   9.749   4.195  14.078 -0.1481 -0.1980 -0.1075
21883W        W37014  18.323  12.465  13.115  0.1131 -0.2025  0.0477
21884W        W37015  13.952   3.496   1.393 -0.2956 -0.3252  0.0649
21885W        W37016   9.698   0.006   1.370 -0.1316  0.0439  0.2838
21886W        W37017   3.958   5.279   3.596 -0.1744  0.0400  0.0399
21887W        W37018   7.653  15.688  10.912 -0.1905 -0.2248 -0.3988
21888W        W37019   6.344   6.012  13.514 -0.1188  0.5036 -0.0458
21889W        W37020  11.136  11.781  15.307 -0.0071 -0.4303  0.0401
21890W        W37021   6.581   5.007  12.982  0.2946  0.0319 -0.1473
21891W        W37022   0.630  16.432  10.645  0.1314  0.4806  0.1357
21892W        W37023   2.226   8.102   5.018 -0.1470 -0.0292 -0.0479
21893W        W37024   4.082   5.203   3.078  0.1355  0.3576  0.0308
21894W        W37025  12.480   3.818   3.071 -0.1719 -0.1047  0.3314
21895W        W37026   9.651   9.400  15.165 -0.1017 -0.2228  0.2731
21896W        W37027   6.482   3.656   3.643 -0.2983  0.0107 -0.1287
21897W        W37028  17.344  11.257   1.735  0.3685  0.1986  0.2412
21898W        W37029  13.283  10.793   1.498  0.0028 -0.2319  0.1636
21899W        W37030   5.533  11.128  14.820 -0.0908 -0.1137 -0.2842
21900W        W37031   7.419   1.112  15.702  0.2493  0.2622 -0.1220
21901W        W37032   7.006   1.765  10.352 -0.0574 -0.1776 -0.0904
21902W        W37033  16.946   2.347  14.205 -0.4016  0.1434 -0.3136
21903W        W37034   9.303  14.709  12.724  0.0369  0.3332 -0.0823
21904W        W37035   2.334  16.124  14.476  0.2910 -0.0753  0.0628
21905W        W37036   5.153   9.892   2.871  0.2747 -0.2284  0.0516
21906W        W37037   9.180  10.488  13.920 -0.3423  0.3129 -0.0135
21907W        W37038  18.234  12.390   0.973  0.0254 -0.3764  0.0070
21908W        W37039  18.106  17.803   4.537  0.0596 -0.1498 -0.0091
21909W        W37040   3.002   7.748   3.819  0.1934 -0.0048 -0.0943
21910W        W37041   5.086   2.675   3.865 -0.0993  0.4414  0.2418
21911W        W37042   5.522  15.878  13.132  0.1663 -0.1205 -0.0860
21912W        W37043  16.166   5.556   2.248 -0.0107  0.3521  0.1069
21913W        W37044   5.312  13.828   2.945  0.2627  0.0290  0.2698
21914W        W37045   8.676   6.447   2.891  0.1996 -0.1643  0.1314
21915W        W37046  12.127  17.231   3.198 -0.4413 -0.0154 -0.3312
21916W        W37047  11.919   1.136  12.038  0.0055  0.0848  0.1482
21917W        W37048  14.519   0.803  10.884  0.0987 -0.0248 -0.6410
21918W        W37049   3.633  11.397   3.091  0.0480  0.2213  0.0298
21919W        W37050   7.509  16.349  12.407  0.0647  0.1011  0.0361
21920W        W37051  10.754   9.827   5.063  0.2108  0.2543 -0.0022
21921W        W37052   6.859  12.657   5.185  0.0987 -0.2744  0.8751
21922W        W37053   9.659  15.777   2.088  0.0934 -0.0165 -0.1578
21923W        W37054   3.885  14.640   2.784 -0.2774 -0.1340 -0.1995
21924W        W37055   4.912  14.864  14.481  0.1276 -0.0176  0.0988
21925W        W37056  17.486   1.601   4.676  0.1211  0.2819 -0.0848
21926W        W37057   9.533   6.111   1.991 -0.1117 -0.1288  0.1391
21927W        W37058  15.516   3.988  11.848  0.1385  0.0034  0.2022
21928W        W37059   0.555   6.315   2.075  0.3912  0.1044  0.1314
21929W        W37060  12.652  12.547  12.766  0.1762 -0.2636 -0.1341
21930W        W37061  12.284  18.485  12.323 -0.1445  0.0094 -0.2113
21931W        W37062   6.815   6.228   4.478 -0.2060 -0.1362 -0.1386
21932W        W37063   7.290   4.028   4.305  0.2495  0.2146  0.3378
21933W        W37064   1.999   0.667   2.243 -0.1378 -0.1184 -0.2470
21934W        W37065   5.787   7.350   2.204  0.1024  0.1392  0.0448
21935W        W37066   6.024  16.751  13.188  0.0859  0.0337 -0.0096
21936W        W37067  17.003   1.262   5.827  0.0004  0.0567  0.3219
21937W        W37068   7.442   0.376  15.008  0.0971 -0.0883  0.1887
21938W        W37069  13.432  15.310  15.312 -0.2804 -0.0037 -0.3390
21939W        W37070  14.759  15.815  15.385 -0.0124  0.1386  0.0870
21940W        W37071   7.395  16.223  14.377 -0.1061  0.2355  0.0458
21941W        W37072   0.395  10.776  13.121 -0.3696  0.1801  0.0732
21942W        W37073   2.904  14.890  14.483 -0.0695  0.2251 -0.0695
21943W        W37074  16.604  13.487   1.430 -0.0847 -0.3556 -0.1282
21944W        W37075   1.842   9.427   5.237  0.2652 -0.2620 -0.2860
21945W        W37076   2.836   5.573   3.649 -0.3688  0.3087  0.3758
21946W        W37077  14.181   4.399   1.337 -0.0714 -0.0000 -0.2248
21947W        W37078  16.275   0.958   4.822 -0.3422  0.1998  0.0519
21948W        W37079  10.354  10.610   0.339  0.3515  0.0963 -0.0878
21949W        W37080   6.871   3.939  14.601 -0.1573  0.0371 -0.2720
21950W        W37081  13.822  18.265  12.812  0.2099 -0.2228 -0.0052
21951W        W37082   0.479  10.623   3.556 -0.1604 -0.0704  0.4023
21952W        W37083  16.239   0.006   4.518  0.1346 -0.0778 -0.0598
21953W        W37084  10.744   7.328   0.737 -0.1570 -0.2832  0.1685
21954W        W37085   6.551  10.612  14.176 -0.0262 -0.0660 -0.2131
21955W        W37086   9.620  10.266  14.141 -0.1683 -0.1422 -0.2857
21956W        W37087  11.692   5.651   9.542 -0.0857  0.0772  0.1557
21957W        W37088  17.182  17.926  12.827  0.1150 -0.2795 -0.0563
21958W        W37089   1.232   8.059  15.842  0.4071 -0.2030  0.4548
21959W        W37090  13.410  10.076  15.801  0.0637 -0.1753 -0.1741
21960W        W37091  15.003  17.860  13.360 -0.0342 -0.2493 -0.1219
21961W        W37092  16.122   8.158  11.611 -0.3039 -0.0282 -0.0362
21962W        W37093   0.492  18.472  14.917  0.0590  0.0808 -0.3241
21963W        W37094   0.249  17.387   5.037  0.2835 -0.0525  0.0690
21964W        W37095  18.238  14.842   3.917 -0.1711  0.0787 -0.1276
21965W        W37096  12.434   4.589   2.266 -0.0799 -0.1601 -0.1410
21966W        W37097  10.550  15.196  10.561  0.0932  0.2397 -0.0405
21967W        W37098   4.327  12.252   3.960 -0.0461 -0.1240 -0.1340
21968W        W37099  15.458   2.460   4.125 -0.1157 -0.2788 -0.1956
21969W        W37100   3.885   2.835  11.203 -0.4589  0.0448 -0.0193
21970W        W37101  17.343   5.193   1.948 -0.2506  0.0014 -0.2823
21971W        W37102  18.219   5.668   1.218  0.0218 -0.0067  0.0224
21972W        W37103  10.500   1.474  11.367 -0.0210 -0.5216  0.1926
21973W        W37104  17.668  18.235  13.513 -0.3172 -0.1540  0.1752
21974W        W37105   0.718  11.682   3.333  0.0380 -0.0624 -0.3663
21975W        W37106  15.486  15.369  15.609 -0.0478  0.3409 -0.0197
21976W        W37107  13.741   0.895   2.949  0.4148  0.3349 -0.0533
21977W        W37108  14.422   4.856   1.312 -0.2231  0.0977  0.2281
21978W        W37109   3.134  12.612  14.111 -0.0030 -0.2154 -0.0261
21979W        W37110  18.090   8.291   1.681  0.1748  0.0697 -0.1192
21980W        W37111  11.067   0.939  12.731  0.3985  0.1262 -0.0299
21981W        W37112  12.434   7.545  11.532 -0.1238  0.2813  0.3147
21982W        W37113   7.876   1.693  13.855 -0.0816 -0.0909  0.3200
21983W        W37114   4.653   5.872   5.330 -0.2229  0.1544 -0.2038
21984W        W37115   5.570   8.819   3.443  0.1389 -0.2410 -0.0705
21985W        W37116  15.127  17.042   3.240  0.1032  0.1581  0.2117
21986W        W37117   9.649   0.738   0.660 -0.1134  0.2437  0.2556
21987W        W37118  12.093   3.734   0.814  0.2357  0.0454 -0.0387
21988W        W37119  11.475   9.743   0.044 -0.0512  0.1502  0.2376
21989W        W37120   6.946  17.048  14.818  0.2972  0.1999  0.2157
21990W        W37121  13.331   1.961   4.729  0.0210 -0.1322 -0.0098
21991W        W37122  12.935   6.844   1.920 -0.1121  0.1291 -0.0895
21992W        W37123  10.230   9.082  12.530  0.4247  0.0422  0.1889
21993W        W37124   7.798  13.546   2.959 -0.0620  0.2292 -0.0017
21994W        W37125   7.958   2.702  15.632 -0.1939 -0.2747  0.1400
21995W        W37126   3.468   9.302   3.459  0.0840 -0.2741  0.2370
21996W        W37127   9.186   0.895   2.417 -0.1002 -0.0527  0.0812
21997W        W37128   4.613  18.394  10.805 -0.1923  0.2093 -0.2029
21998W        W37129   8.925   2.099  13.369  0.1296 -0.0512  0.0309
21999W        W37130   5.065   4.601   1.222 -0.0229  0.0211 -0.0014
22000W        W37131  17.623  17.579   0.068  0.1618  0.1411  0.2018
22001W        W37132  15.661   5.052  12.588  0.0704  0.0006 -0.3266
22002W        W37133   2.762   3.983   5.183 -0.3201 -0.0903 -0.1662
22003W        W37134   6.594  10.443  13.330 -0.2726  0.0760 -0.0040
22004W        W37135  13.452   7.049  12.635  0.0303  0.0599  0.1999
22005W        W37136   4.625  10.577   1.570  0.3377  0.0682 -0.0694
22006W        W37137  14.621  10.833  14.528 -0.0564 -0.1378  0.2361
22007W        W37138  10.048   7.789   4.313 -0.0381  0.0551  0.0584
22008W        W37139   4.956   1.915   4.619  0.1540 -0.0902 -0.1834
22009W        W37140  12.656  13.264   4.314 -0.1958 -0.2901 -0.2831
22010W        W37141   4.194   7.049   3.058 -0.1431 -0.1585  0.3796
22011W        W37142   5.479   6.244   5.553  0.1149  0.0795  0.0639
22012W        W37143   8.964   4.808   3.428 -0.2381  0.0571 -0.2509
22013W        W37144   7.741   7.041   5.141 -0.3323 -0.0627 -0.0183
22014W        W37145   7.713  13.814   2.526 -0.0771 -0.1211 -0.3172
22015W        W37146   7.635  15.313  11.268 -0.0921 -0.1877 -0.2694
22016W        W37147  13.293  16.589   3.432 -0.1236  0.0126 -0.0587
22017W        W37148   0.807   2.560  11.798  0.0033 -0.1034 -0.0666
22018W        W37149  13.371   6.437  15.110 -0.2592 -0.3793 -0.2730
22019W        W37150   8.295  12.304  13.028  0.0318 -0.1047  0.0165
22020W        W37151  14.397  11.259   1.593 -0.0916  0.1838 -0.1761
22021W        W37152   3.103   2.389   5.309 -0.3437 -0.1305 -0.0842
22022W        W37153  18.157  14.445  12.461 -0.2750 -0.3082  0.0051
22023W        W37154   3.783   1.742   2.408 -0.1967  0.1972  0.2759
22024W        W37155   9.716  14.404  12.719  0.1698  0.2511  0.4137
22025W        W37156  11.406  11.712   0.781 -0.2686  0.3275  0.0646
22026W        W37157  15.959   8.294   1.297  0.1737  0.2175 -0.0437
22027W        W37158  11.445  18.253   3.690  0.0109  0.2038  0.0021
22028W        W37159   3.601   8.471   0.206  0.0807 -0.0415  0.2448
22029W        W37160  12.483  15.468   4.915  0.5679  0.0576  0.1428
22030W        W37161   0.056   9.319   3.630 -0.3075  0.2478  0.2132
22031W        W37162   7.771  15.266  14.088  0.0395 -0.0074  0.0208
22032W        W37163   0.051  13.522  12.931 -0.3180 -0.1512 -0.0630
22033W        W37164  11.019   8.259   0.495 -0.1394  0.0717 -0.1268
22034W        W37165  14.152  13.605   4.219  0.2954 -0.4516  0.1321
22035W        W37166  18.380  16.053   4.760 -0.2274 -0.1948 -0.1434
22036W        W37167   2.353   1.580  10.213  0.1548  0.1081  0.2978
22037W        W37168  16.664  16.863   0.698  0.0940  0.2835 -0.4073
22038W        W37169   9.328   1.370  13.773 -0.1799 -0.1091 -0.0271
22039W        W37170  12.684  18.001  12.649 -0.1701 -0.0582  0.4871
22040W        W37171   9.145   1.094  14.220  0.2529 -0.2090 -0.4652
22041W        W37172  11.006  18.327  10.625  0.0617 -0.0547 -0.1152
22042W        W37173  13.953   8.294   0.270 -0.1372 -0.1199 -0.0031
22043W        W37174   5.911  15.389   4.637 -0.0297  0.1976 -0.1633
22044W        W37175  10.626   9.645  11.214 -0.0518 -0.0789 -0.3375
22045W        W37176  12.727  13.710  11.999  0.0444  0.2057  0.1682
22046W        W37177  15.730   0.890   3.110  0.0255 -0.1929 -0.0167
22047W        W37178   4.776   9.910  15.278  0.1536 -0.0103 -0.3427
22048W        W37179   8.177  13.304   3.720  0.0550  0.3166  0.1144
22049W        W37180  12.120   0.732   3.721  0.0563 -0.0263  0.2686
22050W        W37181   9.549  12.128   3.034  0.3579 -0.0043 -0.2579
22051W        W37182  18.003  13.049  11.536  0.0382 -0.1316 -0.2359
22052W        W37183   4.395  14.463   1.909  0.3223 -0.0879  0.3900
22053W        W37184   8.005   4.814  12.208  0.1065  0.1758 -0.2759
22054W        W37185   2.020   7.845   2.394 -0.1097 -0.3155  0.0116
22055W        W37186  11.636  11.911   3.604 -0.1500 -0.0508 -0.0716
22056W        W37187   9.068  17.287   4.554 -0.0194 -0.0368  0.0625
22057W        W37188   4.399  13.181   4.546  0.0894  0.0509 -0.0579
22058W        W37189  12.702  18.207  12.131 -0.1274  0.3040 -0.1434
22059W        W37190  14.768  11.119   4.194 -0.1337 -0.0439 -0.0740
22060W        W37191  18.540   4.343   1.910  0.3026  0.1115  0.0923
22061W        W37192  15.672  16.612  12.678 -0.2225  0.0412  0.0955
22062W        W37193  16.096  15.556   2.156  0.2523  0.1183 -0.2359
22063W        W37194   5.259  14.922  14.876  0.2270  0.1830 -0.1906
22064W        W37195   9.876  18.429   4.062 -0.1138 -0.1685  0.1277
22065W        W37196   5.710  12.217   1.611  0.2532 -0.1672 -0.0891
22066W        W37197   8.994   6.552   3.282  0.0438 -0.0084  0.0149
22067W        W37198   3.854  11.138   0.919  0.1087 -0.1257  0.0647
22068W        W37199  12.024  10.095   3.169 -0.3529  0.0941 -0.2059
22069W        W37200   0.755  14.944  10.556 -0.1275 -0.0369  0.0252
22070W        W37201  17.384   9.887   3.749  0.3558  0.2871  0.1079
22071W        W37202   7.891   2.961  11.643 -0.4417  0.1850  0.0459
22072W        W37203  15.795   0.768  14.360  0.1332 -0.0088  0.3135
22073W        W37204   3.316   3.919   0.945 -0.1511 -0.3595 -0.1324
22074W        W37205  13.008   2.120  12.591 -0.4928 -0.0701  0.2678
22075W        W37206  13.322  14.739  12.573  0.3718  0.1472  0.0646
22076W        W37207   9.667  11.294   2.102  0.3091 -0.3337  0.0076
22077W        W37208   4.578   9.982  11.575 -0.1520  0.1025 -0.0534
22078W        W37209  10.244  14.136  10.099  0.1833 -0.2138 -0.0948
22079W        W37210   5.455  12.533   2.531  0.4197 -0.2049 -0.3513
22080W        W37211   6.300  11.258   2.207 -0.1613  0.1992 -0.0739
22081W        W37212  11.444   4.669  12.954 -0.1573  0.0943 -0.0354
22082W        W37213  13.180   6.909   2.904 -0.2546  0.0790 -0.0860
22083W        W37214   1.501   5.513  12.987  0.0227  0.0276 -0.0870
22084W        W37215   9.236  12.228   4.546 -0.2005 -0.0244  0.0774
22085W        W37216  10.120   9.101  11.946 -0.1270 -0.1597 -0.2291
22086W        W37217   2.688  16.211  11.249  0.0294  0.0653  0.1042
22087W        W37218  17.822  17.780   1.891 -0.1447 -0.1654 -0.2273
22088W        W37219  14.912  17.007   3.811 -0.1599 -0.2891 -0.0479
22089W        W37220  11.026   8.632   2.992 -0.0977 -0.0540 -0.0512
22090W        W37221   0.918  17.108  13.864 -0.1549 -0.0397 -0.2878
22091W        W37222   4.674   9.858   2.590 -0.0901 -0.4446  0.1122
22092W        W37223  10.388  15.040  15.390  0.0267  0.0088  0.2313
22093W        W37224   4.295   2.414  13.306 -0.0102  0.1121  0.3305
22094W        W37225  13.217   8.655   6.410 -0.1190 -0.0035 -0.1012
22095W        W37226  10.770   9.166  12.556  0.1189 -0.0864  0.0913
22096W        W37227   9.333   6.239   3.517 -0.1108  0.3882  0.1078
22097W        W37228   1.799  16.179  13.011  0.2307  0.0086 -0.4409
22098W        W37229   1.088  15.270   2.911 -0.1237 -0.0104 -0.0653
22099W        W37230  10.346  17.851  12.661  0.0785 -0.0340  0.0633
22100W        W37231   3.353  18.548  14.489 -0.0585 -0.1253  0.3125
22101W        W37232   9.473   8.023  15.602 -0.1161  0.2543 -0.0432
22102W        W37233   2.294  12.602  15.473 -0.0035  0.4006  0.3039
22103W        W37234   7.814   4.448  10.002  0.2008 -0.3704 -0.0265
22104W        W37235   9.835  12.804  11.437 -0.0931  0.0894  0.4529
22105W        W37236  13.456  17.673  11.986 -0.2053  0.1702 -0.2228
22106W        W37237   9.238  11.227   1.865 -0.0753 -0.0463 -0.1749
22107W        W37238   4.080   5.985   2.966  0.2000 -0.0029 -0.1044
22108W        W37239   7.560   4.047  14.884 -0.1680 -0.3393 -0.0712
22109W        W37240  11.385   4.719   6.050 -0.1167  0.1903  0.1309
22110W        W37241  13.394  14.902  14.852  0.4271  0.2667 -0.0408
22111W        W37242   5.061  13.737  13.506 -0.2912  0.1398  0.0873
22112W        W37243   8.385  15.121  12.774 -0.2963 -0.0476  0.1309
22113W        W37244  16.879  17.382  11.193  0.1940 -0.2984 -0.0688
22114W        W37245   4.591  13.436  15.199 -0.1989 -0.1604 -0.1339
22115W        W37246   1.077   4.203   0.282 -0.1726  0.0717  0.0419
22116W        W37247   8.391  11.299  13.083 -0.2673 -0.0272 -0.1723
22117W        W37248  15.663  10.968   2.977  0.1531 -0.0112  0.0118
22118W        W37249   1.577   7.819   2.552  0.2059  0.2811 -0.3516
22119W        W37250   6.509  16.094  11.821 -0.1579 -0.1939 -0.3619
22120W        W37251  11.366   6.665  12.677 -0.1819  0.1149  0.0744
22121W        W37252   8.051  15.253   5.314 -0.1143  0.2367  0.0903
22122W        W37253  17.308  17.725  14.722  0.0443 -0.1417 -0.3521
22123W        W37254  16.156  18.497   2.401  0.0390  0.1079 -0.0854
22124W        W37255   6.727   4.355   9.718 -0.2659  0.0589  0.1428
22125W        W37256  14.240   8.555  15.085  0.0377  0.0186  0.0340
22126W        W37257   3.895   7.134  14.362 -0.3195 -0.4376 -0.1875
22127W        W37258  10.557   9.555   4.382 -0.2942  0.1047 -0.1355
22128W        W37259  17.052  12.067   4.260 -0.1854 -0.1163 -0.2570
22129W        W37260  14.905   3.316  11.816  0.0523 -0.0075 -0.3991
22130W        W37261   8.666   1.560  12.727  0.5269  0.1168 -0.2012
22131W        W37262  11.214   2.955   0.267 -0.0172 -0.2600  0.1708
22132W        W37263  13.737  17.213   2.169 -0.1414 -0.0007 -0.0573
22133W        W37264   5.931  17.395  14.798 -0.5269 -0.1456  0.0545
22134W        W37265  15.782   4.211   4.972  0.1897  0.0549  0.1177
22135W        W37266  15.694   5.589  14.889  0.0429  0.0650  0.0931
22136W        W37267  10.384  16.347  11.292 -0.2657 -0.0989  0.1091
22137W        W37268   1.124  14.581  12.548  0.1814  0.2786  0.4388
22138W        W37269   6.299   6.881   2.051  0.0984  0.2368  0.1106
22139W        W37270  10.609   2.132  12.076  0.3079 -0.1479  0.1131
22140W        W37271  18.440  17.107   4.722 -0.3117 -0.3247 -0.2213
22141W        W37272  10.990  12.322  15.744  0.3140  0.3362  0.4674
22142W        W37273   7.196   7.248  15.707  0.0939  0.0832 -0.2766
22143W        W37274  17.669   9.012  13.807 -0.1370  0.2164  0.0416
22144W        W37275   0.909  12.167   1.626 -0.0329 -0.3409 -0.0202
22145W        W37276   9.772  11.981  11.010  0.1054  0.0239 -0.0023
22146W        W37277   2.687  16.913   9.881  0.1782 -0.0633  0.2242
22147W        W37278  13.691  12.789  12.657  0.2685  0.0689  0.2053
22148W        W37279  16.622  17.629   0.870  0.0880  0.2170 -0.1371
22149W        W37280  17.699  14.328   1.628  0.1432  0.0075  0.1467
22150W        W37281   7.210   9.059  14.398  0.0461 -0.0168 -0.1601
22151W        W37282   8.458   5.220  15.497 -0.0204  0.1456  0.0082
22152W        W37283  17.618   1.561  11.346 -0.0284 -0.0553 -0.0142
22153W        W37284   7.763   3.671  13.090 -0.0376  0.1246  0.3370
22154W        W37285   8.760   9.624   5.230  0.0854  0.0900  0.1362
22155W        W37286   7.362   2.721   1.066  0.2485 -0.0073  0.1236
22156W        W37287   7.065  10.531   4.003  0.1085  0.1189  0.3860
22157W        W37288   4.656  16.059   1.728 -0.2791  0.0103 -0.3720
22158W        W37289  10.312   9.648   4.798  0.3067 -0.1515  0.1793
22159W        W37290   2.484  16.242   1.290 -0.2227  0.0011  0.0399
22160W        W37291  18.243  15.303   1.397 -0.0385  0.0975  0.0542
22161W        W37292   0.828   7.413  10.134  0.3430 -0.2280 -0.0262
22162W        W37293   3.879  14.056  14.130 -0.5390  0.1399  0.3082
22163W        W37294   9.307  14.278   4.026  0.2709  0.1704 -0.0497
22164W        W37295   6.578   7.192   2.371 -0.1374 -0.1305 -0.2505
22165W        W37296   7.731   7.436  14.760 -0.1027  0.0356  0.1883
22166W        W37297  14.344   3.190   3.524  0.1464 -0.0544  0.1773
22167W        W37298  17.677   0.031   2.959 -0.0986 -0.2039 -0.2330
22168W        W37299   6.601   6.704   4.842  0.1281 -0.1353  0.0347
22169W        W37300  10.437  17.709   3.421  0.1159  0.1834  0.1942
22170W        W37301  10.441  14.091  10.551  0.0605  0.1792 -0.0282
22171W        W37302   3.640  11.972   0.693 -0.1309  0.0811  0.3147
22172W        W37303   1.486   9.216  11.456  0.2636 -0.2500 -0.3032
22173W        W37304   7.626  14.815   4.757 -0.1465 -0.0766  0.1791
22174W        W37305  13.955  12.881  14.437 -0.0435  0.2372  0.1126
22175W        W37306  12.286   8.056  11.716  0.1239  0.3129  0.1282
22176W        W37307  10.703  10.417  13.962  0.1063  0.1703  0.1385
22177W        W37308  18.169   0.925   0.723  0.0896 -0.0236 -0.1450
22178W        W37309   8.095  18.072  10.857 -0.1863 -0.2132  0.4446
22179W        W37310  11.491  17.712  15.665  0.0780  0.2804 -0.2043
22180W        W37311  15.803  18.398   4.746 -0.4342  0.0388 -0.0286
22181W        W37312   3.533   6.587   5.029  0.2813  0.3786  0.2617
22182W        W37313  14.914  14.071   0.082 -0.1287  0.0781  0.0453
22183W        W37314  17.540  12.522  14.021  0.1505 -0.0329 -0.1781
22184W        W37315   6.183  10.669  13.116  0.2834  0.1203  0.1967
22185W        W37316   2.062  16.978  15.569  0.1779 -0.0914 -0.0199
22186W        W37317   2.289  17.375   4.205  0.2545 -0.0075 -0.3330
22187W        W37318  10.698   3.583   0.820 -0.0520 -0.0987 -0.1344
22188W        W37319  18.550  14.240   5.296 -0.1954 -0.3044  0.0143
22189W        W37320   5.120   8.851  13.787 -0.0853  0.4363 -0.3390
22190W        W37321   9.636  16.570  12.394 -0.1327  0.1451  0.0439
22191W        W37322   3.529  11.368   1.814 -0.0317 -0.0693  0.2701
22192W        W37323   4.205   8.108  14.916  0.0677 -0.1591 -0.2051
22193W        W37324   4.035   3.152  12.902 -0.1878  0.0290 -0.2335
22194W        W37325  13.734   4.320   4.914  0.1731  0.1165  0.1309
22195W        W37326   8.764   5.130   2.069  0.0035 -0.0819 -0.3327
22196W        W37327  15.546  11.432   0.098  0.2561  0.1351 -0.2896
22197W        W37328   0.617  14.774   3.033  0.3650  0.2190  0.0487
22198W        W37329   6.343   3.005  13.242  0.1010  0.0213 -0.0402
22199W        W37330  17.280  12.989   1.503  0.0796  0.1632  0.1478
22200W        W37331   8.839  14.196   2.834 -0.3755  0.1268 -0.0160
22201W        W37332   4.559   1.436   4.243  0.0999 -0.0171  0.1899
22202W        W37333   3.746   5.701   0.480  0.0717 -0.0644  0.5620
22203W        W37334  18.170   1.821  12.531  0.1474  0.0668  0.1964
22204W        W37335   4.909   0.999   0.377  0.3149  0.3036 -0.1798
22205W        W37336  18.568   7.305   1.416 -0.0119 -0.2789  0.2758
22206W        W37337   7.053   0.064  12.816  0.4022  0.0979  0.1843
22207W        W37338  10.567   3.277  12.748 -0.1373 -0.1298 -0.0287
22208W        W37339   8.713   9.615   2.010  0.0119  0.3994 -0.2040
22209W        W37340   7.869   0.392  14.678 -0.1140 -0.0434  0.3559
22210W        W37341  15.896   2.362   0.448 -0.2296 -0.1861  0.0682
22211W        W37342  16.299  11.182  11.542 -0.0284 -0.0023 -0.2351
22212W        W37343   9.702   2.990  11.374 -0.4307  0.1360  0.3611
22213W        W37344   4.728   5.007   9.517  0.0788 -0.1163  0.0357
22214W        W37345  11.762  18.153  12.605  0.3515 -0.1651  0.1372
22215W        W37346  15.696   1.045   6.213  0.0020  0.0315 -0.1138
22216W        W37347  12.871  13.628   5.611  0.0564  0.0264  0.1352
22217W        W37348  14.702  10.462   1.621 -0.1550  0.2007  0.2006
22218W        W37349   7.230   6.813  12.296 -0.2690  0.1675 -0.1663
22219W        W37350  11.809  17.699   1.076 -0.1651 -0.1029  0.2771
22220W        W37351   6.600  16.888  15.639 -0.0596  0.0644 -0.0488
22221W        W37352  17.331  18.059  15.118  0.0124 -0.2787 -0.1537
22222W        W37353   3.509  16.147  13.542 -0.0818  0.1606 -0.1805
22223W        W37354   7.388   1.294  10.575  0.1315  0.1838 -0.1647
22224W        W37355  16.674  18.054  13.552 -0.6793  0.0730 -0.2120
22225W        W37356   5.249  17.135  15.567 -0.0725  0.0080 -0.2972
22226W        W37357  13.744   2.498  13.596  0.2123  0.1091  0.1021
22227W        W37358  13.804   2.237  12.672  0.0362 -0.2775  0.3414
22228W        W37359  17.585  11.913  15.266 -0.0594 -0.1094 -0.0908
22229W        W37360  16.339   0.718   2.407  0.0234  0.2856  0.2376
22230W        W37361  17.585  15.797   3.377 -0.0230  0.0292  0.1905
22231W        W37362   5.103  14.631  13.452 -0.1895  0.3366  0.1263
22232W        W37363  17.880  10.521   5.459  0.3444  0.0651  0.0565
22233W        W37364  11.243   6.050  14.498  0.1175 -0.1661 -0.1754
22234W        W37365  16.099   4.349  14.852  0.0472 -0.1910 -0.3810
22235W        W37366  13.283  10.636  12.507 -0.3832  0.4486 -0.0318
22236W        W37367   3.353   9.431  11.112  0.1115  0.1058 -0.1268
22237W        W37368  16.423  10.784  11.243 -0.0466 -0.1205 -0.3170
22238W        W37369  18.316   5.437  14.775 -0.1102 -0.3129 -0.1850
22239W        W37370  11.589   7.354  13.950  0.0432 -0.0440 -0.0893
22240W        W37371   3.640  12.902   3.973  0.1350 -0.0636  0.3688
22241W        W37372  13.538   5.617  11.163  0.0438  0.1481 -0.1394
22242W        W37373   2.273   6.093  12.155  0.2997 -0.0474  0.1034
22243W        W37374   5.320   9.152  14.186  0.0591  0.1912 -0.0232
22244W        W37375   4.339   1.207   0.493  0.0664  0.0544 -0.2787
22245W        W37376  10.527  15.281   4.745 -0.3844  0.2861 -0.0299
22246W        W37377  17.273   8.912   1.480  0.0684 -0.0074 -0.3397
22247W        W37378  10.167   8.387  14.982  0.0951  0.0037 -0.1863
22248W        W37379   0.448   5.954   5.510  0.0983  0.2598 -0.1438
22249W        W37380  17.257  13.563   3.317 -0.0638  0.0580  0.0686
22250W        W37381   5.523  11.620   3.329 -0.2519 -0.0516 -0.2826
22251W        W37382  14.816   5.022   3.272 -0.3459  0.1475  0.2474
22252W        W37383  10.140  16.608  12.297  0.1115 -0.3146 -0.1916
22253W        W37384  15.293   7.303   0.105  0.2354 -0.2950 -0.2407
22254W        W37385   1.778   3.991  12.390 -0.0601 -0.1412 -0.1151
22255W        W37386   5.714   0.233  12.328 -0.3504 -0.2085 -0.0048
22256W        W37387  18.329  12.711   2.506  0.4160  0.3126  0.4951
22257W        W37388   0.071   5.653   3.622 -0.2140 -0.0820  0.1476
22258W        W37389  16.394   9.362   4.899  0.0274 -0.1388 -0.2301
22259W        W37390  15.359  17.211  14.593 -0.1836 -0.0199  0.3197
22260W        W37391   6.270   1.014  12.417 -0.2220  0.0689 -0.0804
22261W        W37392  13.742  17.855  13.592  0.0815 -0.0133  0.0715
22262W        W37393   1.323   3.477   2.454  0.2089 -0.1626 -0.0986
22263W        W37394   0.974   1.345  15.381  0.0622 -0.0512 -0.1107
22264W        W37395   2.275  11.468  11.149  0.2158 -0.0083 -0.2850
22265W        W37396  14.531  11.515  12.600 -0.1340  0.0744  0.0428
22266W        W37397   1.171   5.287  15.516  0.2938 -0.1760  0.1660
22267W        W37398   4.154  14.018   0.933 -0.0592  0.4193 -0.1553
22268W        W37399   5.656  13.822  14.741  0.3095 -0.3945  0.0288
22269W        W37400   4.931  16.842  15.817  0.0658 -0.2758 -0.0101
22270W        W37401  10.061  17.315   0.250  0.0707  0.4400 -0.1248
22271W        W37402  12.157   6.993   2.713  0.0570 -0.0103  0.1981
22272W        W37403   7.259  13.560   3.791 -0.1030 -0.0190  0.0941
22273W        W37404  18.264   0.285  15.094  0.5330  0.1947 -0.1494
22274W        W37405   6.736  10.671   1.266 -0.2263 -0.0517 -0.2875
22275W        W37406  10.885   8.868   5.473 -0.2128  0.1156 -0.1497
22276W        W37407   9.482  17.591   0.912 -0.2272 -0.3663 -0.0601
22277W        W37408   8.035   1.856   3.946 -0.2239 -0.0688 -0.0901
22278W        W37409  15.507  10.013  12.342 -0.1172 -0.1189 -0.1768
22279W        W37410   4.056  15.301   2.078  0.1121 -0.0878  0.1702
22280W        W37411   4.826  13.871   3.965  0.0660  0.3884  0.1194
22281W        W37412   3.531   5.995   4.099 -0.1151  0.2970 -0.1504
22282W        W37413   7.832   6.403   1.420 -0.3191 -0.1328 -0.0728
22283W        W37414  13.449   8.725   2.380  0.0145  0.3074  0.0184
22284W        W37415   7.766  12.341   3.900 -0.2998  0.1495  0.1443
22285W        W37416   2.464   7.345   3.076 -0.2755 -0.1405 -0.1915
22286W        W37417  13.398  18.354  11.454 -0.3156 -0.0801  0.1645
22287W        W37418   0.010  16.747  12.467 -0.2028 -0.1923  0.0950
22288W        W37419  10.163   0.925   2.320 -0.0083  0.1524 -0.0841
22289W        W37420  18.460   0.733   4.080 -0.0704  0.1118 -0.0800
22290W        W37421   7.315   7.152  11.222 -0.1547  0.0770 -0.2123
22291W        W37422   2.951  16.405  15.420 -0.1684 -0.3096  0.0906
22292W        W37423  18.249   3.166   3.607 -0.1817 -0.0859  0.1961
22293W        W37424  13.798   0.396   4.177  0.3584  0.2386 -0.2319
22294W        W37425  11.244  11.101  12.426  0.1613  0.1463  0.1707
22295W        W37426  17.301  10.085  12.187 -0.1615 -0.0830  0.1136
22296W        W37427  13.426  16.204  11.513  0.0327  0.1972 -0.1721
22297W        W37428   8.535  16.084  14.918  0.0643 -0.2345 -0.2396
22298W        W37429   2.701   1.682  15.688  0.2874 -0.2744  0.2623
22299W        W37430  12.316  13.922   0.228  0.1628 -0.0269 -0.1912
22300W        W37431  13.426  10.541  15.694  0.0886  0.0980 -0.0571
22301W        W37432  14.447   2.115  11.377 -0.2791 -0.2699 -0.6587
22302W        W37433  10.286   0.800  14.699  0.0540  0.0610  0.0600
22303W        W37434  16.284  12.348  14.777 -0.0449 -0.5110  0.1826
22304W        W37435   1.656   4.656  13.850 -0.1004  0.3425  0.3720
22305W        W37436  16.302  18.478  12.169  0.2961 -0.2088  0.0986
22306W        W37437  15.383  14.167   5.993  0.0946  0.1650 -0.1349
22307W        W37438   4.099  17.460   1.177  0.3743  0.0746 -0.3292
22308W        W37439   3.620   7.897   4.806 -0.0133  0.1637  0.1071
22309W        W37440   9.808  14.413  13.612 -0.1207  0.0378 -0.1272
22310W        W37441   5.437   0.609  12.473 -0.0292 -0.0261  0.3839
22311W        W37442  15.834  10.562   2.060 -0.0675 -0.3214  0.1040
22312W        W37443  15.852   0.519   3.995 -0.3691 -0.0536 -0.1595
22313W        W37444   3.682  12.318  10.907 -0.1457  0.1236 -0.1776
22314W        W37445  18.251  15.464  15.930 -0.0197  0.1738  0.0403
22315W        W37446  15.261   6.362  14.385  0.2154 -0.2334  0.0274
22316W        W37447  15.815  16.972  13.797 -0.1820 -0.0636 -0.2576
22317W        W37448   9.274  12.628  11.489  0.2693  0.2837 -0.1480
22318W        W37449  14.260   3.214   6.233  0.1011  0.3724  0.2452
22319W        W37450   8.166  14.717   1.542 -0.0588 -0.0602 -0.1799
22320W        W37451  18.213  15.393   5.707  0.0271  0.2194 -0.0492
22321W        W37452  16.394  10.934  12.487 -0.3632  0.0527 -0.2444
22322W        W37453   7.609  10.998   2.212 -0.2346  0.1187  0.0115
22323W        W37454   0.383   6.954  11.424  0.2466 -0.0356  0.0223
22324W        W37455  17.593  12.262   0.197 -0.1287 -0.4238 -0.3898
22325W        W37456   9.952   9.017  13.004  0.2143  0.4098  0.1167
22326W        W37457  14.615  11.949   2.087  0.0590  0.0238 -0.0719
22327W        W37458   5.695   9.860   0.026 -0.0330 -0.0168 -0.0398
22328W        W37459  16.355   9.034   0.005 -0.1178 -0.0213  0.0320
22329W        W37460  14.809   9.983  15.379 -0.0233  0.0607 -0.0712
22330W        W37461  14.127   6.215   4.872  0.0739 -0.2962  0.1943
22331W        W37462   0.629   9.041   4.557 -0.2440  0.0535 -0.1817
22332W        W37463  10.829   3.394   2.975  0.1984  0.2759 -0.0411
22333W        W37464  13.514  15.573   0.351 -0.0174  0.4513  0.0210
22334W        W37465   0.431   5.223   1.472 -0.1427  0.0518  0.0864
22335W        W37466  14.576   6.985   4.481 -0.0542 -0.1020  0.0470
22336W        W37467   4.339  12.866   1.472 -0.2439  0.2333  0.1874
22337W        W37468   7.929  13.626   1.034  0.3682  0.2406 -0.1040
22338W        W37469  13.400   4.128   3.380 -0.0347  0.4726  0.1338
22339W        W37470  13.896   8.709   3.334 -0.0356 -0.3587  0.1921
22340W        W37471  14.661  14.792  15.004 -0.0881 -0.3451  0.4860
22341W        W37472  16.159  17.356  12.300 -0.0282 -0.2759  0.1089
22342W        W37473   5.809  18.484   0.274  0.4438  0.0466 -0.0448
22343W        W37474   1.430  10.460  13.737  0.0837 -0.1506  0.0441
22344W        W37475  10.015  12.936   2.009  0.0010 -0.0390 -0.0987
22345W        W37476  14.220   3.632  14.965  0.0119 -0.4284 -0.3943
22346W        W37477  15.901  11.793   4.844  0.1938  0.0427  0.1336
22347W        W37478  18.188  11.317   0.630 -0.2019 -0.2665  0.0885
22348W        W37479  13.749  18.532   0.931  0.2962 -0.0156  0.1106
22349W        W37480  14.518   4.107   1.089 -0.1104  0.3526 -0.1664
22350W        W37481   2.736  15.025   1.970 -0.0284 -0.0184 -0.0672
22351W        W37482   3.202  15.647  14.165 -0.1691  0.0562  0.0402
22352W        W37483   0.672   3.169  14.200  0.0187 -0.0778  0.2150
22353W        W37484  10.692   4.788  14.488 -0.0329  0.1479  0.1334
22354W        W37485   5.858   7.528  12.308 -0.1429 -0.2150 -0.0002
22355W        W37486  10.344  18.459   3.732 -0.1630  0.0943 -0.0107
22356W        W37487   1.521   4.591  14.369 -0.0637 -0.3513  0.0834
22357W        W37488   0.221   6.876   4.377  0.0225  0.0730 -0.0189
22358W        W37489   8.326   9.522   3.913 -0.2981  0.0351  0.2590
22359W        W37490   9.999   4.652  15.031 -0.0541  0.0854  0.1395
22360W        W37491   4.222  11.495  11.454 -0.0828 -0.2044  0.2688
22361W        W37492   5.628   2.204   0.320 -0.2389 -0.0843  0.0531
22362W        W37493   7.762  17.119   1.686  0.0442 -0.3125 -0.0549
22363W        W37494  15.397   1.532   4.147 -0.0619 -0.0093  0.2737
22364W        W37495  10.916   5.521   4.468  0.0222 -0.0749 -0.1790
22365W        W37496   3.927  10.868  15.920 -0.1294 -0.1485  0.1483
22366W        W37497   8.464   4.376  11.456 -0.0546 -0.0269 -0.0990
22367W        W37498  12.280  15.161   3.530  0.3201  0.2309  0.1795
22368W        W37499   7.689   4.925   0.141  0.4544  0.0752  0.4247
22369W        W37500   1.973   4.773  11.179 -0.0112 -0.2518  0.3719
22370W        W37501  15.940  18.146  13.030  0.0923  0.1140  0.0416
22371W        W37502   2.363  12.515  12.042  0.4021 -0.0614 -0.3232
22372W        W37503  18.188   6.493  12.447 -0.0280  0.0801 -0.1316
22373W        W37504  11.795   8.483   1.268 -0.2219 -0.0948 -0.2589
22374W        W37505   4.425  15.946  13.880 -0.1626  0.1377 -0.0991
22375W        W37506   4.581  15.135   1.536  0.2734 -0.1979  0.0823
22376W        W37507  13.441   7.582  12.752  0.2720 -0.1006  0.0247
22377W        W37508   8.019  17.816   3.225 -0.2184  0.0837 -0.2344
22378W        W37509  16.268   8.869   5.564 -0.4807 -0.2932  0.1552
22379W        W37510  17.213  10.519  12.445  0.0866  0.0000 -0.2763
22380W        W37511  15.284   5.334   5.383 -0.0641 -0.2803 -0.0549
22381W        W37512  10.288  12.624  13.300  0.1495 -0.1115 -0.1866
22382W        W37513  16.882  17.476  14.625 -0.0555 -0.3335  0.1051
22383W        W37514   5.048  16.691  13.884 -0.1667 -0.0135 -0.3857
22384W        W37515  17.885   7.090  13.870  0.0737  0.2896  0.0581
22385W        W37516   8.388   9.193  10.997  0.1527  0.0277  0.3774
22386W        W37517  14.235  18.155   0.361  0.1182 -0.0615  0.1637
22387W        W37518   3.761   2.264   1.109 -0.1333  0.0043 -0.1153
22388W        W37519  15.912   7.398   0.931  0.0403  0.1628 -0.1986
22389W        W37520  15.254  10.617   5.510 -0.0907  0.1323  0.1825
22390W        W37521  10.032  10.385  10.124  0.1423 -0.4219 -0.0573
22391W        W37522   6.957  14.083   1.647 -0.0051  0.1903  0.3327
22392W        W37523  11.822  12.196  13.292  0.0538  0.1127 -0.3919
22393W        W37524  13.310  18.463   4.926 -0.1783 -0.2843 -0.0122
22394W        W37525   7.018   6.566  13.512  0.1055 -0.0980 -0.0896
22395W        W37526   9.718  16.025  15.705 -0.1254 -0.0346  0.2558
22396W        W37527  17.595  17.804  14.308 -0.0292 -0.1325 -0.0257
22397W        W37528  16.216  12.274   3.995  0.1039 -0.2511  0.0045
22398W        W37529   8.978  13.258  15.936  0.1104  0.0423 -0.1169
22399W        W37530   7.402   1.378   1.485  0.1332  0.2524  0.2823
22400W        W37531   8.954   3.432  12.719 -0.2287 -0.1786 -0.3525
22401W        W37532   3.649  15.170  11.807  0.0548  0.3580  0.4168
22402W        W37533   9.917   7.543  14.115  0.1865  0.0440 -0.0199
22403W        W37534  17.855   7.967  15.185  0.1270  0.3146  0.1100
22404W        W37535  15.149  13.392   5.530  0.0755 -0.0497  0.2344
22405W        W37536  14.314  11.878   0.739 -0.1549  0.1429 -0.0282
22406W        W37537  15.000  16.775  11.811 -0.0772  0.1122  0.4713
22407W        W37538   4.614   8.540  11.246 -0.0499 -0.0623  0.1376
22408W        W37539  10.595  12.297  10.056 -0.0357 -0.1581  0.3188
22409W        W37540  16.873   6.533   3.573 -0.3873 -0.2021 -0.2952
22410W        W37541   7.856  18.298  15.489 -0.0581  0.1196  0.0114
22411W        W37542   9.252  14.764   3.247 -0.0471 -0.2574 -0.2190
22412W        W37543  16.862   5.253   5.930  0.0074  0.0522 -0.3552
22413W        W37544  10.530   8.343  14.087  0.0095 -0.1230 -0.3320
22414W        W37545   5.922  10.084   2.316 -0.1539 -0.2416  0.2117
22415W        W37546  15.267  10.188  14.128 -0.0075  0.0291  0.1533
22416W        W37547   7.002   1.537  12.713 -0.0604 -0.1043  0.0075
22417W        W37548  16.612   2.210  13.846 -0.2168  0.0877  0.0697
22418W        W37549   1.387  18.087   2.658  0.0796 -0.0410  0.3762
22419W        W37550   0.388  13.280  11.633  0.1101 -0.1872  0.0310
22420W        W37551   6.029   0.584   1.074 -0.1021 -0.2430 -0.1466
22421W        W37552  15.939   8.489  10.715 -0.1486  0.1421  0.0393
22422W        W37553   7.466  12.119  14.801 -0.0119 -0.3146  0.3504
22423W        W37554   4.504  14.471   6.011 -0.2139  0.0629  0.1830
22424W        W37555  17.697  11.139   1.101  0.0110 -0.0237  0.0410
22425W        W37556  15.449   6.657   4.209 -0.1157 -0.2169  0.0805
22426W        W37557  12.217   6.863  15.225 -0.1611 -0.1438 -0.0287
22427W        W37558   7.708   8.811  11.542  0.0068  0.0063  0.1689
22428W        W37559   3.608   2.223  11.317 -0.0262 -0.0288 -0.0169
22429W        W37560  17.782   9.626   3.955 -0.0720 -0.0120  0.1031
22430W        W37561  16.367  17.257  10.975 -0.1559 -0.0671 -0.0800
22431W        W37562   2.043  11.652   1.518 -0.2360 -0.1420 -0.0147
22432W        W37563   3.155  16.923   2.152 -0.1025  0.2399 -0.0040
22433W        W37564   1.201  14.088  12.202  0.5489  0.0872 -0.1885
22434W        W37565   7.324   2.510   4.916  0.0758 -0.0871  0.0582
22435W        W37566   6.393  17.405   2.949  0.3049  0.0433 -0.0066
22436W        W37567   4.097  17.344  12.971 -0.1599  0.2918 -0.2226
22437W        W37568   6.365   8.564  13.365  0.1186 -0.0458  0.0951
22438W        W37569  12.314   2.043  13.497  0.2717  0.0146  0.0133
22439W        W37570  12.834   7.823   1.719 -0.1125  0.0041  0.0862
22440W        W37571  16.181  11.862   3.193  0.0736  0.1708  0.0479
22441W        W37572   9.974   1.715  15.390 -0.0089 -0.3610  0.2676
22442W        W37573  12.138   3.940  15.667  0.3615  0.1390 -0.0828
22443W        W37574   2.433  18.027  13.221  0.0451 -0.1755 -0.2993
22444W        W37575  18.178   0.923  15.147  0.0177 -0.0397  0.3011
22445W        W37576   0.107   0.199   0.925 -0.0911 -0.0596 -0.0695
22446W        W37577   3.697  11.958   3.880  0.0173 -0.0385 -0.2022
22447W        W37578   9.198   8.769   3.091 -0.0806 -0.1115  0.1602
22448W        W37579  10.939   5.231  11.700  0.3538 -0.3335 -0.0927
22449W        W37580   1.938   1.213  15.059 -0.1810  0.1887  0.0222
22450W        W37581   7.219  15.772   2.043  0.2207  0.0344 -0.4790
22451W        W37582   3.916   1.907  14.410  0.2935 -0.1181  0.1657
22452W        W37583  15.653  12.825   0.633 -0.0320 -0.2304 -0.4015
22453W        W37584  15.642   6.967   0.953  0.0670 -0.0251 -0.0255
22454W        W37585   5.510   6.470  13.192 -0.0707  0.0508  0.0720
22455W        W37586   4.130  18.560  10.763  0.4035  0.1817 -0.1754
22456W        W37587  14.035   4.099   3.519  0.0901 -0.0937 -0.1125
22457W        W37588   5.915   6.205   3.865  0.1224 -0.1172 -0.2124
22458W        W37589  16.689   1.619   5.424 -0.1069  0.1397 -0.1343
22459W        W37590   7.482  11.579  13.684 -0.1885  0.1915 -0.1704
22460W        W37591  12.658   1.676   0.965  0.2028 -0.0531  0.0812
22461W        W37592  12.023   7.377   1.684  0.0573  0.0310  0.0275
22462W        W37593  12.387  10.276  11.790 -0.0007 -0.1651  0.3626
22463W        W37594   6.485   7.801  12.731 -0.0724  0.2653  0.0066
22464W        W37595  14.651   1.612   5.394 -0.0638 -0.0296 -0.0724
22465W        W37596   3.503  18.097   2.784 -0.0726  0.0379 -0.2221
22466W        W37597   5.059   7.869   1.680  0.0422 -0.1321  0.1182
22467W        W37598   4.142   3.589   1.068 -0.0556 -0.4354 -0.0287
22468W        W37599   0.086  16.845   3.897  0.1023  0.0352  0.1912
22469W        W37600   0.543   2.680  11.317  0.3593 -0.1039  0.3888
22470W        W37601  12.510   5.147   3.162 -0.0156  0.1421 -0.2767
22471W        W37602  10.726   1.239   2.903  0.1416 -0.3976 -0.0537
22472W        W37603   8.974  11.315   3.673  0.1578 -0.0513 -0.0085
22473W        W37604   0.073  10.207   4.298 -0.3356  0.0821 -0.0717
22474W        W37605  15.602  14.660   5.208  0.1851  0.3433  0.0103
22475W        W37606  17.449   0.493  12.999 -0.3916 -0.0747  0.1540
22476W        W37607  10.652   0.404   1.317 -0.1765  0.0396  0.1306
22477W        W37608   6.486  15.939  14.126  0.3126  0.0362  0.0700
22478W        W37609  18.024   7.143   5.009 -0.0176  0.0517 -0.0089
22479W        W37610   0.280  10.287   3.242  0.1756 -0.0861 -0.0394
22480W        W37611   8.955   7.827   5.375 -0.1846  0.0696 -0.2538
22481W        W37612  18.332   4.340   0.411 -0.2419 -0.2327  0.0176
22482W        W37613   1.621   4.683   0.851 -0.2682 -0.4432  0.0103
22483W        W37614  14.918  15.532   0.180 -0.0159  0.1177  0.0197
22484W        W37615  15.272   9.182   3.860  0.0188  0.2523  0.0036
22485W        W37616   7.146   6.726   1.103 -0.0430  0.2760  0.1947
22486W        W37617   4.020   9.828  11.032  0.3654 -0.0318 -0.3159
22487W        W37618  13.020   0.126   2.810  0.0511  0.3563 -0.2852
22488W        W37619  11.115   0.847   0.235  0.0927  0.0238 -0.1603
22489W        W37620  16.728  10.863   0.903 -0.0159 -0.0393  0.1717
22490W        W37621   4.082   1.284   3.570 -0.0144 -0.0974 -0.1735
22491W        W37622   3.178  14.256  12.241  0.3171  0.0405 -0.0794
22492W        W37623  15.899   3.911   5.830 -0.0895  0.0925 -0.0785
22493W        W37624  17.725  13.378   1.186  0.1881 -0.1962 -0.3497
22494W        W37625  13.316  16.689   4.434  0.0067 -0.1749  0.0760
22495W        W37626   6.606  12.482  12.057  0.0884  0.1872  0.2111
22496W        W37627  14.410  18.369  13.454 -0.0277 -0.1060  0.0072
22497W        W37628  13.383  15.706   3.854 -0.1117  0.1340  0.3555
22498W        W37629   0.592   1.048  11.529 -0.0793 -0.2282 -0.1492
22499W        W37630  11.370  16.330  13.532  0.2942  0.0076  0.1099
22500W        W37631   7.364  12.704   1.486 -0.0251  0.1383 -0.0069
22501W        W37632   2.911   5.168   5.014  0.1341 -0.1931  0.2119
22502W        W37633   9.813   2.682   0.259  0.1795  0.1346  0.0952
22503W        W37634  13.864   4.145  13.312 -0.1589 -0.1230 -0.1734
22504W        W37635  16.428  10.832   1.289  0.0541 -0.1738 -0.1831
22505W        W37636   7.719  16.946   2.657 -0.1249 -0.0553 -0.0438
22506W        W37637   6.704  12.122  11.446  0.3153 -0.2592  0.1452
22507W        W37638   2.008  11.699   2.312 -0.1614 -0.2032 -0.0619
22508W        W37639  15.066   0.956   6.422 -0.1481 -0.0969  0.1276
22509W        W37640  13.879   4.865   2.155  0.1112 -0.1424 -0.1405
22510W        W37641  16.602   3.535   1.486  0.1892 -0.0676  0.0757
22511W        W37642  15.591   7.664  15.801 -0.0759 -0.0880 -0.0870
22512W        W37643  16.383   4.328   3.624 -0.0799  0.2570  0.3141
22513W        W37644  16.723  15.809  11.995 -0.0020  0.4453 -0.1290
22514W        W37645   2.718  15.681  11.125  0.0313  0.1090  0.1957
22515W        W37646   2.823  15.953  15.670 -0.2335  0.1895  0.0944
22516W        W37647   8.816   5.010   4.028  0.0397  0.0505 -0.1293
22517W        W37648   0.732   8.070   1.927 -0.1615 -0.1314 -0.0197
22518W        W37649  17.257  11.832   3.182 -0.2679  0.1309  0.1294
22519W        W37650  10.374  13.388   4.328  0.2811  0.0983 -0.2150
22520W        W37651   9.529  11.750   5.931  0.1706  0.2423 -0.0901
22521W        W37652  11.696  10.999   0.135 -0.1706  0.1262 -0.3105
22522W        W37653   1.957   6.454  15.617  0.1263 -0.2454  0.2749
22523W        W37654  17.141   3.310   1.691  0.2836  0.3484 -0.1701
22524W        W37655  10.477   7.109  13.200 -0.0853 -0.0960 -0.2667
22525W        W37656  16.760  10.639  12.704 -0.0795  0.1753 -0.2701
22526W        W37657  17.354   4.389  14.323 -0.0320  0.3927  0.1130
22527W        W37658  16.380   4.334  11.312  0.2080 -0.4394 -0.1136
22528W        W37659  11.209   9.450   3.743  0.2333  0.2281  0.1293
22529W        W37660   0.294   7.585   5.243 -0.1384  0.0964 -0.0705
22530W        W37661   5.812  14.050  11.119  0.2224  0.3388 -0.0356
22531W        W37662   3.378  13.283   0.010 -0.2157  0.3464 -0.2772
22532W        W37663   1.336  12.729  10.033 -0.2066  0.0855 -0.0528
22533W        W37664  15.423   7.575   4.523 -0.0568 -0.0599 -0.0042
22534W        W37665   1.177   1.823  11.205  0.0405  0.1694  0.1071
22535W        W37666  13.616   5.338  12.703 -0.0265 -0.1676  0.2050
22536W        W37667   6.155  14.396   0.172 -0.4981  0.0786  0.0909
22537W        W37668  14.005   6.158   5.381 -0.1350 -0.0694 -0.0416
22538W        W37669  12.483   3.927  15.336 -0.2506 -0.0926 -0.1938
22539W        W37670  11.070   8.180   1.306 -0.0466  0.3212 -0.0213
22540W        W37671   0.579   1.489   5.306  0.0850  0.1131 -0.3167
22541W        W37672  14.305   9.261   2.455 -0.2194 -0.3363 -0.1221
22542W        W37673   0.610   2.536   0.947  0.3342  0.1375  0.5479
22543W        W37674  13.474  13.085  15.734  0.0947  0.0064  0.0366
22544W        W37675  16.476   9.346  13.375 -0.0637  0.0898  0.0616
22545W        W37676   3.067   3.427  13.056  0.0054 -0.2514 -0.1164
22546W        W37677   2.117   6.770   0.048 -0.4560 -0.1948  0.2252
22547W        W37678   3.406  11.963  10.068 -0.0925  0.0373 -0.1990
22548W        W37679   0.885   0.492   3.495  0.0049 -0.1953 -0.2204
22549W        W37680  15.046   2.214  12.899 -0.1335 -0.1200  0.1657
22550W        W37681   7.044  12.307  12.893 -0.3968  0.0534  0.1719
22551W        W37682   6.590   6.666   1.601  0.2705 -0.2266 -0.0914
22552W        W37683  12.498  10.349   1.365 -0.2855 -0.1741 -0.0117
22553W        W37684   9.077   8.310  11.416  0.1143  0.0282 -0.0522
22554W        W37685   2.539   2.341   0.388 -0.1033  0.1432  0.2822
22555W        W37686   8.171   5.150   0.521 -0.3717  0.3539 -0.1285
22556W        W37687   2.012   7.984   6.294  0.2861 -0.1609 -0.0828
22557W        W37688   0.239   5.590  15.454  0.0661 -0.1488  0.1295
22558W        W37689   8.377   7.578  11.780  0.1497  0.0353 -0.1440
22559W        W37690  15.836  15.455   2.681 -0.0860  0.2714 -0.5227
22560W        W37691   3.408   0.252  13.165 -0.1910 -0.4639  0.2252
22561W        W37692   2.502  11.493   1.220 -0.1033 -0.3272  0.0709
22562W        W37693  18.305   2.494   3.695 -0.6278 -0.0830  0.2537
22563W        W37694  11.880   0.543   3.323  0.1815  0.0814 -0.2715
22564W        W37695  12.136   2.143  11.742  0.1075  0.0459  0.2660
22565W        W37696   4.929   7.597  13.673  0.0900 -0.0078  0.0044
22566W        W37697   0.111   9.669  12.392 -0.0168 -0.0407 -0.1385
22567W        W37698   8.511  17.213   2.645  0.1943 -0.1691  0.2994
22568W        W37699   4.296  12.398   2.224  0.0770 -0.0059  0.0774
22569W        W37700   0.864  16.735   4.861  0.2220 -0.1646  0.2531
22570W        W37701  17.021  14.725  14.891  0.0774 -0.1949  0.2963
22571W        W37702   4.077   0.989   1.016 -0.1077 -0.1521 -0.1462
22572W        W37703   0.832   7.065  15.059  0.2125  0.2323  0.0086
22573W        W37704   9.649  12.069  12.229  0.0616 -0.0838  0.0127
22574W        W37705   8.784   5.411  12.636  0.2137  0.0349  0.0834
22575W        W37706   1.237  13.957  15.655 -0.0362 -0.0671  0.1919
22576W        W37707  14.570  12.188   5.116 -0.2356  0.4685  0.1071
22577W        W37708  12.885   0.025  13.742  0.2515  0.0649  0.0963
22578W        W37709  15.991  15.815  11.369  0.2733 -0.0072 -0.0783
22579W        W37710  14.196  13.906   1.599 -0.0784  0.0987  0.1454
22580W        W37711   7.900  11.875  13.715 -0.0179  0.0014  0.1035
22581W        W37712  13.805  10.362  13.267  0.2967 -0.0614 -0.0236
22582W        W37713   0.996   1.653   2.628  0.2224 -0.1750  0.1141
22583W        W37714   2.820  11.157   2.601  0.2300 -0.1079  0.1192
22584W        W37715  11.417  13.555   2.954  0.1017  0.2142 -0.1116
22585W        W37716  17.132   2.450   1.877  0.1834  0.1185 -0.0590
22586W        W37717   5.389   3.892  12.103 -0.2142 -0.3024 -0.1801
22587W        W37718  10.952   8.297   2.581 -0.2654  0.1007  0.1866
22588W        W37719   6.539   5.754   4.639 -0.2769 -0.0471 -0.1288
22589W        W37720  10.728  13.411   3.394  0.1108 -0.2737 -0.1197
22590W        W37721   3.242  11.936   5.591  0.0226  0.1706  0.2497
22591W        W37722  11.181  13.498   3.767  0.3424  0.0291  0.0121
22592W        W37723   9.589   9.015   3.376 -0.2574  0.1005 -0.0487
22593W        W37724   4.948   1.438   3.885 -0.1736 -0.1852 -0.3860
22594W        W37725   5.149  14.173   4.726  0.2757 -0.0147 -0.0108
22595W        W37726   6.267   9.108  15.381 -0.2541 -0.1379 -0.0101
22596W        W37727  12.806  15.608  10.600 -0.0916 -0.0899  0.0271
22597W        W37728  10.915   9.056   0.180  0.2294  0.1834 -0.0788
22598W        W37729  10.577  12.585   3.920 -0.2464 -0.0845 -0.0366
22599W        W37730   3.929  11.476   1.265 -0.0942  0.1287 -0.1624
22600W        W37731  16.272  17.187   0.530  0.1024  0.2152 -0.0333
22601W        W37732  14.537  12.260  13.138 -0.0834  0.0132 -0.0559
22602W        W37733   1.359   7.558  14.637 -0.0475 -0.0579 -0.1639
22603W        W37734  13.535   5.025   4.526  0.2574 -0.1041 -0.2201
22604W        W37735  14.244   2.495  10.521 -0.2328 -0.1739  0.0422
22605W        W37736   8.103   1.917   3.450 -0.0489  0.1456 -0.2084
22606W        W37737   4.359   5.879  11.668 -0.1670  0.0146 -0.0429
22607W        W37738  13.779  10.845   3.425  0.1545  0.2140 -0.0087
22608W        W37739  14.965   4.944  13.270 -0.2416 -0.3255  0.1048
22609W        W37740  12.410  18.033  13.224 -0.0807 -0.1507  0.3501
22610W        W37741  13.970  17.499   0.974 -0.1643 -0.1153  0.1082
22611W        W37742   6.800  15.822  13.296 -0.4259 -0.1275 -0.2671
22612W        W37743   9.370  16.539  14.654  0.0890 -0.1152  0.5434
22613W        W37744   8.911   8.023   1.369 -0.2270 -0.3356 -0.1777
22614W        W37745  18.145  14.135  11.305 -0.5396 -0.0031 -0.5413
22615W        W37746  14.897  13.330   2.575 -0.0415  0.0992  0.3578
22616W        W37747  12.271  16.216  13.237  0.0032  0.3572  0.1579
22617W        W37748   8.469  17.788  11.940  0.1968  0.0611  0.1854
22618W        W37749   9.439  14.047  13.541  0.1925  0.0019 -0.1901
22619W        W37750   5.239   1.108  11.648  0.0130  0.2608 -0.0372
22620W        W37751  11.540   5.123  11.066  0.2847 -0.0433 -0.0659
22621W        W37752  16.441  17.272  11.527 -0.0330  0.0189 -0.3810
22622W        W37753   6.898  10.515   3.312  0.5497  0.3628  0.3314
22623W        W37754   9.358   1.395  13.252  0.1914 -0.0468 -0.0670
22624W        W37755  11.825   6.841  12.524  0.0097 -0.1990  0.0834
22625W        W37756  17.523   7.334   1.541 -0.0153  0.0944 -0.0578
22626W        W37757   6.901   2.649   4.640 -0.1461 -0.1626  0.1972
22627W        W37758  18.170   2.100  13.026 -0.1091 -0.3822  0.0812
22628W        W37759  12.345   2.311   3.987 -0.0642  0.1634 -0.0941
22629W        W37760   4.136   1.663   3.925 -0.2508 -0.3578  0.1445
22630W        W37761  13.592  12.750  14.113 -0.0917  0.1411 -0.2873
22631W        W37762  12.479  10.269  12.270 -0.2482  0.1189 -0.2674
22632W        W37763   6.621  16.163  10.948 -0.0044 -0.1228 -0.1305
22633W        W37764   6.536   7.404  13.043 -0.1894 -0.1107 -0.0337
22634W        W37765  11.604   8.943   0.071  0.2646  0.4461 -0.4809
22635W        W37766   2.406  15.814  12.563  0.2065 -0.0353 -0.0526
22636W        W37767  13.514  17.319   3.127  0.0784  0.2737 -0.0777
22637W        W37768  12.308   3.145  13.970 -0.1367  0.0225 -0.1354
22638W        W37769   4.656   5.838  13.303  0.2027 -0.2020  0.1398
22639W        W37770   3.175  17.853   1.982  0.5375  0.2199  0.0036
22640W        W37771  15.003  16.422  15.881  0.0204  0.6231  0.1852
22641W        W37772  12.306   9.512   0.640  0.0228 -0.1445 -0.0492
22642W        W37773  18.331   4.350   4.399 -0.1666  0.1612  0.0349
22643W        W37774  14.211   8.137  14.678  0.1668 -0.2374 -0.1942
22644W        W37775   5.863   3.334  11.228  0.1302 -0.1026  0.1172
22645W        W37776   7.463   8.699   3.883  0.5511 -0.1576 -0.0264
22646W        W37777   3.815   1.489   4.767 -0.0846  0.1437  0.2065
22647W        W37778   8.442  13.911   3.020  0.0583  0.0678 -0.0420
22648W        W37779  15.053  11.133   6.339  0.1196  0.2487  0.1922
22649W        W37780   7.588   8.524  12.334  0.4627 -0.0750 -0.4838
22650W        W37781  15.726  17.279  13.251  0.0040 -0.0614  0.4717
22651W        W37782   8.921  15.487   5.207  0.0705  0.0193 -0.3560
22652W        W37783   4.353   8.815   5.721 -0.3033  0.3041 -0.0399
22653W        W37784  16.224  14.191  14.714  0.5138 -0.5253 -0.1906
22654W        W37785   3.413  15.583   5.232 -0.0538 -0.1090  0.1786
22655W        W37786  13.764  16.237   0.903 -0.1356  0.1864  0.1414
22656W        W37787   8.355  17.057  12.337 -0.0321  0.3219 -0.2505
22657W        W37788   5.146  16.073  12.882  0.1065  0.0855  0.0822
22658W        W37789   2.752  13.164   0.569  0.0273  0.2173 -0.0557
22659W        W37790  14.530   2.065  10.583  0.3541  0.3684  0.0979
22660W        W37791  16.549   6.682  15.117  0.0046 -0.3736 -0.0432
22661W        W37792   4.239   8.169  12.193  0.4417  0.2388 -0.0252
22662W        W37793   3.250  14.218  13.637  0.0078 -0.3095  0.0844
22663W        W37794  17.108  11.422   2.918 -0.1814 -0.3178 -0.0978
22664W        W37795  14.407   3.494   2.771 -0.3973  0.1225  0.1221
22665W        W37796  17.838  13.777  13.842  0.2053  0.2554  0.1151
22666W        W37797  12.920   4.320   4.405  0.2089 -0.2273 -0.0308
22667W        W37798   8.026   4.399   1.025  0.0418  0.0254  0.1023
22668W        W37799   8.335   8.684   2.353  0.1910  0.1156 -0.1839
22669W        W37800  15.527   4.370   3.750 -0.1229  0.0702  0.0651
22670W        W37801   1.433  15.527  15.141  0.1582  0.1341  0.2581
22671W        W37802   4.188  15.596   3.894  0.2437 -0.2711 -0.1631
22672W        W37803  18.101  14.669   2.098 -0.0339 -0.0844  0.0104
22673W        W37804   1.757   7.122   0.186 -0.0717 -0.2927 -0.0749
22674W        W37805  10.825  10.670   2.744  0.0469 -0.3459 -0.1502
22675W        W37806  17.037   4.064   6.171  0.1004 -0.0759  0.2655
22676W        W37807  10.192  10.485  14.055 -0.1206 -0.1469 -0.0614
22677W        W37808   7.928  10.681  11.614  0.0444 -0.0136 -0.2214
22678W        W37809   2.812   7.736   0.506  0.2163  0.1312  0.2391
22679W        W37810  10.655  11.506   5.188 -0.2224 -0.1067 -0.0432
22680W        W37811   5.824  11.750   1.749 -0.1737  0.1595  0.0099
22681W        W37812   2.284  17.561   9.939 -0.3085 -0.2217 -0.3651
22682W        W37813   8.592  13.667   5.025 -0.0767 -0.0670 -0.0193
22683W        W37814   5.380   9.428  15.132 -0.2263 -0.0397 -0.0063
22684W        W37815   1.620   9.596  15.372  0.2979 -0.2534  0.0448
22685W        W37816  11.449  14.770   0.796  0.1571  0.1657 -0.0149
22686W        W37817  17.618  14.569   4.011 -0.0538 -0.3006 -0.1629
22687W        W37818   9.280   3.738   2.267  0.2504  0.0059  0.2124
22688W        W37819   2.309   0.200  12.454  0.2608  0.1364  0.2628
22689W        W37820   7.281   4.719  15.150 -0.1706 -0.1644  0.1283
22690W        W37821  10.604   7.079  14.877 -0.1065  0.1479 -0.2097
22691W        W37822  15.047   4.831   2.335  0.4445 -0.0052 -0.1197
22692W        W37823  15.401   5.664  12.386  0.0104  0.1734  0.0294
22693W        W37824   1.838   9.330  10.567 -0.0444 -0.0478 -0.0686
22694W        W37825   9.570  10.700  14.486  0.3512 -0.0124  0.3015
22695W        W37826   8.544   8.153   2.292  0.0673  0.1430 -0.2142
22696W        W37827  11.390  11.330   2.441 -0.1306  0.0255 -0.0123
22697W        W37828   5.946   8.683  12.026 -0.1495 -0.1394  0.1821
22698W        W37829  11.722   4.830  11.841 -0.2141 -0.1168  0.1379
22699W        W37830   9.259   7.848  10.412 -0.1952  0.0188 -0.0285
22700W        W37831   2.870  16.652  12.390  0.2432  0.2968  0.1410
22701W        W37832   1.454  14.944   5.432  0.1445 -0.1971 -0.0217
22702W        W37833  14.513   6.689   1.914  0.2276 -0.1915 -0.0280
22703W        W37834  13.664  12.175   1.303  0.1343  0.0626  0.1560
22704W        W37835  12.926   0.888   4.765  0.0596 -0.2437  0.2238
22705W        W37836   1.930  17.441  15.787 -0.2573 -0.1295 -0.0555
22706W        W37837  18.340   2.887  12.459 -0.1951  0.0148 -0.0256
22707W        W37838  11.059   0.562  11.783 -0.0075 -0.2514  0.0707
22708W        W37839   7.213  13.565   4.657  0.0713  0.0652 -0.1747
22709W        W37840  13.502  13.330  10.773  0.0240 -0.2372 -0.1400
22710W        W37841   1.147  17.260  11.102 -0.0048  0.0188 -0.0646
22711W        W37842   5.047  16.192  14.343  0.2370  0.1107 -0.0932
22712W        W37843   6.804   9.605   4.194  0.1283  0.2505  0.1261
22713W        W37844  10.211  11.516   4.999  0.1717  0.0338 -0.3457
22714W        W37845  15.903  14.032  12.221 -0.2650  0.1137 -0.0234
22715W        W37846   7.720  16.444   2.649 -0.1754  0.1417  0.0751
22716W        W37847   9.357  11.524  10.361 -0.2301  0.1042 -0.1070
22717W        W37848  17.026  10.114   2.346  0.3004 -0.0754 -0.3455
22718W        W37849   1.530   4.000   0.188 -0.2229 -0.1446 -0.0912
22719W        W37850   4.009  14.679   2.262  0.0176 -0.2536 -0.0154
22720W        W37851   4.836   3.377   3.974 -0.2222  0.1843 -0.2175
22721W        W37852  13.151   8.787   5.439 -0.3948 -0.0580 -0.1866
22722W        W37853   7.036   7.604   0.790 -0.2919 -0.2501  0.0426
22723W        W37854  10.411   8.646  13.245  0.3120  0.0943  0.2490
22724W        W37855   9.233  11.853   0.506 -0.0323 -0.0678  0.2910
22725W        W37856   7.968  10.865   3.885  0.3210  0.0125 -0.2919
22726W        W37857   4.483   1.714   1.772  0.0919 -0.1039  0.0771
22727W        W37858   3.578  12.127  15.287  0.1764  0.1744  0.1427
22728W        W37859   9.082   8.202   2.599  0.0880  0.0200  0.1268
22729W        W37860   7.651  15.665   4.170  0.0806 -0.0987 -0.1480
22730W        W37861   1.932   8.115   5.474  0.0332  0.0683 -0.2363
22731W        W37862   5.420   1.603  13.890 -0.1264 -0.2348 -0.0255
22732W        W37863  17.522   7.836  11.008 -0.1323 -0.0549  0.1172
22733W        W37864  10.260  15.177  12.466  0.3370 -0.1359 -0.2904
22734W        W37865  16.859   0.453  12.058 -0.0975 -0.1706 -0.0692
22735W        W37866   7.010   2.986  11.316 -0.0774 -0.0700 -0.1230
22736W        W37867   5.381  12.448  10.866 -0.1270  0.0089 -0.0049
22737W        W37868   1.720  18.080  11.279  0.0915 -0.0720  0.0130
22738W        W37869  14.170  15.986   0.666  0.1227 -0.0503 -0.3039
22739W        W37870  10.820  14.779  12.980  0.1316 -0.0345  0.4853
22740W        W37871   2.263   7.742   0.994 -0.4247  0.0232 -0.0942
22741W        W37872  14.089   0.386  10.915 -0.1787 -0.0796  0.3705
22742W        W37873   2.063  10.391   1.781 -0.2059  0.0469  0.0224
22743W        W37874   2.866   1.136   2.801  0.2319  0.0840  0.2091
22744W        W37875   4.654  11.103  10.691 -0.1866  0.0271  0.0349
22745W        W37876   6.559   4.255  13.267 -0.0191 -0.0732 -0.1737
22746W        W37877  16.780   8.169  11.007 -0.1552 -0.0243 -0.3572
22747W        W37878   7.568  12.193   2.899  0.1614 -0.0327  0.2098
22748W        W37879  17.667   1.975   4.385 -0.2439 -0.3548 -0.1419
22749W        W37880   6.332   3.611   0.692  0.3891 -0.0200 -0.2675
22750W        W37881  13.375  12.918   5.822 -0.0083  0.1558  0.2718
22751W        W37882   7.734   5.004  15.110 -0.0717 -0.1201 -0.0752
22752W        W37883  14.788   5.117   2.692  0.2013  0.0923 -0.1964
22753W        W37884  14.912   3.491  12.740 -0.0930 -0.0426  0.2031
22754W        W37885   8.040  16.466   4.002  0.2076 -0.3748 -0.2541
22755W        W37886   6.733  16.187   3.834 -0.0027  0.2666  0.2947
22756W        W37887   7.193  13.759  11.627  0.0413  0.1593  0.1982
22757W        W37888   0.978   9.826   3.250 -0.1913 -0.0055  0.0448
22758W        W37889  16.785   0.534   1.666 -0.2877  0.2612  0.2080
22759W        W37890  13.185  12.509  13.000  0.1476 -0.0174 -0.0708
22760W        W37891   7.279  15.642  14.724 -0.3518 -0.0875 -0.0827
22761W        W37892  17.266   0.889   0.412  0.0362  0.3376  0.1952
22762W        W37893   5.467  15.545   3.933 -0.1268 -0.2404  0.0481
22763W        W37894  17.911  11.590  13.748  0.1562 -0.0065 -0.2970
22764W        W37895   9.819   3.077   5.226 -0.1958 -0.1942 -0.0899
22765W        W37896   2.634   2.290  12.623 -0.0133  0.1965  0.0181
22766W        W37897  12.540  16.254   0.132 -0.2569 -0.1325  0.1941
22767W        W37898   1.102   7.929   5.375 -0.1411 -0.0501 -0.2010
22768W        W37899  15.650  17.559   2.590  0.1289  0.1658  0.4920
22769W        W37900   7.403   5.355   3.505  0.2551  0.0365  0.0158
22770W        W37901   5.529   0.418   2.847  0.1156 -0.2435 -0.0564
22771W        W37902   3.059   5.091   0.528  0.0114 -0.2490  0.1649
22772W        W37903   5.058  15.803  14.702 -0.3040  0.0731  0.0154
22773W        W37904  18.458   3.742  11.044  0.0479 -0.0216  0.0599
22774W        W37905  14.536   8.744   2.368  0.0337  0.1758 -0.1029
22775W        W37906   1.287  16.352   3.038  0.2033  0.0598  0.3455
22776W        W37907   9.727  17.458   1.912 -0.1216  0.1860 -0.0087
22777W        W37908   5.110   7.614  15.295 -0.0536 -0.1046  0.1674
22778W        W37909   2.554  11.767  11.477 -0.0086  0.1000 -0.3313
22779W        W37910   3.550   2.664   0.976 -0.0088 -0.0377  0.0145
22780W        W37911  16.278  15.196   4.955  0.0298  0.0473  0.0273
22781W        W37912   5.115  14.962   2.159  0.1975  0.2199 -0.2498
22782W        W37913  12.700   4.924  15.261  0.0662  0.1673  0.3871
22783W        W37914   3.936   6.047   0.129  0.1427  0.0033 -0.0012
22784W        W37915  12.101   6.530   5.464 -0.1517 -0.0518 -0.0520
22785W        W37916   5.777  12.288   0.224  0.0468  0.1180 -0.1409
22786W        W37917   0.340  14.357   0.636 -0.1952 -0.2230  0.0203
22787W        W37918   1.939   2.839   3.282 -0.0191  0.2065  0.1346
22788W        W37919  12.739  16.063  11.430  0.0070  0.1075 -0.2491
22789W        W37920   5.663   9.459   4.077 -0.0098  0.2639  0.0440
22790W        W37921  17.692   3.515  15.276 -0.4978  0.0008 -0.0694
22791W        W37922  14.010   4.418  14.522 -0.0778  0.3313  0.2284
22792W        W37923  15.205   0.441  15.661 -0.0604 -0.0357 -0.0235
22793W        W37924   4.719   7.086   5.365  0.0227  0.0896 -0.0042
22794W        W37925  11.463   1.062  13.872 -0.4069  0.1398  0.2272
22795W        W37926  15.816   5.241   2.524 -0.5389  0.0860 -0.0166
22796W        W37927  17.587   4.747   2.793  0.2650  0.0754 -0.2852
22797W        W37928  15.758  12.228  15.645 -0.0173  0.4608  0.1338
22798W        W37929  14.338   7.533  13.864  0.1837 -0.0555 -0.0379
22799W        W37930   9.752   1.041   3.966 -0.0463 -0.1392  0.0456
22800W        W37931   7.339  13.074  10.841  0.1372  0.0027 -0.4076
22801W        W37932   0.147  11.601   4.308 -0.1547  0.0384 -0.0278
22802W        W37933  13.827  13.908  13.045 -0.1946 -0.1720  0.1364
22803W        W37934   1.962  13.470  10.504 -0.1372 -0.1027  0.0476
22804W        W37935  10.723   2.800   5.157 -0.0975  0.0319  0.1511
22805W        W37936   4.295   6.038  15.205 -0.0169 -0.2005 -0.2614
22806W        W37937   6.972   8.003  11.642  0.1672  0.2002 -0.2394
22807W        W37938  17.785  10.316  14.270  0.0199 -0.1246  0.2098
22808W        W37939   5.868  14.658  11.731 -0.0033 -0.1051  0.3330
22809W        W37940   0.065  15.557  11.321  0.1637 -0.3373 -0.0132
22810W        W37941  12.328   9.385  14.239 -0.0899 -0.0110  0.1507
22811W        W37942   9.386   8.847   5.177 -0.0243  0.0554  0.2561
22812W        W37943  16.558   0.886  12.687 -0.2381  0.0589  0.2614
22813W        W37944   4.124   0.340  13.970 -0.1666 -0.1905  0.0339
22814W        W37945  12.008  13.586   1.105  0.0316 -0.2504 -0.0392
22815W        W37946   5.699   0.085   4.688  0.0145  0.1120 -0.0354
22816W        W37947   9.816  12.920   2.558 -0.1766 -0.1349 -0.1112
22817W        W37948  10.921   5.602   1.562  0.0077 -0.1293 -0.1012
22818W        W37949   0.575   5.878   0.996 -0.0412  0.0673 -0.0383
22819W        W37950  10.481   3.549   5.565  0.0564  0.2072  0.2105
22820W        W37951   4.721  18.180   3.972  0.2534  0.0289  0.0227
22821W        W37952  10.069   0.802   3.692  0.5325 -0.0607 -0.0381
22822W        W37953   6.582  11.262  14.399  0.1272  0.0431  0.0683
22823W        W37954   7.573  14.162  10.643  0.2608  0.0325  0.2956
22824W        W37955   8.428  17.558  14.159 -0.0409  0.3165  0.2074
22825W        W37956   0.082   5.498  12.327 -0.1431  0.1889 -0.0611
22826W        W37957   1.693   7.240   1.115 -0.2951 -0.3737  0.1055
22827W        W37958   1.996   4.064  13.744 -0.2246  0.0249 -0.1151
22828W        W37959  11.285   4.557   0.176  0.4274 -0.3197  0.3188
22829W        W37960   4.252   3.577  13.808  0.2994  0.1835 -0.1409
22830W        W37961   3.941   0.304  13.195  0.2011  0.2416 -0.2967
22831W        W37962  12.693  17.005  15.279  0.0127  0.2952 -0.0962
22832W        W37963   4.269  17.030  11.577 -0.1795  0.0917  0.1652
22833W        W37964   5.263  15.776  15.656 -0.0939  0.2674  0.3138
22834W        W37965  16.423   4.451  13.678  0.0987  0.1132 -0.1657
22835W        W37966   6.482  12.263   1.179  0.3046  0.1597 -0.2751
22836W        W37967   7.092   9.735  12.042 -0.2073  0.0025  0.3702
22837W        W37968   2.832   0.643   2.836 -0.2029 -0.0945 -0.1424
22838W        W37969   1.599   1.360   5.347 -0.1935  0.1809 -0.0421
22839W        W37970  10.885   6.365   4.793 -0.0342 -0.2390  0.1966
22840W        W37971  18.302  16.684   4.298 -0.1406  0.0817 -0.0110
22841W        W37972   3.304  14.678  15.278 -0.0707 -0.2619 -0.3220
22842W        W37973   5.932  18.114   1.558  0.2435  0.1252  0.2409
22843W        W37974  15.166  18.498  12.681  0.1721  0.0345 -0.0086
22844W        W37975   2.877   1.717  11.303 -0.1615  0.0250  0.4524
22845W        W37976   4.632  13.686  11.243  0.0337  0.3164  0.0217
22846W        W37977  10.442   4.014  15.667 -0.1299  0.0047  0.5843
22847W        W37978  12.725   4.080  11.099  0.0362  0.1410 -0.0749
22848W        W37979   0.831   7.248   6.671  0.1400 -0.0267  0.1979
22849W        W37980   9.709   1.406   2.634  0.0512  0.1298  0.2388
22850W        W37981  11.745   2.296  12.111  0.2912  0.2315 -0.0707
22851W        W37982  10.337  17.427  13.009 -0.1576  0.2841  0.0988
22852W        W37983  17.029   6.328   4.998  0.2460 -0.1066 -0.1264
22853W        W37984  13.742  13.857  15.519 -0.0142 -0.0261 -0.0290
22854W        W37985  12.297   8.206  13.992 -0.0204  0.2234  0.0058
22855W        W37986   7.457   2.880   1.523 -0.3215  0.0503  0.1249
22856W        W37987  11.874   1.679  14.707  0.0930 -0.5928 -0.0908
22857W        W37988  12.674   2.555   1.216 -0.2208  0.3517 -0.4523
22858W        W37989  11.317   2.944  11.027 -0.1445 -0.1557  0.1522
22859W        W37990  10.296   8.144   4.503  0.1457 -0.0279  0.2485
22860W        W37991   4.778   9.187   4.150  0.2614 -0.0225  0.0344
22861W        W37992  17.383   3.460  12.035  0.0457 -0.0475  0.1319
22862W        W37993   9.873  13.367  13.503  0.1567  0.0639 -0.4189
22863W        W37994   0.181  10.109  14.836 -0.1702 -0.1328  0.2716
22864W        W37995  10.979  13.316   1.204 -0.0854 -0.0930  0.1341
22865W        W37996   3.426   4.800  12.054 -0.3718 -0.2869  0.0260
22866W        W37997  18.007  15.976   3.186  0.4044 -0.3731 -0.1059
22867W        W37998   2.863   7.462  12.989 -0.0104 -0.2339 -0.0546
22868W        W37999   1.114   7.779   4.776  0.1731 -0.1003 -0.0866
22869W        W38000  17.866  13.204   4.859 -0.0757  0.0704  0.0463
22870W        W38001   5.188   9.678  13.399 -0.1832  0.1605 -0.0433
22871W        W38002   6.059  13.585  13.705  0.0254 -0.1330 -0.0237
22872W        W38003  14.786   7.248  13.919  0.1390 -0.1011 -0.1195
22873W        W38004   0.144  15.353   2.715 -0.0040  0.0997 -0.1015
22874W        W38005  12.047   9.597   2.924  0.2448  0.0621  0.1214
22875W        W38006   9.300  16.156   3.285 -0.0271 -0.1194  0.3528
22876W        W38007   3.607  13.983   0.945  0.4205  0.1459 -0.4521
22877W        W38008  15.159  14.800  14.275 -0.0849 -0.4040  0.1567
22878W        W38009   4.967  17.234  11.982  0.0007 -0.3076 -0.3081
22879W        W38010  12.277   0.184  14.402  0.2682 -0.0627 -0.3347
22880W        W38011  12.274   0.696  11.029 -0.0087 -0.2198 -0.2350
22881W        W38012  13.952  10.716  10.714 -0.0479 -0.0973  0.2655
22882W        W38013  13.199   4.018  12.331  0.2234  0.2209  0.0617
22883W        W38014  16.424   6.929  13.691  0.0682 -0.2277 -0.2696
22884W        W38015  17.745  12.301  13.375  0.1765  0.5684  0.0888
22885W        W38016  13.291  16.922   1.217  0.0754 -0.1438  0.1507
22886W        W38017  16.631   5.583   4.295 -0.2539 -0.0171 -0.0762
22887W        W38018   3.875   4.581   4.414 -0.2387 -0.2625 -0.0013
22888W        W38019  16.463   5.039  11.881  0.0165  0.2401  0.2562
22889W        W38020  15.306  16.156   2.390 -0.2668  0.0969 -0.0001
22890W        W38021   9.611  11.808  12.702  0.2796  0.1193 -0.0493
22891W        W38022   9.311  18.193  12.962 -0.1537  0.0982 -0.1727
22892W        W38023  12.398   0.588   5.017 -0.0680  0.1604 -0.2340
22893W        W38024  11.603   8.882  14.148  0.1081 -0.0209  0.0057
22894W        W38025   0.045   6.485   1.922  0.3155  0.2444 -0.0858
22895W        W38026   1.449   7.444  11.471 -0.1029  0.2292 -0.1043
22896W        W38027  16.750  12.967  13.738 -0.3595 -0.0676 -0.0710
22897W        W38028  13.056  15.324  15.022 -0.1123  0.0985 -0.2816
22898W        W38029  12.280  17.618   0.408  0.0262 -0.0189 -0.2453
22899W        W38030   2.534  14.157  14.991 -0.0886 -0.3518 -0.2158
22900W        W38031  17.912   4.933  14.847  0.0179  0.1045 -0.0501
22901W        W38032   5.775  17.576  15.782  0.1185  0.0608 -0.1123
22902W        W38033   0.717  17.546  13.960 -0.0648  0.1253  0.0655
22903W        W38034   0.192   2.596   1.927 -0.1427  0.1321 -0.2971
22904W        W38035  16.033  14.913   5.301 -0.2283  0.0577 -0.3499
22905W        W38036  15.069   7.028   1.014 -0.0647 -0.0932  0.2837
22906W        W38037   7.820   6.750   3.225  0.1788 -0.5879  0.2802
22907W        W38038  15.610   9.020   4.482 -0.0135  0.0163 -0.2928
22908W        W38039   5.892   7.665   3.306  0.0860  0.2951  0.0251
22909W        W38040   3.531   3.032   2.114  0.1694 -0.1923 -0.0937
22910W        W38041   0.658  18.314  13.030 -0.0337 -0.2137 -0.0246
22911W        W38042   6.066   9.446   9.933 -0.1694  0.1111  0.0105
22912W        W38043  13.470  12.665   1.412  0.2064 -0.3178 -0.1123
22913W        W38044   7.095   3.525  15.727 -0.0610 -0.0889  0.0349
22914W        W38045   5.249   7.842  14.877 -0.2531 -0.3043 -0.0701
22915W        W38046   6.657   3.056  10.977  0.0794 -0.3235 -0.0659
22916W        W38047   3.933  15.649   3.004  0.0013  0.0160 -0.0356
22917W        W38048  16.011  12.183  13.003 -0.3547 -0.2789 -0.0353
22918W        W38049   8.169   5.132   5.269  0.0158  0.1480 -0.0444
22919W        W38050   0.869  14.697  15.257 -0.0609 -0.2863  0.1227
22920W        W38051   6.272  16.892   1.985 -0.1859  0.1137  0.1872
22921W        W38052   8.332   2.477   2.041 -0.1389  0.1420 -0.1800
22922W        W38053  14.425   6.641  15.433 -0.1735  0.0284  0.3682
22923W        W38054  15.962   3.598  10.776 -0.0115 -0.2058 -0.0222
22924W        W38055   2.897   1.561   3.571 -0.1225 -0.0645 -0.1298
22925W        W38056  18.055   6.619   3.016  0.0404 -0.0887  0.0660
22926W        W38057   4.255   5.608   2.334 -0.0795  0.0311  0.2185
22927W        W38058   6.763   0.900   0.801 -0.2130 -0.2898  0.1021
22928W        W38059   4.936  17.649   1.949  0.2373  0.0861 -0.1940
22929W        W38060   3.429   7.090  14.562 -0.2593  0.1093  0.2080
22930W        W38061  15.620  15.735  10.440 -0.5204 -0.0031  0.2314
22931W        W38062  13.176  16.892   4.853 -0.2866 -0.0178 -0.1292
22932W        W38063   7.922  13.975  11.557  0.0710 -0.0056 -0.1299
22933W        W38064   8.264  10.112   2.639  0.1909 -0.0416  0.0883
22934W        W38065   5.092   1.527  11.975  0.1557 -0.0429 -0.0866
22935W        W38066  16.188   4.540  15.278  0.1996  0.1522 -0.3553
22936W        W38067   4.016   0.639   5.789 -0.0035  0.0707  0.1162
22937W        W38068   4.662   6.195   4.251 -0.1479  0.1351  0.2837
22938W        W38069  13.770   4.465   3.825  0.2465 -0.3671 -0.0120
22939W        W38070  13.693  14.665  12.214  0.1371 -0.0675 -0.1645
22940W        W38071   6.963  17.212  10.620 -0.1001  0.2197  0.0682
22941W        W38072   1.769   5.278  11.359  0.2447  0.1428  0.0087
22942W        W38073  15.148   5.510   2.671 -0.0630 -0.0788 -0.2274
22943W        W38074  10.318  18.043  12.235  0.2049 -0.0537 -0.3698
22944W        W38075   9.820  14.308   2.868  0.0508  0.2344  0.2039
22945W        W38076  12.435   5.945  13.945 -0.1724  0.0081 -0.2053
22946W        W38077  10.622  13.280  11.146 -0.1242  0.0126  0.1728
22947W        W38078   3.060   5.565   1.331  0.1310  0.1492 -0.2725
22948W        W38079   0.201   0.125  13.012  0.2715  0.3079 -0.4337
22949W        W38080   6.998  14.772  13.590  0.0429 -0.0120  0.2509
22950W        W38081  10.066  13.523  12.048  0.0495  0.0563  0.0963
22951W        W38082   3.132  10.895   1.553  0.1739  0.3245 -0.0082
22952W        W38083  15.171   7.563  13.483  0.0357  0.0721  0.0245
22953W        W38084  11.386   8.914  11.154 -0.1691 -0.5982  0.2541
22954W        W38085  13.556   5.933  14.192 -0.3086  0.1762 -0.1305
22955W        W38086   3.827   8.265   2.420  0.0589 -0.1257 -0.0006
22956W        W38087   0.047  13.146  13.724 -0.0208 -0.3065 -0.1121
22957W        W38088   8.828   0.123  10.564  0.1635 -0.0676 -0.1931
22958W        W38089  10.415  10.757   2.323 -0.0082 -0.2754  0.2130
22959W        W38090  13.141   6.871   0.873 -0.0912 -0.0343  0.0720
22960W        W38091  17.203  15.016   3.066  0.0673  0.0783  0.0938
22961W        W38092   9.409   4.750   2.324  0.0224 -0.2008  0.1455
22962W        W38093   3.733  11.734  14.904 -0.1469 -0.0389 -0.3004
22963W        W38094  15.149   9.536  11.336 -0.2327 -0.0791  0.0135
22964W        W38095   8.585  13.651   3.677  0.0933 -0.0191  0.3074
22965W        W38096   5.563  12.147   3.442  0.0588  0.1858 -0.2163
22966W        W38097   9.894   0.922  15.548 -0.3104 -0.1824  0.0164
22967W        W38098   2.585  15.665  13.821  0.1096  0.3510 -0.0204
22968W        W38099   0.199   0.275  15.380 -0.0836 -0.1689 -0.2520
22969W        W38100   3.676  17.733  15.114  0.1655 -0.1167  0.0530
22970W        W38101   3.296  10.695  10.013  0.0048  0.0238  0.1756
22971W        W38102  11.730   4.466   0.144 -0.0068 -0.1207 -0.3835
22972W        W38103   6.708   5.671  14.633  0.1912  0.2230  0.0464
22973W        W38104   1.353   0.835  15.536 -0.1051  0.0536  0.1044
22974W        W38105  12.255   1.253  13.297  0.0916  0.0333 -0.1073
22975W        W38106  11.212  12.744  13.849 -0.2360  0.4454 -0.2426
22976W        W38107  17.579   8.667  14.785  0.2072  0.2210  0.0444
22977W        W38108   6.490   4.220   1.441 -0.2698 -0.0217  0.0469
22978W        W38109  13.971   9.472  13.651 -0.2742  0.1597 -0.1359
22979W        W38110  11.902   8.583   1.721 -0.0994 -0.1697  0.1176
22980W        W38111   3.684  16.446   0.437 -0.0036  0.1797 -0.0783
22981W        W38112   4.393  18.143  15.105 -0.1115 -0.3047  0.2124
22982W        W38113   5.545  12.701   3.360  0.0867  0.0898 -0.0088
22983W        W38114  12.847   3.271   5.195 -0.1190  0.5064 -0.0909
22984W        W38115   7.759   5.590  14.282  0.1568  0.1306 -0.0513
22985W        W38116   8.758   7.140   1.418 -0.0856 -0.3052 -0.1749
22986W        W38117   8.585  14.120  14.472 -0.2044 -0.0210 -0.0127
22987W        W38118  14.209  13.445   5.132 -0.0781  0.1020  0.0344
22988W        W38119   8.504  10.053   0.070 -0.1278 -0.2542  0.2077
22989W        W38120   2.930  17.401   5.324 -0.0854 -0.2252  0.1249
22990W        W38121  11.216  11.942   2.811  0.2330  0.0574  0.3502
22991W        W38122  15.861  10.080   2.022 -0.1140 -0.1289  0.1011
22992W        W38123  18.088   4.788  15.324 -0.1330 -0.4660 -0.1316
22993W        W38124   9.778   5.606  13.991 -0.0140  0.0007 -0.2483
22994W        W38125   1.020   6.179  11.736 -0.0941  0.3630  0.1764
22995W        W38126   0.877   9.330   2.388  0.0272  0.0918  0.0602
22996W        W38127   3.415   3.209   4.237 -0.3054 -0.4707  0.1196
22997W        W38128  15.352   8.066  12.375 -0.1440  0.0602  0.1655
22998W        W38129   7.691   7.386   0.064 -0.0399  0.0886 -0.0427
22999W        W38130   3.270  13.478   0.757  0.0491 -0.2028 -0.2510
23000W        W38131  14.027   2.582   0.912  0.1511  0.0246 -0.0204
23001W        W38132   5.131   7.566  13.047 -0.2655  0.2209 -0.1317
23002W        W38133   7.577   6.841  10.922  0.1140  0.0672 -0.1122
23003W        W38134  10.627   8.754   3.978  0.0245  0.0536 -0.2995
23004W        W38135  18.370  12.069  12.739 -0.0836  0.2077  0.1054
23005W        W38136   6.260  10.693   5.288 -0.1111 -0.1664 -0.1450
23006W        W38137   6.793  12.150   2.720 -0.1569  0.5139  0.0695
23007W        W38138  12.809  14.735  11.287  0.0169 -0.2676 -0.2886
23008W        W38139   0.521  11.835  14.221 -0.0695 -0.1519  0.1220
23009W        W38140   0.003  14.678   1.777  0.1378  0.1026 -0.0556
23010W        W38141  13.352   1.388   2.636  0.0817  0.1253 -0.1945
23011W        W38142  14.012  11.738  13.571 -0.1423  0.0599  0.1740
23012W        W38143  17.132  16.944  11.329 -0.2563 -0.2388  0.3119
23013W        W38144  16.822   4.706  11.741  0.2574  0.2476 -0.0943
23014W        W38145  10.754   2.869   3.378 -0.0030 -0.4883 -0.2237
23015W        W38146  12.542   9.979   4.402 -0.0550  0.0715 -0.1641
23016W        W38147  14.401  12.276  10.196  0.2261 -0.1436  0.0032
23017W        W38148  15.752  13.977   1.530  0.2425  0.4696  0.0721
23018W        W38149  10.895  11.956   3.235 -0.2546 -0.3070 -0.0733
23019W        W38150   5.939   5.958  14.250 -0.0037  0.2938  0.2938
23020W        W38151   2.851  16.951   0.603  0.0444  0.2339  0.0483
23021W        W38152  17.295  17.893  13.819 -0.1106  0.1305 -0.1077
23022W        W38153   6.452  17.368   3.701 -0.2283 -0.1601 -0.3673
23023W        W38154  13.043   3.253  10.986  0.1044 -0.3254 -0.1928
23024W        W38155   3.728  15.297   0.130  0.0440 -0.1562  0.2792
23025W        W38156  10.387   9.171   1.282  0.2098 -0.2191  0.0149
23026W        W38157   9.633   3.239   0.961  0.0933  0.1359 -0.1988
23027W        W38158  17.032   4.866   0.962  0.1899 -0.1674  0.0506
23028W        W38159  18.097   4.747  15.813  0.4192 -0.1874  0.2311
23029W        W38160   2.139   2.933  15.664 -0.1295  0.0379  0.4388
23030W        W38161   1.429   0.657   4.034  0.0271 -0.1469 -0.1974
23031W        W38162   7.036   4.943  11.734 -0.0329  0.2486 -0.1590
23032W        W38163  16.365   7.845   1.854  0.0401 -0.0750 -0.0372
23033W        W38164  15.619  10.572   6.564 -0.2041  0.0298 -0.0266
23034W        W38165   6.927  16.071   4.770 -0.3323 -0.0488 -0.0514
23035W        W38166   9.540  17.751  12.940  0.0572  0.2208 -0.0687
23036W        W38167   9.812   4.359   0.382  0.0761  0.0618  0.0237
23037W        W38168  13.364   3.856  15.317 -0.0651 -0.2125 -0.2525
23038W        W38169   6.635  16.234  15.079  0.0902 -0.1515  0.1193
23039W        W38170   1.481  13.073  14.758 -0.3462  0.4378 -0.1088
23040W        W38171  15.619   8.550   4.267  0.0471  0.4654 -0.1244
23041W        W38172   1.930   0.157   2.385  0.2014  0.0519  0.1428
23042W        W38173  15.188  14.227  14.143 -0.0603  0.1797 -0.0182
23043W        W38174   1.563  17.663  14.928  0.0867 -0.0868 -0.1067
23044W        W38175   0.369   9.679  13.184 -0.1036 -0.0762 -0.0731
23045W        W38176   1.549  16.611   0.755  0.2178  0.1544  0.3420
23046W        W38177   8.135   9.169  13.284 -0.2940  0.1188  0.0429
23047W        W38178  16.684   5.201  13.153  0.0026  0.1388  0.1959
23048W        W38179   6.143   0.182   1.324  0.1111  0.0146  0.1642
23049W        W38180   8.354   8.909   2.961  0.1936 -0.0566 -0.3483
23050W        W38181  14.047   3.215   5.735 -0.0357  0.0344 -0.0391
23051W        W38182   1.995   0.144   4.057 -0.3613  0.2291 -0.0054
23052W        W38183   1.827   3.395  11.841  0.2392 -0.2864  0.1677
23053W        W38184   2.993   2.977  13.190 -0.1677 -0.1018 -0.0636
23054W        W38185   5.249   9.685   0.408  0.1433  0.1247 -0.3762
23055W        W38186   3.438   3.947  15.926  0.0628  0.0510 -0.0587
23056W        W38187   3.023  16.569   9.954  0.2972  0.0765  0.0146
23057W        W38188  15.422  17.575  14.212  0.1600  0.1223  0.1980
23058W        W38189   1.773  10.140   3.965  0.2606  0.0069  0.1469
23059W        W38190   2.587  18.473   0.194  0.0240 -0.0790 -0.0259
23060W        W38191   9.076  15.587  15.464  0.1044  0.0407  0.1371
23061W        W38192   5.931  12.700   2.733  0.1628  0.0743  0.0666
23062W        W38193  11.117  11.108   3.353 -0.0793 -0.3708  0.2095
23063W        W38194  15.626  13.532  15.805  0.1788 -0.1965 -0.0294
23064W        W38195   3.651  13.368   4.197  0.1597 -0.0842 -0.2360
23065W        W38196  14.784   9.697   4.382 -0.5030  0.1730 -0.1900
23066W        W38197   1.997  15.966  15.455 -0.2861 -0.2080  0.0983
23067W        W38198  10.935  16.099   0.509  0.1283  0.0271 -0.0051
23068W        W38199  14.351   6.698   2.393  0.0585 -0.1101 -0.1271
23069W        W38200   8.059   1.775   4.476  0.4484 -0.2915 -0.1934
23070W        W38201  13.876  16.055  10.715  0.0949  0.1334  0.0550
23071W        W38202  14.408   4.635   9.834  0.0323  0.1957 -0.0264
23072W        W38203   7.179  16.012  13.868  0.0349  0.1108 -0.1382
23073W        W38204   9.056   5.604   4.013 -0.2403 -0.2752  0.3882
23074W        W38205   8.641  17.501  15.378  0.1216  0.0574  0.1585
23075W        W38206   0.838   0.718  11.828 -0.1094  0.0486  0.0894
23076W        W38207   0.231   8.695   5.331  0.0161 -0.1123  0.2197
23077W        W38208   5.818   2.098  15.827  0.2834 -0.1127 -0.1616
23078W        W38209   2.406   2.361   5.119 -0.0651 -0.1774 -0.2067
23079W        W38210  12.299  16.675   1.907 -0.3182 -0.1751 -0.1950
23080W        W38211   4.954   1.074  10.679  0.3094 -0.3233 -0.1443
23081W        W38212   4.887   5.797   1.803 -0.1316  0.1150  0.2796
23082W        W38213   2.510   0.851  12.447  0.0694  0.1004 -0.0569
23083W        W38214  16.035   0.882   0.091 -0.0440  0.1778 -0.0649
23084W        W38215  16.105   4.981   1.641 -0.1453  0.2336  0.0772
23085W        W38216   7.387  14.710   0.293  0.0365 -0.3446  0.5112
23086W        W38217   7.045  16.461   2.046  0.1667  0.1401  0.1742
23087W        W38218  16.027  12.353  10.975  0.0426  0.1875  0.0395
23088W        W38219   5.424   3.995   9.892 -0.5013 -0.2377  0.1383
23089W        W38220   9.186   1.149   4.612 -0.0454  0.3058 -0.1910
23090W        W38221  12.745   0.537   3.816  0.0597  0.1634 -0.2708
23091W        W38222   4.186  18.406  12.529 -0.3925  0.0022  0.0029
23092W        W38223  17.267   5.977   0.103 -0.2670  0.1419 -0.1926
23093W        W38224   2.364   3.850   5.025  0.4073  0.0595 -0.2299
23094W        W38225  17.295  16.042  13.797  0.1075  0.1328 -0.4295
23095W        W38226   8.964  15.402   0.125  0.1143  0.1059  0.0226
23096W        W38227  11.654  18.494   5.068  0.0329  0.3147  0.2601
23097W        W38228   1.400   9.538   4.572  0.2422  0.5315  0.2467
23098W        W38229   5.662  13.495  14.082 -0.2795  0.0138 -0.0854
23099W        W38230   6.453   5.648   0.015 -0.0426  0.0841 -0.0438
23100W        W38231   2.748  13.236  15.228 -0.0228  0.1139  0.1841
23101W        W38232   2.732  13.392  13.608  0.0446  0.0549  0.1677
23102W        W38233   5.607  16.414  13.038 -0.1381 -0.1417  0.1701
23103W        W38234  14.179  10.728  12.651 -0.0374  0.0323  0.2402
23104W        W38235  13.534   3.417  15.698  0.0078 -0.1286  0.0371
23105W        W38236   3.073   6.720   5.750  0.1500  0.0065 -0.0672
23106W        W38237   1.334   4.314  15.374 -0.1194  0.0066 -0.3078
23107W        W38238   4.648  11.423  11.887 -0.3416 -0.1949  0.1859
23108W        W38239   2.132   2.438   0.766  0.1251  0.1121 -0.1840
23109W        W38240  13.237  14.044   0.890  0.1090 -0.0337  0.0006
23110W        W38241  18.448   5.304   2.723 -0.0251 -0.1432 -0.1127
23111W        W38242  13.670  14.467   5.271  0.2536 -0.0883  0.0994
23112W        W38243  13.337   3.660  10.222  0.2369 -0.0125  0.2894
23113W        W38244  10.892  14.960  11.469 -0.0443  0.1241 -0.1698
23114W        W38245  16.685  12.499   3.954 -0.0471 -0.0800  0.1668
23115W        W38246   7.148   3.490   4.670 -0.2310 -0.2105  0.2381
23116W        W38247   9.554   0.711   4.745  0.5046 -0.0709 -0.1198
23117W        W38248  12.434   8.126  14.827  0.0682 -0.1524  0.2078
23118W        W38249  16.430   1.307   5.146  0.0020  0.0754  0.0873
23119W        W38250   8.769  18.200   5.129  0.1361  0.0290 -0.0688
23120W        W38251  10.591   1.132  15.025  0.1846 -0.0164  0.2675
23121W        W38252   0.745   9.486   1.504 -0.1925 -0.0159 -0.0624
23122W        W38253   8.446  13.714  14.970  0.0344 -0.1851  0.0757
23123W        W38254   9.987  15.265  12.897 -0.0385 -0.0861 -0.2435
23124W        W38255  15.019  16.565   3.141  0.1091  0.1913  0.0452
23125W        W38256   1.711  18.317  14.055 -0.0807  0.1532  0.1479
23126W        W38257   7.894   5.092   2.389 -0.0153 -0.0935  0.0459
23127W        W38258  14.942  12.167  11.419  0.2335 -0.0327  0.1075
23128W        W38259   0.306   9.742   4.142  0.1716  0.0636 -0.1765
23129W        W38260  13.303  13.958   2.635 -0.2941  0.0047 -0.1817
23130W        W38261   4.832   7.884  12.357  0.2244  0.1334  0.0583
23131W        W38262   6.990  12.543  14.594 -0.1246  0.1443  0.0898
23132W        W38263   5.555   1.409   1.600 -0.0633 -0.0803 -0.0220
23133W        W38264  12.957   8.400  11.338  0.3559 -0.1861 -0.0021
23134W        W38265  12.425  10.211  14.329 -0.1413 -0.0381  0.3868
23135W        W38266   5.718  17.882  15.402  0.2981  0.0244  0.0806
23136W        W38267   2.315  14.883   0.820  0.0383  0.0732  0.0699
23137W        W38268   6.961   9.574   3.714  0.0914  0.2265  0.1341
23138W        W38269   0.017  11.869  14.872 -0.2618  0.1014 -0.0594
23139W        W38270  14.271  15.447  12.571 -0.1404  0.2247  0.1237
23140W        W38271   0.882   5.297   3.156 -0.0340  0.2288  0.1287
23141W        W38272  10.064   2.047  12.099 -0.1960 -0.0344 -0.1546
23142W        W38273   9.693  12.679  12.331 -0.4011 -0.0396 -0.1929
23143W        W38274   7.233  17.837  11.902  0.2418  0.1196 -0.1017
23144W        W38275  11.716   2.154  11.508 -0.0468 -0.1497 -0.2303
23145W        W38276  15.028  11.620  14.332  0.0820  0.1593  0.2387
23146W        W38277   9.955  11.890   3.016  0.1056 -0.4369 -0.0578
23147W        W38278   8.687  12.327  15.176  0.4876 -0.0080  0.0211
23148W        W38279   3.372   3.060  14.827 -0.0776  0.0236  0.0937
23149W        W38280   6.312  17.082  14.828  0.2850  0.0285  0.0839
23150W        W38281  15.546  13.009   5.441  0.0238 -0.0741 -0.4946
23151W        W38282  16.286   5.514  14.467 -0.4720  0.1348  0.0591
23152W        W38283  16.984  14.505   0.323 -0.0448  0.0353 -0.0659
23153W        W38284  17.240  17.289   5.094 -0.1395 -0.2370 -0.0299
23154W        W38285   3.051   5.828  14.621 -0.2373 -0.0890  0.1844
23155W        W38286   9.660   7.053   4.402 -0.0635 -0.0194 -0.1925
23156W        W38287   8.260   3.485   2.606 -0.0510  0.1140 -0.2528
23157W        W38288   5.663   7.227  11.827  0.1576  0.2007  0.1796
23158W        W38289  11.470  15.989   9.504 -0.2671 -0.0530 -0.1222
23159W        W38290  10.271   5.149  15.112 -0.1544 -0.1370 -0.2679
23160W        W38291   4.092  16.464  15.492  0.1108 -0.0794  0.1372
23161W        W38292   3.361   6.019   1.343 -0.0209  0.2622 -0.2730
23162W        W38293   5.653  17.821  14.933 -0.1006  0.0998  0.1161
23163W        W38294   2.351   4.491  10.992  0.1041  0.2301  0.1069
23164W        W38295   5.286   2.235  15.934  0.5182  0.2683 -0.1342
23165W        W38296  10.548  18.286  12.881  0.0413 -0.2200 -0.3474
23166W        W38297  15.418   8.100   5.628 -0.1127 -0.1139 -0.0627
23167W        W38298  15.249  14.738   3.550 -0.2699 -0.1230  0.2324
23168W        W38299   1.952  13.777   5.530  0.1727  0.2496 -0.0017
23169W        W38300   7.334  12.670   3.950  0.0488  0.1994 -0.3381
23170W        W38301  16.968  13.513  13.968 -0.1539  0.0382  0.4488
23171W        W38302  16.358  15.346   2.893  0.0650 -0.0121  0.0150
23172W        W38303   8.122  15.995   4.892 -0.0833 -0.0567 -0.3339
23173W        W38304   6.300  15.089   3.092 -0.1273 -0.2443  0.0864
23174W        W38305   9.426  13.912   1.581 -0.3179  0.2423  0.1455
23175W        W38306  17.042  12.545  10.304 -0.1152 -0.2438 -0.0900
23176W        W38307   8.590  12.345  10.500  0.1308 -0.3188  0.0220
23177W        W38308   8.543  17.769   3.519 -0.3508  0.4077  0.0734
23178W        W38309   1.770  10.694   2.486 -0.0777  0.3423 -0.0869
23179W        W38310  17.846   1.403   4.309  0.0858  0.3003  0.0251
23180W        W38311   1.710   5.910   4.874  0.0165 -0.3739  0.0397
23181W        W38312   4.843  13.424  13.067 -0.0949 -0.0414 -0.2015
23182W        W38313  10.403  12.855   1.458 -0.0748  0.1106  0.0694
23183W        W38314  16.439  13.708  10.230 -0.0969 -0.2838 -0.0557
23184W        W38315  17.089  17.867  14.314 -0.1058 -0.1180  0.1150
23185W        W38316   9.649  13.405  15.880 -0.0250 -0.1631 -0.0083
23186W        W38317   5.082  14.555  15.747 -0.4209  0.2147 -0.1579
23187W        W38318  14.801  11.309  12.098  0.0420 -0.1644  0.1284
23188W        W38319   3.283  15.148  15.302  0.0457  0.1412 -0.0292
23189W        W38320   6.135   4.245  12.404 -0.0863 -0.0605 -0.0200
23190W        W38321  15.537   4.866   4.246  0.0004 -0.0387 -0.4518
23191W        W38322   6.568  18.552  10.734 -0.0993 -0.0705  0.2226
23192W        W38323   2.906  14.375  14.019 -0.0979  0.0717  0.0918
23193W        W38324   3.664  13.160  15.077  0.1113 -0.0906  0.1579
23194W        W38325  10.423   6.634  15.039  0.1400 -0.1545  0.0105
23195W        W38326   5.582  10.684  12.300 -0.2837 -0.3383  0.2186
23196W        W38327   2.664   1.037   1.224 -0.0964 -0.3702  0.4369
23197W        W38328   3.206   3.790   5.906 -0.3271 -0.0249 -0.3619
23198W        W38329   5.313   5.067   2.191 -0.1411  0.0043  0.1125
23199W        W38330  15.692   2.167   3.311  0.0953  0.0684 -0.2942
23200W        W38331  10.484   5.773  15.417  0.0465  0.2343 -0.1157
23201W        W38332  17.988   3.027  13.296 -0.0326  0.0948  0.0912
23202W        W38333  15.877  14.233  15.125  0.1403  0.3126 -0.1910
23203W        W38334  13.405   3.305  13.031 -0.1119 -0.3685  0.2457
23204W        W38335   5.984   0.593  15.537  0.0132 -0.0313 -0.2621
23205W        W38336   7.540  15.587  13.797  0.4014  0.1932 -0.0515
23206W        W38337   3.753   8.132  12.336  0.1515  0.1458 -0.0646
23207W        W38338   5.046   7.029   4.239  0.2050  0.1388 -0.1430
23208W        W38339   1.647  16.515  13.969 -0.0925  0.0816 -0.0360
23209W        W38340   7.296   4.417  11.139 -0.3433 -0.1470 -0.0408
23210W        W38341   4.012   5.251   4.549 -0.1718 -0.0632 -0.4345
23211W        W38342  18.510  15.553   2.197  0.0575  0.3079  0.2187
23212W        W38343  16.354   3.790   3.827 -0.0144  0.2083 -0.0209
23213W        W38344  17.118   1.518   1.210  0.0852 -0.2198 -0.0387
23214W        W38345  17.088   4.246  11.507  0.0936 -0.2284 -0.1089
23215W        W38346   2.562  18.065   3.676 -0.3973 -0.3235 -0.3289
23216W        W38347   4.876   3.198   3.438  0.0164 -0.0240 -0.1346
23217W        W38348   3.364   3.224   0.305  0.1124  0.0384 -0.2543
23218W        W38349  11.257   2.306  14.259  0.1170 -0.0002  0.0281
23219W        W38350   4.171   9.480  13.199 -0.0502  0.0780  0.0607
23220W        W38351  14.040   7.715   3.639 -0.4763  0.1898  0.1482
23221W        W38352  18.128  12.955   1.394 -0.1083 -0.0142  0.1954
23222W        W38353  17.759   8.126   6.536 -0.0557 -0.0084 -0.2446
23223W        W38354   4.126   8.188   3.995 -0.2572  0.4793  0.3506
23224W        W38355  17.464   8.110   2.409 -0.2431 -0.0127 -0.1038
23225W        W38356   2.402  13.831  11.216  0.2587  0.1264  0.2456
23226W        W38357   2.108  12.553   5.963  0.0138  0.0207 -0.2212
23227W        W38358   2.222   6.969  12.218 -0.0094 -0.2976 -0.1265
23228W        W38359   6.458   6.882   0.066 -0.1846 -0.2349 -0.0345
23229W        W38360   0.840   3.728   0.948 -0.2036 -0.0866 -0.2551
23230W        W38361   5.587  10.373  13.921  0.1480 -0.1664 -0.1931
23231W        W38362   5.962  16.407   2.641 -0.1891  0.3559 -0.0251
23232W        W38363   5.303  18.333  10.133 -0.1817  0.3008 -0.1957
23233W        W38364   1.934  11.310   4.474  0.0656  0.0194  0.1227
23234W        W38365  13.805  18.512   2.829  0.0759 -0.1991 -0.1482
23235W        W38366  13.450  16.065  11.035  0.0591  0.3616 -0.0298
23236W        W38367   8.021   1.426   2.256 -0.2172  0.2145  0.0429
23237W        W38368  17.104   3.811  11.710 -0.1607  0.1179  0.0099
23238W        W38369  14.633   7.729  10.527 -0.0500  0.0473 -0.1344
23239W        W38370  14.877  14.567   9.790  0.0183  0.0851 -0.1012
23240W        W38371   0.738   4.833   3.313  0.0253 -0.0004  0.2999
23241W        W38372  13.989   5.557  15.035 -0.0717  0.2370 -0.0931
23242W        W38373   7.163  14.096  11.134 -0.3650 -0.3229 -0.0386
23243W        W38374   5.932   4.033   9.914 -0.1740  0.3716  0.2388
23244W        W38375  13.900  12.710   0.411  0.1459  0.1235 -0.2742
23245W        W38376  13.522   4.720   0.057  0.1198 -0.0647 -0.2169
23246W        W38377   4.608  13.204   2.336  0.0758  0.1895  0.1905
23247W        W38378   9.258   5.253   5.446 -0.3544  0.1567 -0.2126
23248W        W38379   2.262   4.570  13.861 -0.0742  0.0828  0.1523
23249W        W38380   1.366  12.193   2.967 -0.0687 -0.2679 -0.1124
23250W        W38381   6.389   2.806   3.117 -0.1047 -0.1341 -0.2260
23251W        W38382  12.467  10.913   0.704  0.1181  0.0121  0.0916
23252W        W38383   4.369  17.672  15.743 -0.1095  0.1904  0.2493
23253W        W38384   8.749   9.831   4.757  0.0142 -0.0615 -0.0806
23254W        W38385  17.479   6.423  12.870  0.0466 -0.0106  0.1631
23255W        W38386   4.471  18.175   3.034  0.0411  0.2648  0.1065
23256W        W38387  10.935  16.843  11.016  0.2112 -0.0591 -0.2425
23257W        W38388   0.008   4.033  15.164 -0.1340  0.1300 -0.1434
23258W        W38389   8.211  10.927   2.824  0.2008  0.2576  0.2416
23259W        W38390   7.322   6.276   2.864 -0.1347  0.1223 -0.1954
23260W        W38391   9.507   3.200   5.606  0.4021 -0.0039 -0.3291
23261W        W38392  12.724  14.143   0.550  0.0134  0.1621 -0.1157
23262W        W38393   6.722   4.987   5.263 -0.0791 -0.3082 -0.1998
23263W        W38394  17.433   7.602   2.478 -0.5070  0.0701 -0.1899
23264W        W38395   7.076  11.260   0.409  0.1910 -0.2221  0.3157
23265W        W38396   4.452   8.375   5.901 -0.2493 -0.0692  0.0825
23266W        W38397   4.391  11.966  11.806  0.1333 -0.0131 -0.2113
23267W        W38398   1.854   9.066   1.329  0.1242 -0.2155 -0.0371
23268W        W38399  12.334   0.564   4.095 -0.1473  0.3905 -0.1812
23269W        W38400   8.442  16.105  14.424 -0.2313 -0.2348  0.1473
23270W        W38401  13.463   6.388  14.364  0.0943 -0.2270 -0.0472
23271W        W38402   2.591   2.899  11.025  0.1527 -0.1511  0.4050
23272W        W38403  14.377   0.926   5.054 -0.2266 -0.2504 -0.0963
23273W        W38404  15.785  18.201  11.821 -0.0333  0.0144 -0.3861
23274W        W38405  17.023   8.792   2.949  0.1421 -0.4500  0.0807
23275W        W38406   5.047   6.664  11.401 -0.1683  0.1734  0.1897
23276W        W38407   4.501  11.790   5.449  0.3363 -0.1341 -0.1788
23277W        W38408   6.694   1.760   4.842  0.1372 -0.2869  0.4586
23278W        W38409   6.520  14.602   3.140  0.0183 -0.2706  0.0408
23279W        W38410  12.261   8.955   3.489 -0.0883 -0.0946  0.3123
23280W        W38411  12.483  15.865   3.865  0.0265  0.0650  0.0139
23281W        W38412  11.481  15.040  13.463  0.2467 -0.0771 -0.0504
23282W        W38413   0.773  10.675   3.163  0.0370 -0.2834 -0.0339
23283W        W38414  15.115   9.207  14.265 -0.5073  0.3839 -0.1431
23284W        W38415   4.689   0.361  15.243 -0.2097 -0.1599 -0.0962
23285W        W38416   4.395   3.367   3.498 -0.1456 -0.0042 -0.0483
23286W        W38417  18.243   3.729  12.124  0.0124  0.3279 -0.0341
23287W        W38418   9.757   6.005   3.035 -0.0797  0.0134 -0.0792
23288W        W38419  12.209   0.799   5.454  0.0907 -0.0068  0.0482
23289W        W38420  11.723   6.504  11.127 -0.2590 -0.3201 -0.0367
23290W        W38421  13.041   6.907  13.689 -0.1659 -0.1620  0.2987
23291W        W38422   3.888  16.555   3.099 -0.0913  0.0077 -0.0785
23292W        W38423   3.994  13.053   4.904  0.4318  0.0531  0.2031
23293W        W38424   0.049   4.454   5.316  0.2378 -0.1042 -0.1287
23294W        W38425   9.600  11.603   2.895 -0.0744  0.0558  0.0191
23295W        W38426   6.738   0.557   0.186 -0.0800 -0.0776  0.1851
23296W        W38427   7.607  11.870   2.436 -0.0640 -0.0144 -0.1326
23297W        W38428   1.423   2.487  11.225 -0.2218 -0.1625  0.0560
23298W        W38429   5.238  15.379  15.085 -0.0948  0.0355 -0.2254
23299W        W38430   0.284  18.052  10.711 -0.0092  0.0317 -0.0958
23300W        W38431   6.344   6.259   4.726  0.1504 -0.0324  0.0564
23301W        W38432   7.932  10.494   3.546 -0.0614  0.0917  0.1698
23302W        W38433  12.733  12.947  14.704 -0.1358 -0.2306 -0.0237
23303W        W38434   9.197  12.374  13.256  0.0210  0.0155 -0.0077
23304W        W38435   9.403   7.969   3.575  0.4638 -0.1349 -0.2542
23305W        W38436   0.883   7.763   1.387  0.0434 -0.2715  0.2343
23306W        W38437  10.859   5.812   2.331 -0.1696 -0.1569 -0.0370
23307W        W38438  15.405  16.444  14.266  0.0809 -0.3086  0.1921
23308W        W38439  16.143   0.390   0.100 -0.0539  0.2710  0.2169
23309W        W38440  18.253   1.536  13.006  0.3547  0.0066  0.1248
23310W        W38441  17.669  14.866  11.025  0.1226  0.0713 -0.0013
23311W        W38442   9.080  15.214  13.442 -0.1826 -0.0556 -0.0450
23312W        W38443   0.362   5.116  15.388 -0.2898  0.1263  0.1897
23313W        W38444  15.943  16.908  12.991  0.0127 -0.2154 -0.0398
23314W        W38445  14.440   0.715   2.313  0.0338  0.1758  0.3301
23315W        W38446   2.410  13.433  11.547 -0.2364  0.2342  0.2354
23316W        W38447   1.179  18.377   0.309  0.0300  0.0645 -0.0138
23317W        W38448   2.938  16.822  13.385 -0.0124 -0.1031 -0.1486
23318W        W38449  11.751   7.448  13.108 -0.0789  0.0825  0.0740
23319W        W38450  10.656   3.550  15.912  0.0760 -0.1939  0.1054
23320W        W38451  17.578  14.778   1.352  0.0514 -0.0430  0.1764
23321W        W38452  17.707  16.964  14.137 -0.4865 -0.2340 -0.0440
23322W        W38453  15.806   5.364  11.478  0.0634  0.0417  0.2689
23323W        W38454  18.381   6.974  11.221 -0.2423  0.2493 -0.2979
23324W        W38455   0.032   2.126  12.735 -0.0171 -0.0786  0.3048
23325W        W38456  15.649   8.486   5.796 -0.0219  0.4275 -0.0011
23326W        W38457  16.236  11.097   5.489 -0.2789 -0.0224 -0.0353
23327W        W38458   3.827   7.695   6.196 -0.1353  0.2256 -0.2335
23328W        W38459   8.696   0.622  11.967  0.0724 -0.0056 -0.2395
23329W        W38460  18.460   5.067  11.997  0.1426 -0.0472 -0.2024
23330W        W38461   3.334   0.513  15.374  0.0677 -0.1133  0.3064
23331W        W38462  14.442  17.280  15.773  0.0035  0.2636  0.1418
23332W        W38463   9.336   9.879  12.905  0.1545  0.0815 -0.0664
23333W        W38464  10.837  13.902  11.548  0.6009 -0.1345  0.2544
23334W        W38465  13.860   7.382  11.533 -0.1955  0.0362 -0.0034
23335W        W38466  17.636  18.496  10.859  0.0933 -0.1961  0.3713
23336W        W38467  10.783   7.115   2.008  0.0473  0.4077  0.2389
23337W        W38468   8.024   0.506  15.466 -0.1628  0.0120 -0.0826
23338W        W38469   7.725   8.011  12.161  0.1025  0.0256 -0.2406
23339W        W38470   9.852   8.612   1.915 -0.0106 -0.1090  0.1355
23340W        W38471  11.975   3.812   3.681  0.0919  0.2146  0.0126
23341W        W38472  15.526  10.325   0.192 -0.3886  0.1590 -0.3326
23342W        W38473   9.023  14.808  13.091  0.2629  0.0627 -0.3607
23343W        W38474   4.515  11.975  11.203  0.1635  0.0881 -0.1375
23344W        W38475   9.306   8.032  13.474 -0.2578  0.1824  0.2891
23345W        W38476   3.941   2.597   0.493  0.1228 -0.0669 -0.0858
23346W        W38477  15.591  18.455   3.288 -0.0514 -0.1324  0.1240
23347W        W38478  11.125   3.330  10.705  0.0240 -0.2437 -0.0428
23348W        W38479   8.478   3.016  14.381 -0.0694  0.0452 -0.1310
23349W        W38480  12.483  12.180   3.808 -0.1271  0.3648 -0.2573
23350W        W38481  15.980  14.299  13.581  0.0516  0.1499  0.2825
23351W        W38482   3.190  15.185   0.212 -0.2076 -0.2242  0.1027
23352W        W38483   6.826   4.390  11.333  0.3062  0.0212 -0.0920
23353W        W38484  16.202   2.897  12.240 -0.2517 -0.0371  0.1639
23354W        W38485  10.327   3.077   3.687  0.0693 -0.2162 -0.0090
23355W        W38486   5.725  18.244   2.185 -0.0422 -0.3599 -0.1074
23356W        W38487  10.738   8.572   2.157 -0.0576  0.1574  0.3634
23357W        W38488  16.675  15.794   2.758  0.1586 -0.0900 -0.0109
23358W        W38489  18.391   1.184  14.729 -0.0881 -0.3393  0.1864
23359W        W38490  14.818  16.744   6.230 -0.0928 -0.0322 -0.0064
23360W        W38491  13.683   8.006   5.488  0.1052 -0.2195 -0.2497
23361W        W38492  17.027   8.928   4.191 -0.1958 -0.3893  0.0562
23362W        W38493  10.271   4.464  14.369 -0.0106 -0.1544  0.2175
23363W        W38494  17.900   3.017   2.605  0.2012 -0.1498  0.2196
23364W        W38495  14.093  16.903  10.693  0.0008 -0.2294 -0.0295
23365W        W38496   5.776  17.196  13.155  0.1076 -0.0322 -0.3585
23366W        W38497   5.472   4.263  14.771 -0.1707 -0.0495  0.2109
23367W        W38498   8.445   1.582   4.749  0.1137  0.2358 -0.0929
23368W        W38499  12.756  10.109  10.619 -0.0338 -0.0349  0.1147
23369W        W38500  13.633   2.166   3.612 -0.0361 -0.2666 -0.2340
23370W        W38501  17.046   4.070   0.613  0.1744 -0.1516 -0.0810
23371W        W38502  15.064  12.458  14.077  0.3982 -0.2014 -0.1298
23372W        W38503  16.170   9.122  15.160  0.1412 -0.1225 -0.2043
23373W        W38504  11.991  10.428  10.294  0.2158 -0.0718  0.1866
23374W        W38505  10.429  15.955  13.643  0.2325  0.0579 -0.4603
23375W        W38506  15.667   0.728  13.587 -0.0077 -0.0991 -0.2473
23376W        W38507  14.896  11.475   5.311  0.1865 -0.0748  0.0715
23377W        W38508   4.081  16.974  10.863 -0.0148  0.2086  0.1027
23378W        W38509  12.855  13.155  10.705  0.3240 -0.0458 -0.1114
23379W        W38510   7.694   9.749   9.905  0.0594  0.0411 -0.1655
23380W        W38511   5.614  13.798   3.392 -0.0003 -0.0769  0.0291
23381W        W38512  12.557   1.545   3.278 -0.1090 -0.4160 -0.2225
23382W        W38513  14.057  17.002  13.373  0.2324  0.2977 -0.3080
23383W        W38514  10.968  14.741  12.147 -0.0739  0.2922  0.0362
23384W        W38515  14.680   2.876  12.250  0.0565 -0.0721 -0.0167
23385W        W38516  10.537   3.579  11.056 -0.2580  0.0448  0.0014
23386W        W38517   9.039   0.616   4.676  0.0607 -0.2575  0.0685
23387W        W38518  11.321  15.721  12.135 -0.0067  0.1706 -0.0443
23388W        W38519  15.904   6.803   1.559 -0.0883 -0.2383  0.1609
23389W        W38520   3.446  16.256  13.018 -0.2602  0.1741  0.0309
23390W        W38521   9.839   1.124  14.612 -0.3402 -0.2650 -0.0158
23391W        W38522   3.211   1.946   4.940 -0.1121 -0.0894 -0.1029
23392W        W38523   2.151  10.104   0.642  0.1658  0.3427 -0.3530
23393W        W38524   8.821  11.388  15.561  0.3812 -0.1847 -0.4486
23394W        W38525   6.469  13.328   2.970  0.1177  0.0433 -0.2154
23395W        W38526  10.872   7.201   3.940  0.1089  0.1139 -0.1860
23396W        W38527  14.199   4.051   9.935  0.1596  0.1308 -0.4083
23397W        W38528  14.423  12.526  13.637  0.0282 -0.0489  0.2607
23398W        W38529  14.926   1.834  14.894  0.0000 -0.1728 -0.1198
23399W        W38530   8.154   8.643  15.742 -0.0591  0.0513 -0.2639
23400W        W38531   9.415   4.344  15.342  0.1135  0.0231 -0.0754
23401W        W38532   3.540   1.114   4.549 -0.3135 -0.2960 -0.3412
23402W        W38533  17.172  12.383  13.564  0.0733 -0.1935 -0.1908
23403W        W38534   2.911   9.174   5.568 -0.2588  0.0790  0.2789
23404W        W38535  17.647   2.371   0.942  0.2928  0.2351  0.0078
23405W        W38536   5.320   3.800  14.648 -0.0707  0.1635 -0.2531
23406W        W38537  13.353  13.411   5.665 -0.0158  0.0114  0.2683
23407W        W38538   0.905   7.942  13.491 -0.0672  0.1374  0.1612
23408W        W38539  12.338   1.820   4.212  0.1364 -0.0206  0.1427
23409W        W38540   4.134  16.377   0.063  0.2037  0.0876  0.3095
23410W        W38541  16.692   7.681   0.767 -0.0129 -0.1423  0.1888
23411W        W38542   5.724   2.100   4.777  0.0473  0.3578 -0.0019
23412W        W38543   6.761  16.357  14.098  0.0510 -0.1240 -0.0395
23413W        W38544   4.509   0.049   4.102  0.1550 -0.0089  0.4007
23414W        W38545   1.934   3.653  14.883  0.0149  0.3209 -0.0740
23415W        W38546   4.429  15.667   2.816  0.1567 -0.0312  0.2609
23416W        W38547   3.740  14.675  11.897  0.0217  0.1034  0.2981
23417W        W38548  12.742  15.122  10.622 -0.0936 -0.0613  0.3934
23418W        W38549   2.010  12.880  14.129 -0.1011 -0.1741  0.0748
23419W        W38550   3.177  10.578   5.747  0.1092  0.0948 -0.2245
23420W        W38551   0.383   0.061  15.890 -0.1043 -0.1259  0.2005
23421W        W38552   9.151   2.064   1.068  0.0916  0.1633 -0.2076
23422W        W38553   4.111   3.488   0.545 -0.1210 -0.0237 -0.0873
23423W        W38554   9.628  13.831   2.634  0.0180  0.0537 -0.1746
23424W        W38555   1.175  16.874   3.001  0.3115  0.1880  0.1213
23425W        W38556  10.765  11.503  15.119 -0.2428 -0.2631 -0.0836
23426W        W38557   9.875  11.694  14.828  0.0796  0.1044  0.0017
23427W        W38558   2.604   5.309  15.616 -0.0419 -0.1412  0.1295
23428W        W38559   4.300   7.975   2.271 -0.1639 -0.0430 -0.0754
23429W        W38560   5.116   5.084  10.544 -0.3159  0.0788 -0.0451
23430W        W38561   8.658  11.592   3.925  0.0612  0.0228 -0.1166
23431W        W38562  11.708   8.795   2.600 -0.0171  0.0780 -0.0166
23432W        W38563   3.474  15.843  11.694  0.2102 -0.4279 -0.1054
23433W        W38564  16.054   0.333   3.609  0.2403  0.0209  0.0920
23434W        W38565  15.571   9.391   5.788 -0.1964  0.3613 -0.2013
23435W        W38566   5.313   4.634   5.147 -0.0765 -0.4475  0.0944
23436W        W38567  15.684   0.089  11.539 -0.1374 -0.1731 -0.1002
23437W        W38568  10.396   1.368   3.310 -0.2879 -0.1071  0.0839
23438W        W38569  17.322   9.952  11.608 -0.2018 -0.0613 -0.0712
23439W        W38570  10.921   4.232   1.804  0.0420 -0.0509 -0.2261
23440W        W38571  11.555   8.659   2.091 -0.1304  0.1229  0.1613
23441W        W38572   7.677   5.509  11.719 -0.0269 -0.2080  0.0727
23442W        W38573  17.991  13.977  12.579  0.1534 -0.1500 -0.0525
23443W        W38574   6.230   9.960  14.359 -0.1606  0.1606  0.2044
23444W        W38575  14.407   3.193  10.821  0.2058  0.1313  0.0352
23445W        W38576   0.334  14.582   0.014 -0.1176  0.0778 -0.0290
23446W        W38577   2.086  15.654  10.840  0.1278  0.4752 -0.3118
23447W        W38578   9.335   5.009   3.776 -0.0732 -0.0838  0.2053
23448W        W38579   3.340  17.680  14.676 -0.4623  0.0966 -0.0894
23449W        W38580  15.612   8.174   3.774  0.1122 -0.0287 -0.2727
23450W        W38581  11.312  12.542  14.809 -0.5132  0.3703  0.1926
23451W        W38582  14.126   6.440   3.913  0.0652 -0.0704  0.0563
23452W        W38583  15.757   4.062  12.753  0.3124 -0.0671  0.2387
23453W        W38584  18.228   3.346   6.155  0.0657 -0.1296 -0.2872
23454W        W38585   0.372   4.207   4.892  0.0311  0.0420  0.2097
23455W        W38586   4.127   4.268   3.005 -0.0003 -0.1054  0.0532
23456W        W38587   2.396   2.778  12.622 -0.1254  0.0329 -0.0970
23457W        W38588   7.134  16.869   3.103  0.0750 -0.3886 -0.0145
23458W        W38589  16.044  11.913  12.445  0.0477  0.1945  0.0823
23459W        W38590  12.116  16.152   4.587 -0.0906 -0.3086 -0.2157
23460W        W38591   9.386   9.497  13.632  0.3246 -0.1970  0.1725
23461W        W38592   8.903   6.026  12.277  0.0459  0.0257  0.0740
23462W        W38593   1.498  13.510   3.698  0.1562  0.2869 -0.3808
23463W        W38594   6.818   0.293  13.297  0.1234 -0.1444  0.1505
23464W        W38595  14.560   0.328   3.578 -0.1795 -0.0061 -0.2117
23465W        W38596   0.599   6.557   4.577 -0.0776 -0.3124  0.1324
23466W        W38597   6.731   9.932   5.260  0.1026 -0.0725  0.0083
23467W        W38598   3.907   4.836  11.144 -0.1280 -0.0401  0.1171
23468W        W38599   6.340  15.742  11.302  0.0733 -0.0562 -0.1184
23469W        W38600  10.741   5.072  14.905  0.0029  0.3662 -0.0833
23470W        W38601  16.780   0.370   2.645  0.4209 -0.2997 -0.0792
23471W        W38602  17.928   4.334  12.003  0.1440 -0.0225  0.1651
23472W        W38603   9.388   0.448  13.165  0.0458 -0.0398  0.3020
23473W        W38604   5.589   6.785   5.680  0.0398 -0.0844  0.0310
23474W        W38605   4.539  18.468   3.596 -0.2156 -0.2929  0.0499
23475W        W38606   6.371   9.868   2.165  0.3050  0.0554 -0.3962
23476W        W38607   0.163  11.905   5.206  0.4781 -0.0542  0.0582
23477W        W38608  14.525  14.607   3.143  0.2169 -0.2695  0.0046
23478W        W38609   2.054  13.549  11.016  0.3285 -0.2072 -0.3364
23479W        W38610   8.516   5.103  11.708 -0.0741 -0.0257 -0.1652
23480W        W38611   4.927  10.761   3.942 -0.1840 -0.1730  0.1096
23481W        W38612  15.951  18.021   3.391  0.1721  0.2294  0.0297
23482W        W38613  11.683  11.307   2.932  0.0026 -0.2362 -0.0755
23483W        W38614  11.867   8.159   0.784  0.0507  0.1493  0.1724
23484W        W38615  14.708  18.455   3.378  0.2247  0.1483 -0.0502
23485W        W38616  12.889   4.265  11.537 -0.0637  0.2631  0.6162
23486W        W38617  16.188   2.905  14.657 -0.2620  0.0186  0.0716
23487W        W38618   3.010   8.964  12.784  0.3389  0.2404  0.1428
23488W        W38619   1.492   9.078   2.023 -0.0068  0.1673 -0.1304
23489W        W38620   4.515   0.014  14.123  0.1883  0.2015 -0.0715
23490W        W38621   1.051   8.063   3.465  0.1774  0.2937 -0.2365
23491W        W38622   7.363  18.339   1.006 -0.2881 -0.5492  0.5216
23492W        W38623  16.445   5.089  10.939 -0.1190 -0.4693 -0.1024
23493W        W38624  16.605   8.410   5.002  0.2151  0.0755  0.0473
23494W        W38625  12.934   1.185   4.306 -0.0484 -0.0170 -0.1863
23495W        W38626   8.110   1.747   0.180 -0.4198 -0.0297 -0.2893
23496W        W38627   6.235  14.661   1.562 -0.2489 -0.2704 -0.2377
23497W        W38628  12.850  14.412  13.230  0.1562  0.0599  0.1123
23498W        W38629   1.140   3.221   3.182 -0.3300  0.0080  0.1756
23499W        W38630  17.157   8.537   2.489  0.1305 -0.1156 -0.2928
23500W        W38631  11.472   1.203   0.652 -0.1247 -0.1300 -0.1940
23501W        W38632  16.314  16.067   2.003  0.0665 -0.3784 -0.4581
23502W        W38633   3.830   9.781   3.614  0.0495  0.0842  0.1955
23503W        W38634  16.885  15.459  11.157 -0.0199  0.1302 -0.2788
23504W        W38635  15.054  17.725  13.921 -0.1206 -0.1477 -0.1632
23505W        W38636   6.607   7.565  13.558 -0.0791  0.0255 -0.2320
23506W        W38637   0.602  11.883  12.314 -0.2252  0.2538  0.0837
23507W        W38638   9.708  17.493   2.936  0.0088  0.0749  0.1175
23508W        W38639   2.261   9.112   4.478  0.1259  0.0674 -0.2341
23509W        W38640  13.783   7.070   4.529 -0.0792  0.1479 -0.0591
23510W        W38641   2.444  17.392  15.011 -0.0996  0.0576  0.1553
23511W        W38642  13.370  10.904   3.075 -0.0214  0.3488  0.2131
23512W        W38643   3.177   3.364  11.731 -0.0595  0.4098 -0.0449
23513W        W38644  18.561  14.792   0.670  0.0373  0.1055 -0.0791
23514W        W38645   1.963   7.464   2.147 -0.1166 -0.3449 -0.0535
23515W        W38646   2.701   0.779  11.652 -0.0306  0.1278 -0.1966
23516W        W38647   3.884  17.537  15.599 -0.3516 -0.2966 -0.4841
23517W        W38648  12.679   8.323  13.560  0.0074  0.2912 -0.0193
23518W        W38649   8.520   7.613  13.752 -0.1686  0.0026 -0.2035
23519W        W38650  15.890  16.422   3.564  0.0132  0.3225  0.0537
23520W        W38651   3.322   9.375   3.900  0.1490 -0.0397 -0.1266
23521W        W38652   8.779  16.624  15.592 -0.1120 -0.0034  0.1669
23522W        W38653  12.401   2.139   1.077 -0.1572  0.2791 -0.0805
23523W        W38654  17.408  11.676   3.615  0.0581  0.1483  0.0008
23524W        W38655   9.852   5.050  12.058 -0.1798 -0.2442 -0.1188
23525W        W38656  12.168  17.169  13.085 -0.2705 -0.0644  0.3635
23526W        W38657  10.737   9.078   3.615  0.1277  0.0517  0.3444
23527W        W38658  13.155  14.100  13.977  0.0006  0.2109 -0.2104
23528W        W38659  15.820  13.238   0.801  0.2938 -0.3287 -0.2250
23529W        W38660   7.167  10.702   5.009 -0.1217 -0.1829  0.0269
23530W        W38661  18.288  18.430   1.545 -0.2948  0.2229  0.0129
23531W        W38662  11.836  13.157  13.390  0.1837 -0.4663 -0.0219
23532W        W38663   4.741   2.163   3.335  0.2391 -0.2173  0.1219
23533W        W38664   9.871  14.620   0.400  0.0926  0.1578 -0.1204
23534W        W38665   5.628  14.142   1.707 -0.1653 -0.1810  0.2599
23535W        W38666  12.821   3.170   2.322  0.0579  0.1351  0.0610
23536W        W38667   7.466   0.633  12.987 -0.0252  0.2034  0.0252
23537W        W38668   8.610  14.530   1.899  0.0237  0.1136 -0.1308
23538W        W38669  16.129  14.247  11.766  0.0619  0.1538 -0.0318
23539W        W38670   0.246   3.460  12.884 -0.0219 -0.1408 -0.1903
23540W        W38671  15.215  15.809   0.477  0.0328  0.1042  0.3307
23541W        W38672  12.924  17.331   4.725  0.3692  0.3773  0.0309
23542W        W38673  15.366  13.190  15.574  0.0694 -0.0095  0.2271
23543W        W38674   8.880   3.730  11.552 -0.1373 -0.0387  0.1643
23544W        W38675  11.967  13.218  12.261  0.3754  0.0864  0.0624
23545W        W38676  14.283  11.395  12.149  0.2219  0.2040 -0.2944
23546W        W38677   4.147   2.886  10.296  0.2286 -0.3093 -0.0336
23547W        W38678   1.738  16.534   2.885  0.0731  0.1669 -0.1418
23548W        W38679  15.643   0.821  12.728 -0.1624  0.0652  0.0947
23549W        W38680   0.934  13.878   5.411  0.1543  0.1379 -0.1246
23550W        W38681  13.211   9.249  11.651 -0.1061 -0.0685  0.0680
23551W        W38682   5.307  13.264   1.499  0.1704  0.0620 -0.1650
23552W        W38683  12.295  18.300  12.806 -0.1906  0.3132 -0.2952
23553W        W38684  18.045  12.330   2.280  0.0974  0.1160  0.1814
23554W        W38685  10.962   9.774   1.765  0.2260 -0.0453 -0.1458
23555W        W38686  16.930  10.770   4.480 -0.1035 -0.1972  0.1294
23556W        W38687  10.828  10.702   1.934  0.2437  0.3326 -0.1113
23557W        W38688  18.201  15.035  11.485  0.2176 -0.3673 -0.2287
23558W        W38689  12.291  14.780  15.660  0.0333 -0.5116  0.0427
23559W        W38690   9.054   4.649  15.484  0.0338 -0.4579  0.1146
23560W        W38691  12.485   6.690  11.177  0.1847  0.0899  0.1321
23561W        W38692   3.356   6.301  13.404  0.3443  0.2561  0.2730
23562W        W38693  13.333  15.171  11.566  0.2803  0.0690 -0.4192
23563W        W38694   9.227   4.336   2.477 -0.2818  0.1277  0.2152
23564W        W38695  14.053   3.718   5.752 -0.0870 -0.1436  0.1757
23565W        W38696   5.261   9.973   9.794 -0.1392 -0.0727  0.1375
23566W        W38697   1.658   6.801  13.001 -0.0422 -0.0200 -0.1906
23567W        W38698  18.267  17.029   3.191 -0.3067 -0.0152 -0.1906
23568W        W38699  18.143  12.017   4.311 -0.1531 -0.1746  0.0292
23569W        W38700   3.517   2.255   4.698  0.2484  0.2475  0.1841
23570W        W38701   5.721   2.992  14.524  0.0849 -0.0618  0.0633
23571W        W38702   6.166   4.288   3.473  0.1578 -0.1718 -0.2870
23572W        W38703  11.944  11.679   5.692  0.1713 -0.1353  0.0183
23573W        W38704  14.856  15.297  13.711  0.0009 -0.1192  0.0489
23574W        W38705  13.701  15.945   4.137 -0.2216  0.2931  0.0858
23575W        W38706  18.219   6.267  14.888 -0.2026  0.1806  0.0693
23576W        W38707   0.845  14.324  15.690  0.4403  0.0642 -0.5409
23577W        W38708  18.252   1.382   1.952 -0.1206 -0.0955 -0.1988
23578W        W38709   2.851   2.782   5.087 -0.2554  0.2814  0.0578
23579W        W38710  10.427  13.254   1.196 -0.2861 -0.0048  0.2123
23580W        W38711  10.519   6.980   0.362  0.1149 -0.0339  0.0901
23581W        W38712  10.141   2.853   2.397  0.1589 -0.0265 -0.2507
23582W        W38713   2.450  15.283  11.047 -0.0133  0.2334 -0.3526
23583W        W38714  14.053   0.734  13.771  0.0400 -0.2175 -0.3487
23584W        W38715   6.880   4.288  12.874 -0.0363 -0.4977 -0.0465
23585W        W38716  10.059  14.485   1.559 -0.1952  0.4087  0.3425
23586W        W38717  11.780  17.218  15.773 -0.1770 -0.2504 -0.5897
23587W        W38718   4.718   8.851  10.248  0.2702  0.3932  0.0660
23588W        W38719   4.736   7.559  11.972  0.2138 -0.1383  0.0849
23589W        W38720  15.282  15.910   5.532 -0.0843 -0.0633 -0.0447
23590W        W38721   5.025   5.721   2.944 -0.0554  0.1610 -0.0293
23591W        W38722   9.237   3.934   1.637 -0.3060  0.1103  0.0608
23592W        W38723   2.930   2.023   3.176  0.1928 -0.1692 -0.1398
23593W        W38724   3.377   2.677   4.951 -0.1227 -0.2469 -0.1197
23594W        W38725   1.338  11.493   2.727 -0.0095  0.1306 -0.2581
23595W        W38726   7.305   2.986  10.886  0.0364  0.1245 -0.0728
23596W        W38727   1.525   0.385  10.537 -0.2124 -0.0529  0.1753
23597W        W38728   8.507  13.913   1.737  0.0292 -0.1820  0.0565
23598W        W38729   3.760  11.417  15.806 -0.0309  0.4146 -0.2692
23599W        W38730   8.402   4.588  12.572 -0.0326  0.0866  0.0861
23600W        W38731  13.020  16.210  10.215 -0.1359  0.0955  0.3598
23601W        W38732   2.850   8.399  12.686  0.2273 -0.3631 -0.3398
23602W        W38733  17.233   7.491  15.436 -0.1177  0.1822  0.2745
23603W        W38734  18.509   2.107  15.852 -0.2675 -0.2384  0.1032
23604W        W38735  13.257   2.573  12.774 -0.0581  0.1340 -0.4816
23605W        W38736  11.109  12.444   2.795  0.0720  0.4161  0.0467
23606W        W38737   1.210  12.898   2.938  0.0496 -0.0111 -0.0284
23607W        W38738   9.928  12.321  13.083  0.0438  0.3184  0.1618
23608W        W38739   6.486  13.832  14.167  0.0741  0.0532  0.0209
23609W        W38740  16.048   8.044   3.485 -0.1305  0.0599  0.2335
23610W        W38741  15.728  17.710  11.822 -0.2427  0.1518 -0.0905
23611W        W38742  11.488   6.649  15.866  0.0289  0.0640  0.0253
23612W        W38743  11.341  16.805  10.550 -0.1420 -0.2858  0.1811
23613W        W38744   5.684  15.150  15.116  0.1826 -0.1716 -0.1440
23614W        W38745   0.831   7.199   0.178 -0.0811 -0.1742 -0.1846
23615W        W38746   5.992   7.796  15.225 -0.1304  0.0691 -0.0320
23616W        W38747  14.665   9.767  12.000  0.1763  0.1102  0.0176
23617W        W38748  11.917  16.321  13.651 -0.0725 -0.0864  0.1561
23618W        W38749  12.476   5.086  13.248 -0.1806 -0.0048 -0.0177
23619W        W38750  13.295  15.550  11.997 -0.0579  0.3943 -0.3423
23620W        W38751  15.834   8.363  15.645 -0.0283  0.1044 -0.1216
23621W        W38752  12.551  15.716  13.111 -0.0228 -0.0481  0.0020
23622W        W38753  15.570   8.986  15.206 -0.1084 -0.1038  0.0779
23623W        W38754  14.557  11.318  14.334 -0.0426 -0.0814 -0.2568
23624W        W38755   5.834  16.424  13.531  0.1331 -0.0467  0.2565
23625W        W38756  10.081   7.875  10.709 -0.1705  0.0520  0.0294
23626W        W38757   9.246  12.143  11.802  0.3452  0.1185 -0.0869
23627W        W38758  12.808  13.564  13.764  0.0730 -0.0855 -0.0131
23628W        W38759  17.451   4.660  11.858 -0.0385  0.0914 -0.0202
23629W        W38760  18.186  16.622  12.765  0.1594 -0.1400 -0.0560
23630W        W38761  10.510  13.129  11.944  0.1124  0.0980  0.1849
23631W        W38762   5.542  16.514   1.678 -0.2071 -0.0130 -0.0760
23632W        W38763  10.587   6.975   1.525  0.0908 -0.4047 -0.2764
23633W        W38764  13.054  10.564  12.019  0.0499 -0.2299 -0.1393
23634W        W38765   1.178  16.212   3.480 -0.1324 -0.0906 -0.4868
23635W        W38766  15.741   3.635  14.302 -0.0972 -0.1134  0.0576
23636W        W38767  11.327  15.000   4.750  0.2266 -0.1202 -0.0611
23637W        W38768   8.422  17.949   1.569 -0.1576  0.1754  0.2928
23638W        W38769   6.959  18.382  14.310  0.3300 -0.1109  0.2067
23639W        W38770  14.892   3.438   4.266 -0.0680 -0.0965 -0.1354
23640W        W38771  17.880  18.436   0.379 -0.3004  0.1453  0.1228
23641W        W38772   5.888   0.546   0.533  0.0910  0.1988  0.0473
23642W        W38773  18.043   9.411  10.133 -0.2295 -0.5070 -0.0237
23643W        W38774  14.948  14.311   2.732 -0.1810 -0.3203 -0.0199
23644W        W38775   8.724   8.686  11.446 -0.1137 -0.2202  0.0506
23645W        W38776  11.012  10.028  11.856 -0.2723 -0.3406 -0.0952
23646W        W38777  10.250   3.482  14.488 -0.0685 -0.1986  0.2035
23647W        W38778  15.280   2.296  12.001  0.2500 -0.1435 -0.1735
23648W        W38779   2.005   4.981   5.866  0.0645 -0.2465  0.0259
23649W        W38780  17.061  12.397   0.296 -0.1796  0.4040 -0.0898
23650W        W38781  12.414   6.029   5.340 -0.1314 -0.1754  0.0859
23651W        W38782   9.512  11.035   0.310 -0.1352  0.1016  0.0993
23652W        W38783  17.441   6.498  15.471  0.3536  0.2192  0.1352
23653W        W38784  17.549  10.054   2.380  0.0329  0.1251  0.2415
23654W        W38785   4.025  11.130   1.787 -0.1584 -0.2701  0.0510
23655W        W38786   6.703   0.442   3.089  0.0285  0.1023 -0.0329
23656W        W38787   1.338  14.675   2.276  0.0287  0.0311 -0.3181
23657W        W38788  11.432  12.417  11.707 -0.2277 -0.1412 -0.3423
23658W        W38789   7.649   6.927  11.564 -0.0015 -0.1816  0.0243
23659W        W38790   0.172  15.708  13.432  0.2632 -0.0325 -0.1781
23660W        W38791  14.579   5.892   4.448 -0.1778  0.1640 -0.4549
23661W        W38792   8.426   9.682   2.811  0.0261  0.1478 -0.1048
23662W        W38793   5.351   4.347   2.748 -0.3364 -0.2317  0.1731
23663W        W38794   4.892  13.421   2.768  0.0950 -0.3873 -0.2593
23664W        W38795  18.445  16.998   1.480  0.0504 -0.1809 -0.1615
23665W        W38796  18.016  10.298   2.730  0.1456 -0.1061  0.0491
23666W        W38797   6.332   5.121   5.603 -0.1636  0.1773 -0.0551
23667W        W38798   8.095  16.635  15.247  0.1442  0.0349 -0.0599
23668W        W38799  10.018  18.340  10.205 -0.0360  0.1021 -0.2269
23669W        W38800   6.562  10.773   3.958 -0.0196  0.0885  0.1297
23670W        W38801  11.488  11.437  15.396 -0.2260 -0.4140 -0.2110
23671W        W38802  13.500  10.459   2.829 -0.3717  0.2148  0.4017
23672W        W38803  15.412   1.138   4.412  0.0124 -0.2829  0.0755
23673W        W38804   2.735  10.735  12.031  0.1346 -0.2797 -0.2007
23674W        W38805   3.100  18.505  10.918 -0.3083 -0.1286  0.1915
23675W        W38806   4.121   9.914   5.001 -0.0888  0.0367 -0.0485
23676W        W38807   4.820   6.953  15.486  0.0772 -0.1303 -0.2180
23677W        W38808  10.587   2.412  14.786 -0.2139  0.1195 -0.2943
23678W        W38809   2.449   5.645  14.256  0.2078 -0.2961  0.2537
23679W        W38810   6.304  17.774   1.717  0.1260  0.4737  0.2195
23680W        W38811  16.547   3.730  15.340 -0.0350 -0.0498  0.1664
23681W        W38812   8.273   3.501  13.513  0.1787  0.1014  0.2422
23682W        W38813  13.578   2.402   0.704  0.2489  0.3073  0.2509
23683W        W38814   2.459   6.047  13.905 -0.2764  0.5698 -0.3947
23684W        W38815  18.028   7.117   0.437 -0.1077  0.0647  0.1798
23685W        W38816  12.957  10.989   0.446  0.2723  0.1492 -0.0092
23686W        W38817  17.714   8.653   0.695  0.1335 -0.4885 -0.2321
23687W        W38818   5.735  11.422   2.870 -0.3165  0.3161 -0.2280
23688W        W38819  13.493   2.604   3.260 -0.0360  0.0467  0.1945
23689W        W38820   8.607  10.704   5.159 -0.2042 -0.4706 -0.0166
23690W        W38821   2.042   1.529   2.508 -0.0005 -0.0798 -0.0247
23691W        W38822  15.822  11.084   0.559  0.1441  0.2815 -0.0602
23692W        W38823  11.303  16.912  14.154  0.0767  0.1152  0.1414
23693W        W38824   2.084   8.784   0.964  0.0036  0.3333  0.0171
23694W        W38825   6.794   2.981   5.938  0.6448  0.1644 -0.1839
23695W        W38826   4.532  13.690   4.552  0.0729  0.0759  0.1453
23696W        W38827  12.883  16.971  14.338 -0.0135  0.0509  0.1295
23697W        W38828   9.210   3.727   5.320 -0.0459 -0.2071  0.1039
23698W        W38829   5.464   6.353  13.778 -0.1136 -0.0852  0.1978
23699W        W38830  13.247  11.821   1.229  0.3073 -0.0262  0.0979
23700W        W38831   5.486   8.357  11.144  0.0742  0.1090 -0.0114
23701W        W38832   6.973   3.934   9.892 -0.1231 -0.1122 -0.2210
23702W        W38833  11.363  17.132  13.287  0.1414  0.1023 -0.2148
23703W        W38834  10.885  10.350  12.966 -0.5410 -0.1121  0.2000
23704W        W38835  17.839  16.848   4.552 -0.0732  0.3261 -0.0547
23705W        W38836   3.484  10.253   2.953 -0.1409  0.2426  0.0410
23706W        W38837  17.550   8.512   0.234  0.1163  0.1718 -0.3725
23707W        W38838   8.778   0.024  15.753  0.0365 -0.1768 -0.0947
23708W        W38839   8.538   5.465   3.917 -0.0425  0.0155 -0.0194
23709W        W38840   3.813   4.557   1.632 -0.1290  0.2288 -0.1906
23710W        W38841  14.478  17.757   2.354 -0.0555  0.2631  0.2415
23711W        W38842   5.910   8.262   2.353  0.1749 -0.2749 -0.1600
23712W        W38843  11.239  15.454  15.468 -0.1736 -0.2545 -0.2449
23713W        W38844  16.619  15.983  12.727 -0.1629 -0.0650  0.1000
23714W        W38845   3.259  14.481  14.671 -0.0960 -0.1145  0.1957
23715W        W38846  17.921   3.253  11.744 -0.3233 -0.0444 -0.1785
23716W        W38847   7.416   5.052   4.334  0.3066  0.2202 -0.1176
23717W        W38848  10.245   6.670  13.432 -0.1455  0.0322  0.0841
23718W        W38849   6.456  11.627  11.056  0.1042  0.0651  0.0823
23719W        W38850  14.203   8.161  12.849  0.1065 -0.2564  0.0044
23720W        W38851  16.727   8.547  15.718  0.0200 -0.0182  0.1806
23721W        W38852   7.343   6.696   5.208 -0.1279 -0.1719 -0.3596
23722W        W38853  15.896   8.282   4.565 -0.0484  0.0336  0.1296
23723W        W38854  13.236  15.788  15.424 -0.1977  0.0365  0.3200
23724W        W38855  14.163   1.298   4.604  0.0589  0.1496 -0.0902
23725W        W38856   3.411  12.733   1.741  0.3362  0.0429  0.2244
23726W        W38857   5.010  13.129  12.606  0.0142 -0.1082  0.1083
23727W        W38858  15.362  16.666   2.738  0.0659 -0.2489  0.0225
23728W        W38859  13.978   9.196  11.114 -0.1018 -0.0084  0.1251
23729W        W38860   6.142   2.135   2.607 -0.3570  0.2830  0.0028
23730W        W38861   3.243  12.840  10.553  0.1506  0.1722  0.0108
23731W        W38862   7.701  18.524   1.350  0.0095  0.2547  0.1612
23732W        W38863  15.607   1.116  12.352  0.1632 -0.2232 -0.2322
23733W        W38864  18.413  14.933  15.129  0.4078  0.2460 -0.0160
23734W        W38865   6.169  10.893  14.162 -0.1358 -0.0023 -0.2796
23735W        W38866   9.516  17.757  15.239  0.1898  0.1874 -0.2036
23736W        W38867   6.612  18.116   0.363  0.2074  0.4493 -0.3088
23737W        W38868  11.243   2.869  14.097  0.0728  0.0100 -0.0531
23738W        W38869  13.886  16.705   0.007  0.0511  0.1243 -0.2666
23739W        W38870   7.896   0.391  12.633  0.4085  0.0528 -0.1812
23740W        W38871  16.792  13.950   3.828  0.1084 -0.0181  0.0326
23741W        W38872  15.497   0.637   5.123  0.0626 -0.0618 -0.3324
23742W        W38873   7.802  18.359   0.014 -0.0929 -0.0524  0.0086
23743W        W38874   7.579  17.629   2.509  0.2158 -0.0935  0.2230
23744W        W38875   1.409   5.026  15.942 -0.0316 -0.0381 -0.3162
23745W        W38876   2.746   7.930   2.881 -0.1665 -0.0312 -0.2511
23746W        W38877   7.800  17.765   5.115  0.1444  0.2961  0.1088
23747W        W38878  18.214  16.128  13.694  0.1141 -0.0393  0.0126
23748W        W38879  16.230  15.106   2.328  0.1306  0.3185 -0.3680
23749W        W38880  17.547   2.025  15.525 -0.0201  0.0071  0.0784
23750W        W38881   6.790  10.021   2.304 -0.5845  0.0156  0.1683
23751W        W38882  17.157   8.818  13.001  0.0656 -0.4039  0.1978
23752W        W38883   0.552   4.142  11.331 -0.1632 -0.3553 -0.1872
23753W        W38884   3.043  12.916  12.049 -0.3464  0.2090  0.0913
23754W        W38885   0.639  11.089   6.263  0.0285 -0.1222 -0.3081
23755W        W38886  13.110   6.845   4.104  0.0476  0.0290  0.3297
23756W        W38887  17.630  17.458   9.959 -0.1095  0.2682  0.0322
23757W        W38888   7.749   6.490   2.756  0.2825  0.0638  0.0320
23758W        W38889   5.138  15.200   3.759 -0.0834 -0.0163 -0.3226
23759W        W38890  17.490   2.395   4.718 -0.0587 -0.0724  0.0738
23760W        W38891  11.940  12.498  11.910 -0.0401 -0.2461 -0.0061
23761W        W38892  18.486  13.104   2.760 -0.0729 -0.1132  0.0175
23762W        W38893  13.081   3.214   5.918  0.1571  0.0099  0.1189
23763W        W38894  13.201   6.055   2.383 -0.1425 -0.2842  0.0823
23764W        W38895   8.438   9.576   0.967  0.0934  0.2402 -0.2613
23765W        W38896   2.014  15.530  15.179 -0.0138  0.1979  0.2574
23766W        W38897  18.438  13.775  11.214 -0.0537  0.2003 -0.2234
23767W        W38898  15.006   7.110   5.827  0.3128 -0.0926 -0.0214
23768W        W38899   2.279   5.438   1.080  0.1946 -0.1254  0.3699
23769W        W38900  15.913   1.878   4.608  0.2022  0.4077  0.0699
23770W        W38901   2.120  17.259   0.297  0.0731 -0.0993  0.0715
23771W        W38902   0.709  12.165   3.696 -0.2282  0.0267  0.2214
23772W        W38903   2.243   6.098  11.539 -0.0954  0.1769  0.2086
23773W        W38904  16.171   6.399   0.272  0.3648 -0.1983  0.0079
23774W        W38905   4.874   0.505   1.152 -0.0102  0.4660 -0.0065
23775W        W38906   4.173  13.581  12.597  0.1374 -0.2758  0.0583
23776W        W38907  11.282   5.703   3.670 -0.0409 -0.2705 -0.2593
23777W        W38908  15.161   0.445  14.756 -0.1245  0.1639  0.1396
23778W        W38909  13.570  11.067  12.892  0.0800 -0.0218 -0.0973
23779W        W38910   3.555  14.048   1.982  0.1266  0.0392  0.1666
23780W        W38911   3.203  15.703  10.932  0.1049  0.1321  0.0205
23781W        W38912   6.472   5.150   6.112  0.1470 -0.1373  0.0128
23782W        W38913  17.598   9.751  11.213 -0.1093  0.1783 -0.0467
23783W        W38914  10.531   6.207  15.657 -0.1532 -0.0449 -0.2778
23784W        W38915   0.192   0.721   0.220  0.1322  0.1437 -0.2416
23785W        W38916   9.941  16.258   0.194 -0.2767 -0.2735  0.2302
23786W        W38917   0.786   8.017   5.805  0.0724 -0.1671  0.2312
23787W        W38918  15.957   9.992   0.910  0.1094 -0.1063 -0.2340
23788W        W38919   6.329   9.590   5.256  0.2858  0.0596  0.1562
23789W        W38920  18.473  13.859   3.869 -0.1829  0.0025 -0.1924
23790W        W38921   1.601   1.112  15.877  0.0029  0.0677 -0.2639
23791W        W38922  13.997  11.285   2.432 -0.2016 -0.0584  0.0788
23792W        W38923  16.454   4.685   4.335  0.0903 -0.0365 -0.0661
23793W        W38924   0.391   7.598  14.831  0.0494  0.0044 -0.0905
23794W        W38925  18.304  10.339  15.239  0.0339 -0.1326  0.2202
23795W        W38926   0.966  13.482  10.906 -0.1315  0.2369 -0.0886
23796W        W38927  11.669  10.717  14.754 -0.1548  0.1573  0.1797
23797W        W38928  15.035   3.832  13.824  0.0541  0.0908  0.2424
23798W        W38929   4.524  17.956  14.185  0.1060  0.0619  0.0719
23799W        W38930  12.012   6.358   1.430 -0.2444  0.0942 -0.0083
23800W        W38931   0.183  11.292   4.716  0.1137  0.1850  0.1840
23801W        W38932  12.175   2.855   3.510  0.3648  0.3463 -0.1959
23802W        W38933   2.332   4.954   4.372  0.0094  0.0274  0.1910
23803W        W38934   3.142   3.346  13.515 -0.1186  0.0259 -0.0480
23804W        W38935   3.469   8.023   2.626  0.3100  0.5702 -0.2933
23805W        W38936   3.658   6.561   2.176  0.1706  0.0496  0.2585
23806W        W38937  13.645   5.199  15.718 -0.0127  0.0276  0.0951
23807W        W38938  10.573   0.847   0.445 -0.2437 -0.0725 -0.0619
23808W        W38939   6.812   1.002  12.589 -0.1304  0.2372  0.0371
23809W        W38940  10.561   5.244   2.832 -0.0532  0.2516 -0.2444
23810W        W38941   9.449   9.213   3.881 -0.0949  0.1893 -0.3610
23811W        W38942  13.979   8.383  14.189  0.3932 -0.2619 -0.0751
23812W        W38943   0.486   4.594   4.590 -0.1395 -0.0310 -0.2013
23813W        W38944   3.979   4.244  13.167  0.3075 -0.2062  0.0352
23814W        W38945   6.895  15.156   2.313  0.1402 -0.1210 -0.1053
23815W        W38946  11.717   0.099   3.432  0.3458  0.0429 -0.5052
23816W        W38947  16.857  12.986  14.279  0.2725 -0.3225  0.1338
23817W        W38948   6.427  18.153  12.192  0.1546  0.1778 -0.1057
23818W        W38949  18.239  17.749   5.912 -0.3125 -0.2291  0.1236
23819W        W38950  14.429   1.585  11.524  0.2850  0.2269  0.0742
23820W        W38951  16.387   6.849  10.468 -0.3067  0.1722 -0.3385
23821W        W38952   5.308  17.702  11.697 -0.0472 -0.1710  0.0845
23822W        W38953   4.015   4.254   6.616  0.2237  0.0962  0.4664
23823W        W38954   7.211  11.207  13.838  0.0177  0.0925 -0.1599
23824W        W38955   2.312   9.755   4.946 -0.1704  0.3852  0.0883
23825W        W38956  10.921  13.714  13.338 -0.2102 -0.3068 -0.3732
23826W        W38957  16.475  13.540   4.646  0.2603 -0.0317 -0.1522
23827W        W38958   1.395  10.216   5.559  0.2168 -0.2855 -0.0493
23828W        W38959   5.581  17.207  13.830  0.0236  0.0405  0.0396
23829W        W38960   6.212   2.142   1.272 -0.3870 -0.1069 -0.2023
23830W        W38961  10.919   6.351  12.707 -0.0346  0.0906 -0.0533
23831W        W38962   8.617   6.353   5.456 -0.0512 -0.1730  0.3191
23832W        W38963  14.294   8.405   4.982 -0.0255 -0.0312  0.0199
23833W        W38964   6.820   3.037  12.670  0.1310 -0.1064 -0.1007
23834W        W38965  10.275  18.256   4.239  0.1699 -0.1388 -0.0999
23835W        W38966   4.771  16.752   2.093 -0.3524  0.0572 -0.0018
23836W        W38967   4.450  15.933  11.996 -0.1137 -0.0910 -0.0590
23837W        W38968  12.585  14.277  15.233  0.1631  0.2481  0.0413
23838W        W38969   4.502   3.853   4.936 -0.0888 -0.1893 -0.2571
23839W        W38970   0.725   9.455  14.429 -0.2227 -0.0055  0.1163
23840W        W38971  15.212   2.719   5.994 -0.0761 -0.2070 -0.0839
23841W        W38972   6.889  12.653   0.417  0.2487 -0.5093 -0.3646
23842W        W38973  10.943  11.920  10.286 -0.0081 -0.0279 -0.0614
23843W        W38974   4.645   8.004   3.788 -0.2077  0.0401 -0.2135
23844W        W38975   3.929   1.330  10.881  0.0418 -0.3415 -0.0526
23845W        W38976  13.782   3.266   0.224  0.2893  0.1187 -0.2206
23846W        W38977   8.432  17.954  10.128 -0.1161  0.0679 -0.2349
23847W        W38978   8.798   8.381   0.219 -0.0009 -0.0715  0.0474
23848W        W38979   3.309  12.006   0.267 -0.0302 -0.0527 -0.0506
23849W        W38980  18.091   5.206  13.086 -0.2747  0.2343 -0.1639
23850W        W38981  16.244  17.370   1.540 -0.1788  0.0994 -0.3677
23851W        W38982   2.160  14.371   3.649  0.1026  0.0203 -0.1749
23852W        W38983  10.900  13.292  10.704  0.1522  0.0643  0.2330
23853W        W38984   8.806   2.347   0.633 -0.1433  0.0938 -0.0722
23854W        W38985  18.532  11.273   3.245 -0.2013 -0.1830  0.2161
23855W        W38986   7.858   6.477  14.400 -0.0303 -0.0385 -0.1702
23856W        W38987  16.059  14.055  14.200 -0.1685 -0.3783 -0.1142
23857W        W38988   5.469  13.942   5.205 -0.1899  0.1994 -0.0108
23858W        W38989   0.458  16.849  15.697  0.2533  0.0578  0.0455
23859W        W38990   6.234   3.216   3.477  0.0233  0.1657  0.0472
23860W        W38991  17.939  17.553   5.383  0.1833 -0.2376 -0.1007
23861W        W38992   7.876  12.717  10.930  0.1269 -0.3479 -0.0010
23862W        W38993  11.752  10.102   3.692 -0.1856 -0.1473  0.2771
23863W        W38994   0.560   5.215  12.234 -0.2356  0.1156 -0.0171
23864W        W38995  18.401   6.950  15.329  0.1740 -0.2820 -0.0184
23865W        W38996   3.246   9.976   1.334 -0.1438  0.2999 -0.1515
23866W        W38997   2.798  17.219   4.775 -0.0561 -0.0812 -0.0151
23867W        W38998  13.598   4.145   0.135 -0.1248 -0.0777 -0.0320
23868W        W38999   4.924  17.159  14.610 -0.3149 -0.1996  0.1041
23869W        W39000   6.983   9.205  12.211 -0.2261 -0.0897  0.1934
23870W        W39001   4.852  11.694  11.391  0.1369  0.0883 -0.0037
23871W        W39002   5.021   4.604  14.589  0.1352 -0.0192 -0.5485
23872W        W39003   3.062  14.075  13.172  0.3782 -0.0524  0.2407
23873W        W39004   7.562   0.550   5.702 -0.3585  0.1625  0.0584
23874W        W39005   3.926  17.978  10.135 -0.2130  0.0116 -0.1027
23875W        W39006   9.495  16.994  11.686 -0.3046 -0.3174  0.1845
23876W        W39007   6.884   5.333   4.856 -0.1215 -0.0575 -0.2418
23877W        W39008   2.780  12.202  10.762 -0.0308 -0.4135  0.0257
23878W        W39009   3.207  18.041  10.816 -0.0293 -0.1491  0.1232
23879W        W39010   4.851   2.449   0.266  0.1284 -0.2165  0.1077
23880W        W39011   9.700  17.744  13.966  0.3402  0.1167  0.3661
23881W        W39012  11.293   8.769  11.966  0.2169 -0.0346  0.0787
23882W        W39013   5.356   4.970  12.478 -0.0436  0.1809  0.0122
23883W        W39014  12.374   1.934  10.278  0.1503  0.0463 -0.3084
23884W        W39015  17.573  16.073   4.296  0.3618 -0.2458 -0.3080
23885W        W39016   3.590   4.436   5.683  0.1305 -0.2909  0.1288
23886W        W39017   7.038  12.548  12.424  0.3131 -0.1886 -0.3741
23887W        W39018  17.358   4.065  14.771  0.0893 -0.4354  0.1216
23888W        W39019   9.653  18.148   5.052 -0.4885 -0.2265 -0.0577
23889W        W39020   9.111   1.242  14.673  0.0603  0.2828 -0.3546
23890W        W39021  16.229   7.832   2.358  0.1535 -0.2111 -0.0567
23891W        W39022   5.846   9.270  11.854 -0.3984 -0.2168 -0.0742
23892W        W39023   2.156   6.782   4.333 -0.2737 -0.1280  0.0828
23893W        W39024  13.812  15.361  11.348 -0.0136 -0.2877 -0.1629
23894W        W39025   9.984   1.438  15.855 -0.3087 -0.0969  0.0134
23895W        W39026  11.499  11.706   3.165 -0.1324  0.0266  0.0864
23896W        W39027  11.296   1.904  10.730 -0.0178  0.0507  0.2662
23897W        W39028  11.242  13.061   0.790  0.1633  0.0597  0.0216
23898W        W39029   1.541  11.205   3.784  0.0835  0.0451 -0.0290
23899W        W39030   5.242  10.355  11.001 -0.0063 -0.2353  0.0278
23900W        W39031   2.202   9.112  12.366 -0.0611 -0.2045 -0.3737
23901W        W39032   7.630  12.510   2.535 -0.2846  0.1188  0.2298
23902W        W39033   0.660  13.443  14.845  0.2911  0.1380 -0.0630
23903W        W39034  14.326  16.220  12.674  0.2410 -0.2424  0.2368
23904W        W39035   9.990  17.993   2.582 -0.0135  0.3114 -0.2427
23905W        W39036   6.145   9.948   3.511  0.1020 -0.3621  0.0757
23906W        W39037   6.404  14.198  15.719  0.0303 -0.1776  0.1078
23907W        W39038  11.002  16.428   3.271  0.0587  0.0517  0.0085
23908W        W39039   8.971  18.239   4.270  0.2203  0.1079 -0.3815
23909W        W39040  10.167  16.428   1.131  0.3001 -0.0347 -0.1095
23910W        W39041  14.489  14.876   0.626  0.1816  0.0705  0.0735
23911W        W39042  11.362  17.309   3.373  0.2325  0.0267 -0.1961
23912W        W39043   8.002   0.936   3.754 -0.0416 -0.2117 -0.0716
23913W        W39044   4.004  12.258  15.108 -0.2745  0.3810  0.1111
23914W        W39045   3.219  17.233   9.673  0.2091  0.1481 -0.0475
23915W        W39046  14.441   5.648   5.419  0.1554  0.0107 -0.0797
23916W        W39047   3.416  17.421   2.852 -0.0066 -0.0631 -0.0387
23917W        W39048  15.879  10.012  11.050  0.3555  0.0742 -0.1363
23918W        W39049   6.251  17.359  15.697  0.0682  0.0440  0.3418
23919W        W39050   6.464  18.086   4.312 -0.0083 -0.1174 -0.1640
23920W        W39051  12.013  16.751  15.475 -0.2271  0.1699 -0.3358
23921W        W39052  10.896   4.544   1.374 -0.1041  0.0110  0.0461
23922W        W39053  11.799  13.505   5.467  0.0333  0.0298  0.0780
23923W        W39054  11.008   6.952   0.534  0.1921 -0.2336  0.1937
23924W        W39055  16.319  13.772   3.877  0.0754 -0.1116 -0.1836
23925W        W39056   1.696   8.996  12.899 -0.1876 -0.2404  0.2667
23926W        W39057   9.777   4.938   2.828  0.1137  0.0036 -0.4237
23927W        W39058   2.579  13.833   1.349  0.0484 -0.0890 -0.0028
23928W        W39059   4.306  10.165   2.802 -0.0770  0.0386  0.1327
23929W        W39060  16.550  14.877  13.223 -0.0389 -0.2195  0.4721
23930W        W39061   5.422  14.796  13.797 -0.0134 -0.4220  0.0569
23931W        W39062   4.459   7.774  13.698 -0.0075  0.0287  0.1937
23932W        W39063   7.614  18.242  10.817 -0.0806  0.1550  0.2472
23933W        W39064  13.999  16.565  12.558 -0.1573  0.2783  0.0077
23934W        W39065  10.660   3.522   3.994  0.1635  0.0568  0.0700
23935W        W39066   3.701  14.740  14.934  0.1641 -0.0035  0.0672
23936W        W39067   3.219  12.582  13.536  0.0224  0.0552  0.3167
23937W        W39068   3.527   6.897   5.653  0.2801 -0.1060 -0.2103
23938W        W39069   6.928   5.278  10.060 -0.0620  0.0788 -0.2741
23939W        W39070   4.314  13.907   5.058  0.0478  0.0607 -0.0572
23940W        W39071  11.621  11.422   4.886 -0.1554 -0.1076  0.3404
23941W        W39072  17.598   4.082  13.470 -0.3070  0.2970  0.2497
23942W        W39073   3.139  12.545  10.941  0.3768  0.2997  0.0769
23943W        W39074  15.876   9.158  14.770  0.3451  0.0896 -0.5879
23944W        W39075   9.668  18.538  11.226  0.3154  0.1931  0.0440
23945W        W39076   6.389   0.253   3.661 -0.0521  0.0419 -0.0873
23946W        W39077   1.999  11.202   2.297  0.1318 -0.0263 -0.3481
23947W        W39078  15.425  14.412   3.879  0.1240 -0.1187 -0.0011
23948W        W39079  11.849   8.920  10.811 -0.1048  0.1139 -0.2580
23949W        W39080  18.385  14.101   3.471  0.0821  0.0718 -0.0180
23950W        W39081  16.965   7.433   4.417  0.4321  0.0877  0.3269
23951W        W39082  14.796  11.515  13.913  0.0017  0.2088 -0.0572
23952W        W39083  17.658   2.252   0.437  0.1119 -0.2824 -0.3284
23953W        W39084   4.586   4.587  12.642  0.0391  0.1261  0.3255
23954W        W39085  13.289  11.062  12.141  0.1322 -0.1042 -0.0278
23955W        W39086  15.876   8.589   1.816 -0.0397 -0.2534  0.1177
23956W        W39087   8.557   0.453  15.543  0.1292 -0.3291  0.0819
23957W        W39088  11.686  15.113  15.002 -0.0889  0.1477  0.0724
23958W        W39089  17.775  17.097  15.207  0.0865 -0.2522 -0.0406
23959W        W39090  16.125  17.092  15.180  0.1111  0.1670  0.0879
23960W        W39091  17.143  16.385  10.109 -0.1752 -0.0082  0.1051
23961W        W39092  13.282   4.587   1.054 -0.0462 -0.1644 -0.1529
23962W        W39093   1.980   1.876  14.264 -0.4312 -0.1209  0.1008
23963W        W39094   5.566   7.949   3.756 -0.0772 -0.2051  0.1580
23964W        W39095   8.877  18.435  14.226  0.3945 -0.2538  0.4017
23965W        W39096   8.897  11.377   4.608  0.2365  0.2076  0.0932
23966W        W39097   8.693  15.654   4.240  0.0679  0.2020  0.1238
23967W        W39098  10.405   4.891  13.619  0.0480  0.1400 -0.4786
23968W        W39099   4.294   0.985  15.680  0.0291  0.1812  0.4541
23969W        W39100   6.357   1.571  14.362 -0.0194 -0.1844 -0.2085
23970W        W39101  10.240   5.465  15.697 -0.0292  0.0959  0.1564
23971W        W39102  10.510  15.032  13.734  0.2837  0.0870  0.7935
23972W        W39103   2.726   3.493   3.487  0.1998 -0.1108  0.0813
23973W        W39104   4.855   4.444   0.001 -0.1802  0.2173  0.0943
23974W        W39105  16.569  16.109   4.731 -0.1093  0.2521 -0.1630
23975W        W39106  18.298  15.121   1.849 -0.1041  0.0897 -0.0023
23976W        W39107   9.794  15.901   4.412 -0.1225  0.1567 -0.0715
23977W        W39108  11.002  15.352   4.538 -0.1235  0.5062 -0.1045
23978W        W39109   7.495   9.825  11.556 -0.0455 -0.1189  0.1351
23979W        W39110  13.625   5.377  14.676  0.4312  0.4351 -0.5208
23980W        W39111  18.143   9.581  15.500 -0.0547  0.0704  0.1974
23981W        W39112   6.322  15.326  10.992 -0.0391 -0.0721  0.1600
23982W        W39113  14.524   1.662   4.437 -0.0978  0.3120 -0.1022
23983W        W39114   7.400   9.158  11.211  0.3837 -0.2656 -0.1854
23984W        W39115   0.845   2.255  13.014  0.2784 -0.0847  0.0547
23985W        W39116   1.569  12.757  10.462 -0.2332  0.0804  0.0433
23986W        W39117   4.526   2.113  15.265 -0.0824 -0.0338 -0.2263
23987W        W39118  15.571  14.763   1.323 -0.2094 -0.0584  0.3806
23988W        W39119  11.182  10.267   4.826 -0.0398  0.1287  0.3088
23989W        W39120  14.396  10.327   0.799 -0.1050 -0.0935  0.1297
23990W        W39121   4.372   1.268  14.086  0.2604  0.5564 -0.2032
23991W        W39122   2.514   1.583   3.212  0.0782 -0.0607 -0.1360
23992W        W39123  16.050  14.916   2.766  0.0043  0.1925 -0.0478
23993W        W39124   4.034   0.694   0.466 -0.0014  0.2074 -0.1059
23994W        W39125   3.277   2.147   2.829 -0.0949  0.1646 -0.0727
23995W        W39126   4.810   1.848  15.567  0.2685  0.0050  0.0041
23996W        W39127   6.124  12.026   0.896 -0.1156 -0.1794 -0.1870
23997W        W39128   4.479  10.649   3.908  0.0449 -0.1609  0.4877
23998W        W39129   8.066  15.070  12.339 -0.0320 -0.1890 -0.0429
23999W        W39130   0.734  15.218   4.863  0.1174 -0.0333 -0.0675
24000W        W39131  15.816   5.318   5.428 -0.1156 -0.2656 -0.0791
24001W        W39132   4.163  13.216   3.181 -0.1096 -0.1656 -0.2233
24002W        W39133  13.396   2.210  10.557  0.1330  0.2881  0.1157
24003W        W39134  15.628   5.192   4.775 -0.2724  0.2476 -0.1397
24004W        W39135   7.367  15.670  12.007 -0.0642 -0.0056  0.0403
24005W        W39136  11.098  12.488  11.188 -0.2029  0.4969 -0.0473
24006W        W39137  18.268  17.043   1.001 -0.2261  0.0463 -0.3137
24007W        W39138   9.324  13.001   5.180  0.3542 -0.2323  0.1222
24008W        W39139  16.482  14.601   6.200  0.4604  0.2351 -0.5715
24009W        W39140   7.881   3.607  15.390 -0.0763 -0.3626  0.1669
24010W        W39141  18.241  10.446   0.804  0.0718 -0.2352  0.0279
24011W        W39142  14.911  12.927   4.196 -0.0319  0.1128 -0.0084
24012W        W39143   6.845  17.248  13.536  0.0102  0.1317 -0.1249
24013W        W39144  16.769   8.513   4.118  0.3618  0.1854  0.3671
24014W        W39145  11.616   6.969   2.651  0.0996  0.1258 -0.1137
24015W        W39146   8.153   4.906  13.728 -0.1837  0.3042  0.0064
24016W        W39147  11.834   1.807   4.519 -0.0007 -0.0682 -0.2751
24017W        W39148   1.305   4.999   3.108  0.1348 -0.0498 -0.1429
24018W        W39149  13.804  18.381  14.661  0.1027 -0.4260 -0.3972
24019W        W39150   0.053   4.587   4.839 -0.3490 -0.1060  0.2384
24020W        W39151  14.722   6.252  15.306  0.0748 -0.2210  0.1731
24021W        W39152   0.215   0.146  10.129 -0.0036  0.1228 -0.4182
24022W        W39153   1.531  11.800   2.451 -0.2580  0.0792  0.0593
24023W        W39154   7.222   1.048   3.742  0.0824 -0.2055  0.4355
24024W        W39155   7.186  13.825  10.612  0.1051  0.1272  0.2792
24025W        W39156   4.954  10.347   4.836  0.2623 -0.0633  0.1626
24026W        W39157  16.569  12.080   0.529  0.0285 -0.3212 -0.1610
24027W        W39158  14.900  14.042  14.530  0.1418  0.4521  0.2423
24028W        W39159  16.899  12.969   2.102  0.2065 -0.1480  0.0237
24029W        W39160   1.206   2.468  13.314  0.2781 -0.0753  0.0967
24030W        W39161  14.242  14.926   0.099 -0.0476 -0.0343 -0.1265
24031W        W39162   5.861   8.407   0.684  0.0398 -0.1542 -0.0950
24032W        W39163  18.425  18.400   9.826 -0.0288  0.0177 -0.0791
24033W        W39164  17.519   7.206  12.163 -0.0260  0.2612 -0.2712
24034W        W39165  10.072   6.042   1.326 -0.0803 -0.2092  0.0442
24035W        W39166   5.873   4.867  13.330  0.1691 -0.1047 -0.1486
24036W        W39167   1.696  10.036   0.930  0.1034  0.0422  0.0484
24037W        W39168   7.609   2.961   0.083  0.1964 -0.0592  0.1761
24038W        W39169  11.092  14.616   1.806 -0.3372 -0.1146 -0.0272
24039W        W39170   9.839  13.137  15.411 -0.0222  0.0695  0.0499
24040W        W39171  11.537  16.473  14.014  0.3956  0.1447 -0.0702
24041W        W39172  11.072   9.455  13.969 -0.3236  0.0189  0.2177
24042W        W39173  13.618   1.041  11.266 -0.2633 -0.2765  0.2586
24043W        W39174   2.608   7.195   1.684  0.1745 -0.0096  0.1174
24044W        W39175   3.912  17.420   2.605  0.2410  0.1516  0.0167
24045W        W39176   7.363   1.722  12.415  0.3181 -0.3672  0.2599
24046W        W39177   6.778  11.823   1.934  0.0471 -0.1792 -0.1909
24047W        W39178   2.677   0.919  12.937 -0.0834  0.1381  0.0156
24048W        W39179  16.309   5.937   0.270  0.0256  0.0631  0.1823
24049W        W39180   7.837   9.402   5.818 -0.0124 -0.0368 -0.4598
24050W        W39181  10.841   9.056   2.398  0.0040  0.0923  0.4782
24051W        W39182  12.942  16.538   1.281  0.3233  0.0635 -0.0738
24052W        W39183  17.075  16.774  12.852  0.0843 -0.2151  0.2309
24053W        W39184   0.928   3.864  11.516 -0.6317 -0.1140  0.1741
24054W        W39185   8.656   2.868  10.954  0.0414  0.1077  0.1647
24055W        W39186   1.990   5.750   5.341  0.0031  0.0553  0.0494
24056W        W39187  10.881   7.176  10.017  0.1542  0.2166  0.2972
24057W        W39188  10.762   9.975   1.289 -0.1200 -0.1345  0.3544
24058W        W39189  15.231   6.347  13.828 -0.3773  0.0823  0.1811
24059W        W39190  15.397   4.303  14.732  0.0050 -0.0495 -0.3325
24060W        W39191   6.793  13.941  15.524  0.1900  0.2943  0.0966
24061W        W39192   9.054   8.824   1.804 -0.0265 -0.0556 -0.1583
24062W        W39193   7.674   4.024   0.909  0.1636  0.2133  0.0581
24063W        W39194   2.541  10.115  14.409  0.5015 -0.0302  0.2727
24064W        W39195  13.589  10.294   0.638 -0.0006 -0.2099 -0.1283
24065W        W39196   9.443  13.228   2.221 -0.1061  0.0255 -0.0928
24066W        W39197  16.858   4.688   3.015  0.0332 -0.0157  0.4124
24067W        W39198  10.969  18.065  12.650 -0.1905  0.0089  0.3740
24068W        W39199   8.080  14.058   4.836 -0.2646 -0.1675 -0.0037
24069W        W39200   0.629  14.195   3.770 -0.0449 -0.0224 -0.2127
24070W        W39201   4.983   1.500   4.896  0.0111  0.0953  0.0709
24071W        W39202  17.783  18.250   1.342  0.4481  0.1929  0.1489
24072W        W39203   2.330  11.187   4.903  0.1090 -0.0491  0.1414
24073W        W39204  17.262   3.397   5.509  0.4189  0.1726 -0.2854
24074W        W39205  12.179   9.559   4.226 -0.1826 -0.0521 -0.0366
24075W        W39206   7.607  15.247   0.841 -0.1451 -0.2225 -0.2494
24076W        W39207  15.838  12.768  11.168 -0.0426  0.1337  0.0685
24077W        W39208  18.011   9.623   5.425  0.0108  0.0149 -0.0476
24078W        W39209  10.123  12.123  15.196  0.2977 -0.3718 -0.1208
24079W        W39210  15.253  18.132   1.998  0.1660  0.1622 -0.1520
24080W        W39211  17.706  14.173   5.097 -0.1102  0.3448 -0.2327
24081W        W39212   4.716   7.306  15.059 -0.1140  0.0727  0.1508
24082W        W39213   8.619   4.286   3.551  0.1996 -0.1701  0.4467
24083W        W39214  17.541   9.265  14.885  0.0129 -0.1197 -0.1457
24084W        W39215   3.863  14.827  11.348 -0.0219  0.3909 -0.0183
24085W        W39216   9.471  17.639  11.031 -0.0774 -0.0247  0.0313
24086W        W39217   8.903   8.580   2.305 -0.1618  0.2538  0.2793
24087W        W39218   2.581  11.788  10.541 -0.1067 -0.1519  0.0572
24088W        W39219  12.740   7.120   5.509 -0.0852 -0.2289  0.3845
24089W        W39220   0.673  17.834  13.379  0.4239 -0.0023 -0.3817
24090W        W39221  15.777  12.003  10.636  0.2424  0.0885 -0.0476
24091W        W39222  12.642   4.572  12.890  0.0779 -0.3731  0.3687
24092W        W39223   1.639   7.063   2.089 -0.2221  0.1035 -0.1283
24093W        W39224   8.311  10.868   4.240 -0.3059 -0.1078  0.0794
24094W        W39225   3.270  13.882  15.393  0.0967 -0.1097 -0.2396
24095W        W39226   5.554  13.870   0.184  0.1206  0.1222 -0.0226
24096W        W39227   6.846  16.948  11.512 -0.0479  0.1374  0.1936
24097W        W39228  12.690  18.507  14.449 -0.1270 -0.1059 -0.3261
24098W        W39229   5.473  11.681  14.452  0.2831 -0.1689  0.1564
24099W        W39230   4.533   5.214   2.855  0.0627  0.1576 -0.0361
24100W        W39231   1.896   7.296  11.459  0.2164 -0.1747  0.0481
24101W        W39232   9.054  16.921   2.352  0.0557  0.2269 -0.0276
24102W        W39233  12.273   4.651  15.058 -0.0514  0.0571 -0.0994
24103W        W39234   5.941   7.321  11.312 -0.1887  0.1787  0.1597
24104W        W39235   7.239   0.508   4.411 -0.1223 -0.0926  0.2502
24105W        W39236   3.509  13.695  10.587  0.4409  0.0231 -0.2361
24106W        W39237  13.857  13.022   3.152 -0.0308  0.2720  0.2221
24107W        W39238  10.671  10.621  11.213 -0.2120 -0.2558  0.3962
24108W        W39239  11.080  12.376  14.323 -0.2172  0.2224  0.2041
24109W        W39240   0.333   9.821   1.149  0.1761 -0.2884  0.1755
24110W        W39241   5.429  18.554   3.154 -0.1877  0.0070  0.0649
24111W        W39242   5.976   3.837   3.638 -0.1606  0.0235  0.0232
24112W        W39243   8.645   4.594  10.348 -0.0112 -0.4804 -0.0185
24113W        W39244  10.813  18.251   4.294 -0.0553 -0.0372  0.0412
24114W        W39245  13.316   3.205   5.400 -0.0134 -0.0047  0.0603
24115W        W39246  15.860   0.999   2.337 -0.2651 -0.1577 -0.0208
24116W        W39247   1.777  16.046  12.435  0.1198  0.0535  0.3140
24117W        W39248   1.024   8.307   0.506  0.1484 -0.1422 -0.1154
24118W        W39249   6.048   3.244   4.407  0.0439 -0.1334 -0.0243
24119W        W39250  16.332  10.397  12.571  0.1778 -0.1806 -0.0239
24120W        W39251   8.325  16.176  13.045  0.1811  0.3193 -0.2391
24121W        W39252  17.313   8.406  13.781 -0.1165 -0.1519 -0.0339
24122W        W39253  14.197  11.431   0.047 -0.0094 -0.0941  0.1865
24123W        W39254   5.853   3.502  10.726 -0.2394  0.1396 -0.3300
24124W        W39255  10.833  10.789   0.488  0.0205  0.0922  0.0694
24125W        W39256   4.817   1.980  12.737 -0.0703 -0.0623 -0.0384
24126W        W39257  12.528   3.108  11.322 -0.2465 -0.1328 -0.0283
24127W        W39258   9.623  14.836  11.674  0.0463  0.2509  0.2331
24128W        W39259   8.953  11.433  14.841 -0.0785 -0.0612  0.0741
24129W        W39260  17.485  14.074  12.598 -0.1530  0.2250 -0.1409
24130W        W39261   9.273   0.918   9.674  0.2605 -0.0175 -0.0248
24131W        W39262   8.594   2.516  12.634 -0.2221 -0.0970  0.0863
24132W        W39263  15.000  12.038  15.291 -0.0918  0.0476  0.1349
24133W        W39264   3.666  16.118   0.060 -0.1097  0.0870  0.0872
24134W        W39265  12.320  14.374  10.860  0.0948 -0.0737  0.3885
24135W        W39266  18.074   5.241   2.199 -0.0130 -0.0978 -0.4096
24136W        W39267   6.877   6.862  15.751 -0.1225 -0.1931 -0.1986
24137W        W39268   1.324   3.091   5.560  0.1442  0.1064  0.3363
24138W        W39269   2.077  15.601  11.852 -0.1616 -0.0022  0.3677
24139W        W39270  14.368  12.470   4.170  0.1321 -0.1759  0.1131
24140W        W39271   3.163  16.108   0.037 -0.2016  0.1328  0.3024
24141W        W39272   7.630   2.500  14.479 -0.2147 -0.2661 -0.1437
24142W        W39273  12.727   5.199   0.954  0.0218  0.2662  0.2969
24143W        W39274  16.493   9.213   3.228  0.0793 -0.1759  0.2600
24144W        W39275  13.977   6.290  14.506  0.0287  0.1958 -0.1120
24145W        W39276   6.614   2.201  11.647  0.2220  0.1427  0.0464
24146W        W39277  10.335   1.705   4.729 -0.0287 -0.0356 -0.0055
24147W        W39278  10.826   0.917   5.161 -0.2225 -0.0237  0.1707
24148W        W39279  11.906  10.254   2.679  0.1553  0.0230 -0.3267
24149W        W39280  14.828   3.054  13.956  0.1683  0.2291  0.1161
24150W        W39281   4.117  10.684   2.545 -0.1423 -0.1175 -0.0303
24151W        W39282  11.639   5.806  10.609 -0.2440 -0.2053 -0.0056
24152W        W39283  10.109  17.547  11.855 -0.3082 -0.0205 -0.1941
24153W        W39284  11.559  16.790  13.665 -0.3704 -0.2792  0.0211
24154W        W39285  12.054   1.580   3.252 -0.2947 -0.0572 -0.1292
24155W        W39286   9.085   1.706  12.434 -0.2078 -0.2497  0.0418
24156W        W39287   2.913   0.428  11.180 -0.1678 -0.1511 -0.1352
24157W        W39288   3.180  14.393  11.763  0.0854  0.2924 -0.0955
24158W        W39289   4.221  16.368  14.567 -0.4628  0.2094 -0.2268
24159W        W39290   4.894   1.912   0.176 -0.0167  0.0256 -0.0395
24160W        W39291  15.298   1.507  13.295  0.1465  0.2217  0.1807
24161W        W39292  13.813  13.574   1.415 -0.1455  0.3480 -0.0372
24162W        W39293  13.556   5.070   0.940 -0.1330  0.0166  0.1656
24163W        W39294   5.556   1.555  11.718  0.2570 -0.4831  0.2587
24164W        W39295  18.006   7.341   1.326 -0.0128  0.1441  0.3587
24165W        W39296   0.545   0.034   4.345  0.3267  0.1202 -0.2226
24166W        W39297  12.609  17.663   2.854  0.1669 -0.0687 -0.3534
24167W        W39298  11.154   9.175   1.270 -0.2425  0.0278  0.2003
24168W        W39299   0.543  12.497   3.348  0.2579 -0.0596 -0.3427
24169W        W39300   5.449  10.532   0.512  0.2636 -0.6620  0.1698
24170W        W39301   3.009  13.913   0.561 -0.0006  0.2186  0.1236
24171W        W39302   1.353  12.432  11.980 -0.0180  0.1943  0.2548
24172W        W39303   1.630   9.936  14.596  0.2291  0.2108 -0.0031
24173W        W39304  15.831   3.193  13.444 -0.2685 -0.0334 -0.2279
24174W        W39305  13.462   4.693  15.485  0.0929 -0.0070 -0.2068
24175W        W39306  17.984   6.989  11.749 -0.1750 -0.0807 -0.3627
24176W        W39307   1.749   3.072   2.473  0.1461 -0.0831 -0.2687
24177W        W39308   7.715   5.802  13.669 -0.0216  0.3235 -0.1643
24178W        W39309   5.794   1.272   2.249 -0.4862 -0.3460 -0.0090
24179W        W39310   9.681   8.616   2.971  0.1061 -0.0659  0.2644
24180W        W39311  12.616  14.225  10.490 -0.0172 -0.1795  0.1518
24181W        W39312   7.094  10.048  11.651 -0.4267  0.0497 -0.0578
24182W        W39313  11.959  18.005   3.062 -0.2939 -0.1594  0.2230
24183W        W39314   4.916  12.626  14.957  0.2233 -0.0675 -0.0382
24184W        W39315  17.044  10.387   5.588  0.0248  0.0378  0.0504
24185W        W39316  10.898   2.720  13.437 -0.0073  0.3323  0.3431
24186W        W39317   3.829   8.237   5.969 -0.1094  0.0885  0.2209
24187W        W39318  17.721   3.281   3.827  0.2720 -0.4062 -0.0163
24188W        W39319   5.309   1.875  12.804 -0.0451  0.0400  0.0394
24189W        W39320  13.510  14.185  11.399 -0.1113  0.0840  0.1183
24190W        W39321   6.012   2.534  10.904  0.2027  0.0146  0.2998
24191W        W39322  14.233  14.054   4.469  0.0860 -0.0316  0.0832
24192W        W39323  18.462  10.701  13.941 -0.2979 -0.1300  0.0161
24193W        W39324   2.947   0.727   4.187 -0.2749 -0.3974 -0.1038
24194W        W39325  17.715  15.366   6.485 -0.1277 -0.0473 -0.1615
24195W        W39326   2.438  15.102  14.513 -0.1877  0.0193 -0.0291
24196W        W39327  14.991   6.561   1.810 -0.1758 -0.3187  0.1778
24197W        W39328  16.470  17.210   4.399  0.2220  0.0142  0.0205
24198W        W39329   1.690   5.539   4.523 -0.0090 -0.1715 -0.0488
24199W        W39330   4.279  16.167  13.275 -0.3518 -0.2088 -0.4266
24200W        W39331   6.333  17.493  13.296 -0.1494 -0.1351 -0.0013
24201W        W39332   7.115  14.725   2.114  0.3428 -0.3816  0.2556
24202W        W39333   9.336   1.414  12.770 -0.0989  0.1749  0.3462
24203W        W39334   7.433   6.841  13.513 -0.0023  0.1268 -0.0898
24204W        W39335   2.537  12.739   2.755  0.0822  0.1166 -0.1937
24205W        W39336   8.797   3.797  12.056 -0.1296 -0.1919  0.0362
24206W        W39337   1.970   9.149   3.476  0.1702  0.0827 -0.0727
24207W        W39338   9.140   6.471   2.646 -0.0615 -0.0143 -0.0245
24208W        W39339   2.655   8.310  13.138  0.2345 -0.1171 -0.0831
24209W        W39340  17.160  17.965  13.345  0.2850 -0.0286  0.1014
24210W        W39341   2.436   9.444   1.898 -0.1208  0.0512 -0.6327
24211W        W39342  10.376   1.251  15.480  0.1353 -0.3237  0.0845
24212W        W39343  12.925   8.938  11.450 -0.3715  0.0336 -0.4885
24213W        W39344   0.519   4.367  12.336 -0.0042 -0.1746 -0.2233
24214W        W39345   0.443   1.694  12.233  0.1209 -0.0236  0.0484
24215W        W39346   9.267   6.969  11.336 -0.0613 -0.4802  0.1262
24216W        W39347  10.674  15.929  10.631  0.0093  0.1092 -0.0551
24217W        W39348  11.899  11.767   4.261  0.0703  0.0427 -0.2670
24218W        W39349  12.909   6.012  13.250  0.1265 -0.1510 -0.2740
24219W        W39350   9.429   0.142   3.527  0.1285 -0.1256  0.0907
24220W        W39351  11.347   5.751   1.168  0.1326 -0.0570 -0.3398
24221W        W39352   9.135  16.679   0.775 -0.2478 -0.1498  0.0013
24222W        W39353   8.676   9.719  14.283  0.4921 -0.1318  0.0717
24223W        W39354   5.816   2.496   1.905  0.2482  0.1210 -0.1617
24224W        W39355  16.585   9.817   4.821 -0.0293  0.1062 -0.0435
24225W        W39356  16.316  18.011   0.884 -0.1584  0.3703 -0.0989
24226W        W39357   2.346  15.079  15.072  0.0036  0.2792  0.0088
24227W        W39358   3.763  17.804   3.913  0.0841 -0.0101  0.3358
24228W        W39359  16.004  15.856   0.173  0.0233  0.0908  0.4515
24229W        W39360  16.960  14.057  11.938  0.0278  0.0069  0.2537
24230W        W39361  15.067  12.279   2.724 -0.1591  0.0977  0.2590
24231W        W39362   2.579  11.504   2.935 -0.2703  0.0963 -0.1774
24232W        W39363   7.056  16.698   0.498  0.0029 -0.2110  0.1827
24233W        W39364   4.197  11.183   0.406 -0.0376  0.0232 -0.0794
24234W        W39365   1.224  13.483  15.579 -0.0453  0.3082 -0.0392
24235W        W39366   7.493  14.303   4.952 -0.2085  0.3725  0.2692
24236W        W39367   5.245  13.641   4.826  0.1630  0.3739  0.1424
24237W        W39368  16.472  10.662   2.929  0.0492  0.0456 -0.2609
24238W        W39369  13.617   0.727  13.520 -0.0212  0.2561 -0.1172
24239W        W39370  18.378   3.500   3.212 -0.2932 -0.0515  0.0422
24240W        W39371   0.327   6.978  13.591 -0.0927 -0.0466 -0.0163
24241W        W39372   1.692   6.617   3.128  0.2199 -0.1054 -0.0940
24242W        W39373   6.631  18.238  12.759 -0.2812  0.3385  0.0165
24243W        W39374  12.981  11.040   0.904 -0.3243 -0.3102  0.1385
24244W        W39375  17.784  14.279  14.036  0.1450 -0.2672 -0.2453
24245W        W39376  17.617  14.114  11.367  0.4693 -0.1872  0.3108
24246W        W39377  15.999   1.623  12.095 -0.3670  0.1091 -0.1958
24247W        W39378   1.908  11.176  15.606  0.0008 -0.1060  0.1729
24248W        W39379   6.385   7.080  13.482  0.1679 -0.2091  0.1645
24249W        W39380   2.947   6.027   2.169 -0.2246  0.2614 -0.0986
24250W        W39381   0.997  13.864  10.138  0.0451 -0.1719 -0.0358
24251W        W39382  11.562  18.161  10.657  0.1651  0.1309 -0.0605
24252W        W39383   0.569   6.390  12.035  0.4667  0.2630 -0.2882
24253W        W39384  18.396  10.996   4.691  0.0110  0.2042 -0.2007
24254W        W39385   5.099  18.157  13.443 -0.0660  0.2421 -0.0226
24255W        W39386  15.269  18.086   0.793  0.1415 -0.0566 -0.0607
24256W        W39387  11.943   0.547  12.750 -0.1656 -0.3997  0.2930
24257W        W39388   0.558  17.442  15.039 -0.2640 -0.0982  0.0770
24258W        W39389   8.889   0.094   3.619 -0.2672  0.1737  0.1244
24259W        W39390   8.412   6.468  13.397 -0.0828 -0.1282  0.4281
24260W        W39391  17.327   0.726   1.300 -0.0806 -0.1221  0.2732
24261W        W39392   2.867   1.674   2.822 -0.0507 -0.1507  0.1053
24262W        W39393   3.044  15.421   5.612  0.4864  0.1637 -0.1741
24263W        W39394   3.265   8.059  14.578 -0.2028 -0.1675  0.1093
24264W        W39395  10.821   6.155   5.461  0.2875 -0.1872 -0.0911
24265W        W39396   8.488  15.210  14.646  0.1560  0.0514  0.0378
24266W        W39397   0.245  11.537  15.858 -0.0954 -0.0698 -0.1814
24267W        W39398  13.256   9.383  14.019 -0.2161  0.0009 -0.1561
24268W        W39399   3.110  11.053   1.084 -0.1757  0.0749 -0.1458
24269W        W39400   7.556   3.462   0.219  0.0096 -0.0468 -0.1603
24270W        W39401  11.781   0.746  11.107  0.1875 -0.3121  0.1069
24271W        W39402  16.018  11.556  11.314 -0.0602  0.1522  0.2627
24272W        W39403   7.820   4.364  13.807 -0.0776  0.0089 -0.2908
24273W        W39404  16.704  16.529  12.688  0.0515 -0.0075 -0.5046
24274W        W39405  17.430  12.487  14.834  0.0719  0.0677  0.0923
24275W        W39406   7.577  11.557   2.922 -0.0647 -0.1404 -0.1795
24276W        W39407  18.315   8.590   3.221  0.1567  0.1423  0.1338
24277W        W39408  15.247   0.513  13.497 -0.2634  0.0522 -0.0604
24278W        W39409  11.987  10.639   0.874  0.1115 -0.1026 -0.0505
24279W        W39410  16.416  13.334  14.946  0.0493 -0.1909  0.2502
24280W        W39411   2.262  11.038  14.075  0.2140  0.3625 -0.0455
24281W        W39412   3.375  12.352   2.086 -0.0534 -0.0039 -0.0949
24282W        W39413   9.280   5.662   2.827 -0.3348 -0.0541 -0.0137
24283W        W39414  16.386   3.142   4.008  0.2084  0.0418  0.0487
24284W        W39415   1.358  11.164  11.428  0.0091 -0.1893 -0.3636
24285W        W39416  14.904   6.790   0.635  0.0152  0.0003 -0.1838
24286W        W39417  14.027   0.772  13.229  0.1499 -0.2149  0.0189
24287W        W39418  11.479  17.306  13.834  0.3438  0.0922  0.3214
24288W        W39419   2.169  17.274   1.727 -0.4531 -0.0551 -0.2206
24289W        W39420  13.373   2.563   4.164  0.2705 -0.0234 -0.3108
24290W        W39421   6.951  13.319  11.827 -0.2425  0.0055 -0.2132
24291W        W39422  13.539   7.299   2.722 -0.0003 -0.1680  0.1719
24292W        W39423   2.394  15.166   1.359 -0.0429  0.3911 -0.4400
24293W        W39424   0.888  15.527  12.719 -0.4407 -0.0754 -0.1456
24294W        W39425   3.216  16.866  13.896 -0.1064  0.5018  0.2411
24295W        W39426  18.145   6.134   3.072 -0.0406 -0.2491 -0.0450
24296W        W39427   9.351  15.502   0.426 -0.1961 -0.1495  0.1683
24297W        W39428   6.992   6.961   5.475  0.0854 -0.0355  0.0809
24298W        W39429   2.923  14.428  15.542 -0.1882 -0.3832  0.3741
24299W        W39430  18.006   8.965  14.146  0.0969  0.1221 -0.3361
24300W        W39431  12.343   6.374   4.468  0.0941  0.3487 -0.1878
24301W        W39432   1.539  17.060  15.353 -0.0127 -0.4544 -0.0607
24302W        W39433   6.827  14.107  11.522 -0.1717  0.0770 -0.3112
24303W        W39434   8.944  13.245   2.746  0.2800  0.0494  0.1031
24304W        W39435  16.695  11.304   2.597 -0.1370 -0.0521  0.0167
24305W        W39436  17.036   5.491   2.695 -0.1081 -0.2398 -0.0188
24306W        W39437   7.921   2.134  11.539 -0.1082  0.0874 -0.1682
24307W        W39438   7.393  14.913   4.101  0.0497 -0.1006 -0.0209
24308W        W39439  11.702  16.796  14.542  0.2713 -0.0645  0.1815
24309W        W39440  13.430  15.049   4.610  0.0310  0.0447 -0.1276
24310W        W39441   0.210   5.009  14.864 -0.2655 -0.1711  0.1401
24311W        W39442   7.199   2.250  13.699 -0.0771  0.0268  0.0373
24312W        W39443  18.553   9.204   1.440 -0.0564 -0.0912 -0.4318
24313W        W39444   1.431   4.755   6.539  0.1186 -0.2962  0.0629
24314W        W39445  18.287   1.205   1.192 -0.1953  0.0383  0.0307
24315W        W39446  17.130  10.371   0.198  0.2052  0.1416  0.1034
24316W        W39447   5.473   8.367  13.689  0.2214  0.1254 -0.0121
24317W        W39448   8.943   7.862   2.212 -0.1910 -0.1275 -0.2670
24318W        W39449   4.165   2.534  11.488  0.2273  0.3693 -0.0836
24319W        W39450  10.939   8.051  10.946  0.1728 -0.0764  0.1838
24320W        W39451  10.334  10.509   5.852 -0.1934 -0.0642  0.4873
24321W        W39452   5.179   0.033  15.097  0.1443 -0.1417 -0.1376
24322W        W39453  18.349   6.842  12.051 -0.0985 -0.0476  0.1239
24323W        W39454   0.906  15.330  11.705  0.3133 -0.3316  0.1079
24324W        W39455  13.393   5.313  11.811  0.0583 -0.1661 -0.0041
24325W        W39456   9.739  10.654  11.698 -0.1253 -0.1525  0.0987
24326W        W39457   1.779   8.093  13.200  0.1349  0.3086  0.0231
24327W        W39458  13.587  11.830  12.246  0.0305  0.0346 -0.0000
24328W        W39459   3.210  17.159  12.877  0.3158 -0.5086  0.1360
24329W        W39460  16.254  10.583   3.479 -0.1009 -0.0621  0.1729
24330W        W39461  14.945   1.662   1.056 -0.1385 -0.3009  0.0750
24331W        W39462   3.144  12.400  15.200  0.1157  0.0052  0.0071
24332W        W39463   2.225  10.018  11.624 -0.2675 -0.1053 -0.1747
24333W        W39464   1.941   8.970  15.683 -0.0923 -0.0168  0.2253
24334W        W39465  12.175  10.698  11.458  0.0288  0.0899 -0.0227
24335W        W39466   7.108  11.805  12.735 -0.2687  0.0769  0.1022
24336W        W39467  16.046   7.516  14.463 -0.1839 -0.0513  0.0999
24337W        W39468  13.958  13.444   2.233  0.2374  0.0594  0.1139
24338W        W39469  16.266   2.642   2.409  0.2432  0.4222  0.1119
24339W        W39470   2.203  12.620  13.154  0.1437 -0.1723  0.1065
24340W        W39471  15.558   0.420  10.702  0.0580 -0.0428  0.0225
24341W        W39472  17.089  10.053   5.109 -0.4307 -0.1973  0.2873
24342W        W39473  18.362   2.840  14.199  0.0102  0.1802  0.3497
24343W        W39474   7.113   2.297  14.254  0.0315  0.1265 -0.2058
24344W        W39475  13.426   8.593  13.394 -0.2827 -0.0116  0.0427
24345W        W39476   2.178   8.696   3.455 -0.1436  0.3234 -0.1172
24346W        W39477  17.091   9.232  15.291  0.4425  0.1679  0.1587
24347W        W39478  12.041  13.012  15.002 -0.2013  0.1766  0.5064
24348W        W39479   8.758   3.851  15.730 -0.1502 -0.0798 -0.4117
24349W        W39480  10.270   8.333  10.783 -0.1903  0.1236 -0.0457
24350W        W39481   5.833   9.705  14.513 -0.1326  0.1261 -0.0000
24351W        W39482  16.910   3.960   1.483  0.1106  0.0438 -0.0116
24352W        W39483   2.522   5.056   0.147  0.1974 -0.2903 -0.0581
24353W        W39484   4.893  15.391  12.218  0.0116  0.0113  0.1744
24354W        W39485   3.288  15.859   1.785  0.2232 -0.1231  0.0681
24355W        W39486   2.483   2.644   3.195 -0.1834 -0.1154  0.1840
24356W        W39487  10.248  11.823   0.585 -0.3054  0.0669  0.0250
24357W        W39488   7.282  17.785   0.754 -0.0976  0.1379 -0.0893
24358W        W39489   6.076   5.705  13.208  0.2042  0.3579 -0.0427
24359W        W39490   1.915   3.531   3.169  0.0128  0.1629 -0.0343
24360W        W39491   1.653  13.757  11.307  0.0697 -0.0454 -0.0951
24361W        W39492  10.558   0.512  10.478 -0.0602 -0.0367  0.2015
24362W        W39493   8.712  12.054  12.561 -0.0470 -0.1635 -0.2073
24363W        W39494   7.315   3.181  13.552  0.2295 -0.0277  0.2922
24364W        W39495  14.766  10.740   3.307 -0.0102  0.3896  0.0838
24365W        W39496   7.050   9.175   1.068  0.2070  0.0097  0.1670
24366W        W39497  12.327  10.644   2.876 -0.0753 -0.1606  0.1086
24367W        W39498   2.357  13.513  12.030 -0.0594  0.1647  0.3285
24368W        W39499  14.448   5.176   5.600  0.2143 -0.4873  0.0807
24369W        W39500   1.945   9.111  14.327  0.3684 -0.1840 -0.1612
24370W        W39501   4.971   2.420  10.835 -0.0749 -0.0024  0.0176
24371W        W39502  12.786  18.486   0.724 -0.0389 -0.0770  0.0908
24372W        W39503   0.982   0.332  14.205 -0.2783  0.2341 -0.1441
24373W        W39504   8.309   3.027   1.260  0.1812 -0.0608 -0.0022
24374W        W39505   3.713  17.225  12.693  0.0145  0.0870 -0.3997
24375W        W39506   3.752  17.524  14.283 -0.1573 -0.2416  0.1501
24376W        W39507  12.705  17.600   2.289  0.4218 -0.0045 -0.1073
24377W        W39508   0.776   4.162   3.929  0.1014 -0.2214 -0.2620
24378W        W39509   2.887   6.903  14.844  0.2014  0.3347  0.0747
24379W        W39510   5.209   8.727   2.825 -0.1301 -0.0202 -0.1309
24380W        W39511  13.285  17.551   4.445  0.1248  0.3862 -0.1208
24381W        W39512  12.490   8.177   0.478  0.2990  0.2045 -0.5180
24382W        W39513   5.402   5.942  12.615  0.3088  0.2203  0.1270
24383W        W39514   2.403   4.355  14.281 -0.0426 -0.0226 -0.0165
24384W        W39515   9.787  16.486  15.459  0.4048 -0.1517 -0.0316
24385W        W39516  16.576   4.061   2.191 -0.1463  0.3620  0.1154
24386W        W39517   5.032  13.446  12.176  0.0110  0.2166  0.0830
24387W        W39518  11.538   1.337   4.277 -0.0143 -0.0970 -0.3614
24388W        W39519  15.986  16.915   5.691 -0.2833  0.1966 -0.2530
24389W        W39520  16.823  11.098  11.219  0.0976 -0.0310 -0.0033
24390W        W39521   8.496   7.340  12.896  0.1140  0.0862 -0.0610
24391W        W39522  17.382   5.436  12.522  0.0556 -0.1679 -0.3343
24392W        W39523   3.541  18.548   0.261  0.0570  0.1533 -0.1710
24393W        W39524   8.256  15.665  14.710  0.0428  0.1462 -0.0664
24394W        W39525  14.470   1.528  12.883  0.0949 -0.0383  0.1084
24395W        W39526  11.568   7.982   1.233 -0.2152  0.1031  0.0524
24396W        W39527   4.626   2.156   1.613  0.2541 -0.0859  0.1984
24397W        W39528  15.142  15.858  11.593  0.0784  0.2621 -0.0133
24398W        W39529  11.201   9.433  12.599  0.0148 -0.2368 -0.1277
24399W        W39530   3.553  14.252  15.144  0.2818  0.0158  0.2376
24400W        W39531  10.878   2.743  10.620 -0.1933 -0.5189  0.0817
24401W        W39532   2.342   4.349   2.523 -0.1033 -0.1151 -0.0981
24402W        W39533   5.109  14.819   0.726  0.0807  0.3373 -0.2811
24403W        W39534   1.347   1.706   1.185  0.1448  0.1956 -0.3614
24404W        W39535  15.956  10.896   3.786 -0.1739 -0.1173 -0.2729
24405W        W39536  11.462  15.280   4.353  0.0068 -0.2186 -0.1619
24406W        W39537   9.481   3.929  13.242  0.1117 -0.0793 -0.0647
24407W        W39538   8.614  10.256  14.994 -0.3684  0.1318 -0.0338
24408W        W39539  10.856  11.462   1.568  0.2500 -0.2137 -0.2661
24409W        W39540  17.206   5.483  11.453  0.3224 -0.1578 -0.0521
24410W        W39541   3.594  17.654   2.292  0.2114 -0.3002 -0.3585
24411W        W39542   4.040  18.145  11.098 -0.3754 -0.0694 -0.2066
24412W        W39543  13.818   8.312  11.624  0.0041  0.0880 -0.1371
24413W        W39544   0.906   4.291  13.202 -0.0725  0.1328  0.0061
24414W        W39545  11.283   7.101  15.599  0.0649 -0.1993 -0.1515
24415W        W39546  11.386   2.119  13.013 -0.1632  0.4025 -0.0862
24416W        W39547   0.695  15.295  14.415 -0.0253 -0.4038  0.2796
24417W        W39548   6.758  15.659  12.079  0.2627 -0.0999 -0.1133
24418W        W39549  15.346   3.034   1.870  0.0677 -0.1844 -0.3087
24419W        W39550  13.953  16.018   5.698  0.1678  0.0141 -0.0246
24420W        W39551   2.811   7.796   2.262 -0.0837  0.0649 -0.1544
24421W        W39552   5.150  17.970   4.952  0.0294  0.1278  0.2716
24422W        W39553   4.376   4.172  12.270 -0.2905  0.2076 -0.0138
24423W        W39554   5.832  14.475   2.359 -0.0067 -0.1027 -0.0383
24424W        W39555   5.341  14.427  12.562 -0.0565 -0.2562 -0.0682
24425W        W39556  13.484  12.517   3.108  0.2531  0.1329  0.2697
24426W        W39557  17.385   9.009   2.700 -0.3055 -0.2029 -0.2819
24427W        W39558  11.351   1.302   1.548  0.0380 -0.1058  0.0057
24428W        W39559  11.692  12.054  11.977  0.1204 -0.4799  0.1582
24429W        W39560  12.236  12.871   4.448  0.2488 -0.0565  0.1506
24430W        W39561   7.753  10.023   4.332  0.1124 -0.2933  0.1558
24431W        W39562  15.209  13.063   0.937  0.1404  0.1911 -0.1304
24432W        W39563   8.892  13.907  12.595 -0.0469 -0.2465 -0.2323
24433W        W39564   8.052  13.562   4.708  0.0198 -0.1108 -0.2701
24434W        W39565   8.508   5.282   3.496 -0.0033 -0.1494  0.0164
24435W        W39566  16.250   0.291  15.544  0.0897 -0.0470  0.0372
24436W        W39567  16.087   9.159  12.739  0.2382  0.2580  0.1380
24437W        W39568  16.500  17.722  11.397  0.3127 -0.2487  0.1263
24438W        W39569   2.659  17.189   1.902  0.0906 -0.6681 -0.0572
24439W        W39570  13.469  11.423  15.145 -0.0390 -0.0568 -0.0874
24440W        W39571   9.996  15.438   2.089 -0.2452 -0.1098 -0.1656
24441W        W39572  18.526   0.947  15.630  0.1176 -0.2673 -0.1617
24442W        W39573  13.683   5.632   4.634 -0.0665  0.0725 -0.1034
24443W        W39574   9.560   1.708  12.338 -0.1558 -0.0442  0.0657
24444W        W39575   4.852  12.374  14.512  0.1846  0.1286  0.1786
24445W        W39576  16.010  14.778  14.998  0.1098 -0.0143  0.0203
24446W        W39577  15.269  17.484  13.214 -0.0958  0.1052 -0.3345
24447W        W39578  12.163   2.679  13.850 -0.2184 -0.1856 -0.0438
24448W        W39579  17.030  12.572   3.608 -0.2120  0.0653  0.4241
24449W        W39580  16.521   4.792   1.207 -0.1606 -0.1573  0.0247
24450W        W39581  15.598   0.870   0.438 -0.0558 -0.1759 -0.1801
24451W        W39582   0.062  15.754  12.631  0.0621 -0.0202 -0.0345
24452W        W39583   0.520   4.923  13.425 -0.1605  0.5681  0.0710
24453W        W39584  14.848   9.253   1.511  0.0840 -0.0519 -0.1823
24454W        W39585   6.115   8.853  12.603  0.1707 -0.1105 -0.0308
24455W        W39586  12.559  15.785  14.004 -0.0126 -0.1790  0.3745
24456W        W39587   6.178  18.064   2.117 -0.1221  0.2072 -0.1322
24457W        W39588   3.745  14.750   4.874  0.0540  0.0275 -0.1865
24458W        W39589   7.780   8.066   0.501  0.2600  0.3333 -0.0808
24459W        W39590   5.372   9.928   4.187 -0.0589  0.2319  0.1034
24460W        W39591   3.390  14.168  14.197 -0.0349 -0.0629  0.2851
24461W        W39592   3.755  13.405   1.184  0.2457 -0.0667 -0.1463
24462W        W39593   2.974   7.828  11.368  0.5517 -0.0572 -0.2392
24463W        W39594  12.790   1.948   4.717  0.2002 -0.0296 -0.4503
24464W        W39595   4.177  14.610   4.422  0.1267  0.0678  0.2523
24465W        W39596   5.066  13.727   4.377  0.2335  0.0670  0.2367
24466W        W39597  10.677   7.219   5.012  0.1144  0.3693  0.1305
24467W        W39598   4.414   8.735  13.038 -0.0936  0.2622  0.2761
24468W        W39599  16.040   5.298  11.966 -0.1584 -0.3228  0.0005
24469W        W39600   0.105   8.965   4.979 -0.2707 -0.2547 -0.0077
24470W        W39601   2.582   1.971  12.178 -0.2662  0.0741  0.1132
24471W        W39602   8.322   7.941   3.103 -0.0579 -0.0336  0.1791
24472W        W39603   3.914   2.252  12.939 -0.3367  0.1448  0.1678
24473W        W39604  10.857   4.006   1.354  0.0948 -0.1396  0.0957
24474W        W39605   0.479  11.153  15.553  0.0641 -0.3394 -0.1450
24475W        W39606  16.670  15.810   5.916 -0.0789 -0.1153  0.0186
24476W        W39607  13.238   6.953  15.927  0.1506  0.1379 -0.2219
24477W        W39608  10.000   5.541  13.376  0.7584  0.0685 -0.0956
24478W        W39609  14.484  11.200   5.099 -0.1273  0.0622 -0.0231
24479W        W39610   6.035   6.754   2.508  0.5883  0.0262  0.3267
24480W        W39611  18.411  14.950   0.241  0.0147 -0.1270 -0.3869
24481W        W39612   8.384  16.856  14.799  0.1368  0.0323 -0.0326
24482W        W39613   2.122  16.138   0.314 -0.1652  0.2653  0.0679
24483W        W39614   9.352  16.090  11.338 -0.1302 -0.3639  0.0575
24484W        W39615   0.756   3.498  15.049  0.2256 -0.1785  0.1047
24485W        W39616  17.671  14.836  12.042 -0.1159 -0.4116 -0.0167
24486W        W39617  11.653  14.371  13.327 -0.2973  0.1757 -0.0242
24487W        W39618   0.226  16.145   0.452  0.0593 -0.4132  0.1674
24488W        W39619   7.078  11.578   1.598  0.2070  0.1596 -0.2240
24489W        W39620   9.716  16.502   1.456  0.2849  0.0603 -0.2738
24490W        W39621  18.198  13.888  13.028  0.4015 -0.1093  0.0850
24491W        W39622   3.115   8.737   2.703  0.1467  0.1594 -0.1740
24492W        W39623   0.519   5.016  14.421  0.0285  0.2846  0.5547
24493W        W39624  13.872  11.202   3.057 -0.1572 -0.1003  0.3020
24494W        W39625  10.829   6.237  14.236 -0.2467  0.2318 -0.0271
24495W        W39626   1.348   2.468  12.216 -0.1695  0.2639  0.1908
24496W        W39627  10.612  16.652   1.436  0.1622 -0.1544 -0.0180
24497W        W39628  13.664  18.160  11.871  0.2059  0.0222  0.2943
24498W        W39629  10.172  12.838   0.914  0.2424 -0.2487  0.0144
24499W        W39630   7.650  12.275  11.322  0.0522  0.0997 -0.1561
24500W        W39631  12.726  11.154   3.498  0.2326  0.0115 -0.1958
24501W        W39632   4.136  17.249  13.544 -0.0736 -0.1348  0.1094
24502W        W39633   6.730  16.311   0.373 -0.0781  0.0196  0.2017
24503W        W39634  18.260  13.488   5.028  0.0269 -0.0468 -0.1298
24504W        W39635  11.222  15.354  11.595  0.2131  0.0897 -0.1806
24505W        W39636   4.497  17.129  13.184 -0.2522  0.4574 -0.1158
24506W        W39637  15.946   2.393   3.761  0.2158 -0.1666  0.1556
24507W        W39638   8.840   0.474   0.019 -0.1358 -0.1737 -0.2632
24508W        W39639   1.607  10.107   4.476  0.1541  0.1666 -0.3762
24509W        W39640  10.395  13.939  13.990 -0.0087 -0.1132  0.0637
24510W        W39641  15.440  12.249  10.950 -0.2179  0.0065 -0.0961
24511W        W39642   7.984  10.030   0.368  0.2382 -0.3827  0.0260
24512W        W39643   6.568   4.165   2.567  0.0125 -0.4059  0.0337
24513W        W39644   4.050  18.569   1.334 -0.0503  0.3526  0.2715
24514W        W39645   3.437   9.165  15.170 -0.4581  0.0526  0.0257
24515W        W39646   2.262   1.896   0.948  0.4715  0.2794  0.2356
24516W        W39647   3.238  11.482  10.958 -0.2210 -0.0836 -0.1604
24517W        W39648  13.538   7.431  12.246  0.2511  0.0107 -0.0041
24518W        W39649   4.296   4.885   5.376 -0.1053  0.0810  0.3866
24519W        W39650   1.321  14.291   0.913  0.2325 -0.2654 -0.2548
24520W        W39651  18.348   4.255  10.983 -0.3463 -0.1050 -0.0543
24521W        W39652   4.247  11.334   3.413  0.1232 -0.0863 -0.0378
24522W        W39653  14.408  14.239  14.364  0.0385  0.2324 -0.2765
24523W        W39654  13.501   9.354  13.561  0.5887  0.1495  0.0332
24524W        W39655   4.148   8.440   0.210  0.0025 -0.0764 -0.1399
24525W        W39656  15.676   8.608   4.833  0.1451  0.0047 -0.2017
24526W        W39657   9.940  13.620   3.687 -0.0144  0.2873 -0.2171
24527W        W39658   1.139   7.250  14.306  0.2386  0.1783 -0.0696
24528W        W39659   5.492   8.579  12.344 -0.2807 -0.0978  0.1085
24529W        W39660   5.550  16.566   2.905  0.0957  0.0935 -0.0402
24530W        W39661   5.807  16.668   2.066  0.1641 -0.1612 -0.1963
24531W        W39662  10.585  12.973  13.148 -0.2580  0.0269  0.0460
24532W        W39663   3.380   4.562  12.496  0.1060 -0.1281 -0.0111
24533W        W39664   7.884   8.640   4.210 -0.4046 -0.0412  0.2536
24534W        W39665  16.512  13.913  13.321  0.1074 -0.0127 -0.1750
24535W        W39666  13.780  15.391   2.482  0.0975 -0.1464  0.0507
24536W        W39667   1.519   7.520   0.018 -0.3243  0.0225 -0.0515
24537W        W39668  16.042   9.320   5.533  0.1676 -0.4107 -0.2124
24538W        W39669   7.224  11.296  11.422  0.1257 -0.1481  0.1473
24539W        W39670   4.267  11.857  15.846  0.4694  0.1048  0.0914
24540W        W39671  10.682  16.401  15.101 -0.1034 -0.2421 -0.3859
24541W        W39672   7.972   9.704  13.565 -0.1083 -0.1484  0.0300
24542W        W39673   4.311  18.305  14.544 -0.0945 -0.4587  0.0417
24543W        W39674   3.110  11.668   2.527 -0.0503 -0.0969  0.0169
24544W        W39675  14.316  13.991  15.025  0.1796 -0.0195 -0.0742
24545W        W39676   8.917   0.550   0.886  0.1886 -0.1091 -0.1928
24546W        W39677   6.015  13.523  15.073  0.2332  0.0811  0.1755
24547W        W39678  16.613   9.825   2.492  0.1345  0.0031 -0.1101
24548W        W39679  17.801   1.903   3.138 -0.2852  0.0623 -0.2047
24549W        W39680   2.552  16.651   3.947 -0.0284 -0.2546  0.2294
24550W        W39681  16.040   4.906  11.645 -0.2660 -0.1481 -0.0132
24551W        W39682   6.164   2.538   0.018  0.2416 -0.0743 -0.0138
24552W        W39683  10.586   2.393   5.389  0.0526 -0.3290  0.2813
24553W        W39684   1.878  17.439   2.791 -0.0762 -0.1202 -0.0300
24554W        W39685  13.869  13.307  11.950  0.0391 -0.0205  0.1247
24555W        W39686   7.117  18.567  15.581 -0.0510  0.2778 -0.2798
24556W        W39687  16.508  15.275  12.842  0.0527  0.2750 -0.0841
24557W        W39688  17.808  15.462   4.951  0.0151 -0.4355 -0.0302
24558W        W39689   0.589   6.531  11.535 -0.0749  0.1665  0.0561
24559W        W39690  12.324  12.569  10.353 -0.1853 -0.0202 -0.1263
24560W        W39691  17.385  16.884  10.795  0.0300  0.0884  0.0063
24561W        W39692  17.144  15.586  13.575 -0.2347 -0.0316 -0.1357
24562W        W39693   8.804  16.329   1.459  0.1271  0.0732  0.0629
24563W        W39694   2.116  18.370   3.655 -0.0333  0.3711  0.0776
24564W        W39695   3.554   7.537   0.044  0.0611  0.0731 -0.0909
24565W        W39696   7.331   5.337   0.470 -0.0555 -0.1544 -0.0454
24566W        W39697  15.360  16.976   0.782 -0.1554 -0.0766 -0.0146
24567W        W39698  18.421   0.543  13.075  0.0465 -0.1098 -0.0549
24568W        W39699  17.035  16.558   0.476 -0.0176 -0.2521  0.2463
24569W        W39700  12.838  11.786  13.450 -0.1286 -0.0054 -0.0222
24570W        W39701  13.273   2.099  14.829  0.2968 -0.1095  0.1254
24571W        W39702   2.613  15.161  15.451  0.0050 -0.1040  0.0377
24572W        W39703   9.948  14.485  11.534 -0.0560 -0.5594 -0.1018
24573W        W39704   7.175  12.472   2.958  0.1456 -0.2256  0.0637
24574W        W39705  15.627  10.412  12.670  0.2353  0.0197 -0.1216
24575W        W39706  12.969   0.318   4.688 -0.2736  0.0830 -0.3125
24576W        W39707   1.305   7.008  15.288 -0.0166  0.1255  0.0575
24577W        W39708  14.897   3.908   1.371  0.2124 -0.0915 -0.0312
24578W        W39709   4.812   7.915   4.866  0.3013  0.1954  0.0531
24579W        W39710   0.396  10.790   1.851 -0.2948 -0.0275 -0.4658
24580W        W39711  13.141   5.616  15.455  0.1273 -0.2947  0.1241
24581W        W39712  10.181   4.467  12.696 -0.0169 -0.0280  0.1373
24582W        W39713  15.627  16.319  15.069 -0.3436 -0.0706  0.3776
24583W        W39714   1.464  13.373  11.093  0.0833  0.2831  0.0765
24584W        W39715  16.716  18.552   3.972  0.1677 -0.1715 -0.2386
24585W        W39716  17.903   2.866  12.182  0.0308 -0.1425 -0.2584
24586W        W39717   0.430  16.911  13.274 -0.2519 -0.2744  0.0540
24587W        W39718   5.057   3.415  12.851  0.0051 -0.0115 -0.0314
24588W        W39719   6.087   9.154   5.337 -0.0867 -0.1217 -0.3244
24589W        W39720   1.319   8.422  10.431 -0.0202 -0.0241 -0.2189
24590W        W39721  17.270  16.862  14.421 -0.2450  0.3157 -0.2975
24591W        W39722  17.635  16.926   5.760  0.0470 -0.0992  0.4543
24592W        W39723   9.526   0.907  12.947 -0.0070 -0.4303  0.1636
24593W        W39724  12.247  17.183  15.514 -0.0726  0.2110  0.0135
24594W        W39725  10.855  13.599  15.668  0.0551  0.2493 -0.0204
24595W        W39726   5.076   9.643   4.939  0.3428  0.0015  0.1509
24596W        W39727   2.490   1.043   4.232 -0.2626  0.4181  0.1822
24597W        W39728   1.990  14.010  12.583 -0.0712  0.2659  0.1299
24598W        W39729  11.952  15.129  12.909 -0.1513 -0.0200  0.1634
24599W        W39730   2.310   1.455  14.017 -0.1504 -0.3401  0.0485
24600W        W39731   6.129   8.235  12.274 -0.0551  0.2839 -0.3120
24601W        W39732   1.340  18.479  10.582  0.1701  0.3737  0.1833
24602W        W39733  17.376  17.333  14.372  0.0269  0.0931 -0.0496
24603W        W39734   0.066   0.942   4.643  0.2236  0.1803  0.0159
24604W        W39735  13.544  18.104   4.591  0.0096  0.1591 -0.0084
24605W        W39736   0.352   1.231   4.882  0.1538  0.1687 -0.0166
24606W        W39737   7.454   7.813   5.448  0.0441 -0.0489  0.1682
24607W        W39738  14.837   9.509  14.655 -0.0332 -0.0895 -0.3242
24608W        W39739   8.278   7.031   5.192 -0.2399  0.0289 -0.1799
24609W        W39740   7.271  14.756   2.574  0.1063  0.1325 -0.0951
24610W        W39741  18.424  10.199   2.413 -0.1823  0.1121 -0.0072
24611W        W39742   2.616  16.808   2.666 -0.1216  0.1164  0.2832
24612W        W39743  15.264  14.716   4.844  0.1730 -0.3833 -0.2167
24613W        W39744   0.782   4.735  12.161 -0.1578  0.2711  0.0246
24614W        W39745   3.246  13.625   2.037 -0.0694  0.1475  0.3287
24615W        W39746   8.414   7.940  15.797 -0.0609 -0.1862  0.1182
24616W        W39747  15.170  15.937   4.279  0.0514 -0.1215 -0.0099
24617W        W39748  18.441  12.694   0.559 -0.4134  0.1764  0.1616
24618W        W39749  13.052  13.338   5.282 -0.0161  0.0198  0.0040
24619W        W39750   0.741  11.980  11.819  0.1519 -0.2796  0.3311
24620W        W39751   8.382   9.377   5.980 -0.3818 -0.2444 -0.1313
24621W        W39752   1.472   8.448  13.883  0.1364 -0.3129  0.1948
24622W        W39753  13.077  10.321  10.926 -0.1626 -0.2230 -0.2928
24623W        W39754   3.020   7.033  15.649  0.2233 -0.1849 -0.0640
24624W        W39755   8.188   6.187  15.514 -0.4752  0.3162  0.2059
24625W        W39756  13.013  15.855   2.171  0.1733 -0.1314 -0.0944
24626W        W39757  13.293   0.674   2.987 -0.0110  0.1220 -0.0115
24627W        W39758   8.691   0.955   2.544  0.2356 -0.4415  0.0340
24628W        W39759  12.770  10.738   1.556  0.0448  0.0981  0.1846
24629W        W39760  11.130   5.006   4.318  0.0048  0.1174  0.1157
24630W        W39761   3.290   1.901  14.230  0.1319  0.0810 -0.0144
24631W        W39762  11.021   7.135  11.414  0.0968 -0.3212 -0.0582
24632W        W39763   9.134  16.171  15.855 -0.2557  0.0596  0.0931
24633W        W39764  14.098   3.220  14.489 -0.1001  0.1096 -0.1292
24634W        W39765  11.268   0.318   1.812 -0.3691  0.0221  0.6020
24635W        W39766   2.647  13.099  12.240 -0.2148  0.2504 -0.1521
24636W        W39767   2.026   8.234  11.466  0.2471  0.0888  0.1347
24637W        W39768  11.529   2.374   2.951  0.0435  0.3101 -0.1688
24638W        W39769  17.325   7.595  12.748  0.0572  0.0013 -0.1271
24639W        W39770   2.902  18.479  14.739 -0.3288 -0.0303 -0.2818
24640W        W39771  15.865   7.566   3.709  0.0458  0.0321 -0.0823
24641W        W39772  10.971  10.397  14.356 -0.0194 -0.0338 -0.2149
24642W        W39773  15.284   8.703  11.751 -0.1609 -0.2085  0.0633
24643W        W39774   1.508  11.710   0.266  0.1663 -0.0576  0.2059
24644W        W39775  12.914  12.380  14.703  0.0198 -0.0125 -0.0397
24645W        W39776   6.637  12.708   1.741  0.0553 -0.1211 -0.0256
24646W        W39777   8.482   7.351  12.413  0.0717  0.2553  0.1449
24647W        W39778  10.216  10.051  12.840  0.3518  0.0368  0.1782
24648W        W39779   1.451  11.992   0.742  0.0327  0.1912 -0.0760
24649W        W39780  11.959   5.908  13.764 -0.0701 -0.0091  0.1726
24650W        W39781   5.086  14.222   2.911 -0.0193 -0.1262 -0.0709
24651W        W39782   3.271   8.509  12.863 -0.0634  0.0671 -0.1177
24652W        W39783   5.773  15.491  11.789  0.1809 -0.0544  0.0985
24653W        W39784  15.995  15.567   4.926  0.0060 -0.1939 -0.1309
24654W        W39785  13.266  12.594  11.374  0.1490 -0.2192  0.0306
24655W        W39786  16.297   4.328   2.549  0.0231 -0.1984 -0.0241
24656W        W39787   6.257  16.646   5.267  0.2076  0.1845 -0.5326
24657W        W39788  14.040   6.034  11.731 -0.1137 -0.0513 -0.1642
24658W        W39789   7.994  16.499  12.396  0.2031  0.0401 -0.0550
24659W        W39790   3.841  15.065  13.137  0.0874 -0.0666  0.1357
24660W        W39791   6.073   0.173  10.970 -0.2718 -0.0355  0.1642
24661W        W39792  15.756   8.695   5.328  0.0192 -0.1122  0.2829
24662W        W39793  15.563   7.837  13.694  0.0672 -0.1125  0.0954
24663W        W39794  15.236   1.792  15.779  0.1041 -0.2525 -0.2863
24664W        W39795   9.317   0.296   0.738 -0.0798 -0.0367  0.0624
24665W        W39796  16.890   7.518   2.653  0.0699 -0.0856 -0.0079
24666W        W39797   0.795  14.605   1.897  0.1507 -0.1303 -0.0261
24667W        W39798  14.714  16.386  14.376  0.2116  0.2323  0.1811
24668W        W39799   1.836   8.827   2.262 -0.3327 -0.2575  0.0009
24669W        W39800  18.237   6.377  11.125  0.0466 -0.0167  0.2895
24670W        W39801   3.470   6.096   1.947 -0.0276  0.0555 -0.1764
24671W        W39802  17.290  17.709  15.609  0.0590  0.0285 -0.1796
24672W        W39803   4.331   0.099  13.582  0.0845  0.0855 -0.0948
24673W        W39804   4.283   5.385   5.792  0.1800 -0.1105 -0.3000
24674W        W39805  17.636  18.108   5.378 -0.1142 -0.2421  0.0362
24675W        W39806   0.494  17.050   0.634 -0.0153  0.0269 -0.0275
24676W        W39807  16.415   6.167   5.005 -0.0183  0.1429  0.3335
24677W        W39808   6.812   9.804  15.214 -0.3092  0.2064  0.1537
24678W        W39809  16.681  18.001  10.941  0.0764 -0.0115  0.1426
24679W        W39810   9.141  15.569  11.732  0.1965  0.1018  0.2021
24680W        W39811  10.864  13.551  14.670  0.1980  0.1242  0.0627
24681W        W39812   7.975  10.074  11.636 -0.0564 -0.0922  0.0687
24682W        W39813   0.634   3.699  11.140  0.0451  0.0661 -0.0176
24683W        W39814  15.608  14.327  12.986  0.1515  0.1658 -0.3787
24684W        W39815  18.291  14.627   2.942 -0.2097 -0.0318  0.1486
24685W        W39816  12.542  15.840   2.096  0.2609 -0.0393  0.1596
24686W        W39817  13.449  12.898   3.762 -0.1245  0.0379  0.1919
24687W        W39818   9.685   0.941  14.032  0.0754  0.2086 -0.0501
24688W        W39819   3.021   6.763   0.134 -0.1807  0.0108  0.0434
24689W        W39820   3.156  10.106   4.065  0.1062 -0.1175 -0.1956
24690W        W39821  14.558  12.306  14.100 -0.1547  0.0858  0.0616
24691W        W39822   6.144   0.135  14.495 -0.0882  0.2247  0.0615
24692W        W39823   7.995   5.397   4.338  0.1065 -0.0105  0.0985
24693W        W39824  14.198  10.770   4.852  0.2370 -0.0169 -0.1628
24694W        W39825  16.925  15.176   0.262  0.2543 -0.3200  0.2234
24695W        W39826  10.900   9.179   0.653  0.1753  0.0209  0.0777
24696W        W39827  13.247   5.897   5.074 -0.0762 -0.4576  0.0791
24697W        W39828  12.254   1.639  15.153  0.3029 -0.0855 -0.1320
24698W        W39829   1.051   0.462  12.649 -0.2943  0.3182 -0.2128
24699W        W39830   7.550   0.971   4.263 -0.1727 -0.3852  0.2138
24700W        W39831   3.408   6.685   4.463  0.1449  0.1389  0.0196
24701W        W39832   5.349   3.278  11.440 -0.2023 -0.0048 -0.0828
24702W        W39833   5.057   7.110   2.817  0.2163 -0.3610  0.1381
24703W        W39834  18.019  14.709   4.392 -0.0042 -0.2174  0.1129
24704W        W39835  17.858  17.499  12.872 -0.1330 -0.0325  0.3293
24705W        W39836   1.919   3.729  15.914 -0.1385  0.1709 -0.0592
24706W        W39837   2.105   4.467   4.450 -0.1738 -0.2450  0.1620
24707W        W39838   3.259   2.401   1.208 -0.0489  0.3253  0.2360
24708W        W39839   3.143   3.329   3.753 -0.0235 -0.0464  0.0717
24709W        W39840  12.838   2.139   0.652  0.2497  0.0799  0.1522
24710W        W39841  12.131   9.839   5.657  0.0836  0.0988  0.0010
24711W        W39842  13.194  10.186  13.568  0.2551  0.4905 -0.4508
24712W        W39843  17.141  17.449  13.453 -0.0271  0.2677 -0.2760
24713W        W39844  10.736  13.948   5.017 -0.1973 -0.1560  0.1794
24714W        W39845  11.122   3.616   1.127  0.0734 -0.0443 -0.1321
24715W        W39846  12.590  17.364   4.187 -0.0490 -0.1962 -0.4278
24716W        W39847  12.626   3.392  14.848 -0.2635  0.0246 -0.0343
24717W        W39848   8.574   1.210  14.937 -0.0429  0.2278  0.4944
24718W        W39849   7.126   7.818  14.079  0.0701  0.3021 -0.0920
24719W        W39850   0.089   1.086   2.048  0.0151 -0.1702  0.1059
24720W        W39851  11.456   4.929  15.167  0.0709 -0.0636 -0.0959
24721W        W39852   4.060   1.805   1.509 -0.1085  0.2489  0.0551
24722W        W39853  16.166   3.498  12.447 -0.1560  0.0158  0.1423
24723W        W39854   7.934   1.326   0.489  0.3472 -0.2204 -0.2861
24724W        W39855  10.335   6.307  14.451 -0.1669  0.1383  0.5054
24725W        W39856   9.998  10.609   4.954  0.2657  0.0130 -0.1250
24726W        W39857   1.990   6.457   2.790 -0.1477 -0.2489  0.2423
24727W        W39858  11.250  15.720  11.200  0.0215 -0.3754 -0.3404
24728W        W39859   0.493  16.723  13.854  0.1790 -0.0068  0.0021
24729W        W39860  11.276  15.484  14.317  0.1175  0.0242 -0.0689
24730W        W39861   8.617  11.236   3.145  0.2454 -0.0501  0.1074
24731W        W39862   0.958   4.587   2.954 -0.3948  0.0268  0.0197
24732W        W39863   2.948   4.353  14.648 -0.1951 -0.2770 -0.1055
24733W        W39864  18.306   0.550  15.539  0.0952  0.0743 -0.1391
24734W        W39865  12.242  16.795   3.373  0.2657  0.0744 -0.0504
24735W        W39866  16.126   8.739   1.395 -0.1168  0.2017  0.1060
24736W        W39867   8.681   0.694   5.036 -0.2019  0.1049  0.0346
24737W        W39868  13.030   6.950  15.025 -0.1992  0.0079  0.1307
24738W        W39869  11.677  15.383   2.643  0.0788  0.0562 -0.0930
24739W        W39870  17.247   6.537   1.843 -0.2024  0.0302  0.0645
24740W        W39871   0.179   0.229   1.526 -0.0036  0.5033 -0.2326
24741W        W39872  11.226   4.097   2.423  0.2631  0.1084  0.3389
24742W        W39873   6.877   4.527   2.664  0.0980  0.1754 -0.1720
24743W        W39874   3.894  14.346   1.619 -0.0494 -0.0281  0.0694
24744W        W39875   5.089  11.270   3.858  0.2153 -0.1988  0.1619
24745W        W39876   3.176   5.582   0.315 -0.2373 -0.0790  0.0344
24746W        W39877  11.249   7.826  12.678  0.1195 -0.0290  0.1218
24747W        W39878  10.903   2.218  15.700 -0.0851 -0.4313  0.0309
24748W        W39879   2.868  12.861  13.741  0.1689  0.1066  0.1121
24749W        W39880   0.947   5.455  13.041  0.1515 -0.2681 -0.1311
24750W        W39881  17.249   2.558   5.111  0.0254 -0.0345 -0.2601
24751W        W39882  11.959  16.997  11.878  0.1450  0.1041  0.2886
24752W        W39883   2.344   0.979  14.123  0.1246  0.1566 -0.1577
24753W        W39884  12.608   4.956  14.113 -0.1186 -0.6607  0.0271
24754W        W39885   3.638   2.278  15.525 -0.1249  0.0237 -0.2432
24755W        W39886  17.503  18.545   5.648  0.2303 -0.1257  0.1923
24756W        W39887  11.379  18.301  14.917  0.1453 -0.2892 -0.0087
24757W        W39888   8.054   2.998   0.872 -0.0436  0.2467  0.0480
24758W        W39889   5.313   4.208   1.464 -0.1995  0.0536  0.0549
24759W        W39890  14.075   6.450  13.202  0.4066  0.1033  0.1127
24760W        W39891  11.787  12.815  11.471  0.1616 -0.5199 -0.0588
24761W        W39892  16.363  12.749  12.188 -0.1316 -0.1722 -0.3471
24762W        W39893  18.332  13.535  15.400  0.3918  0.1785  0.1648
24763W        W39894   1.110   1.330   4.320  0.0725 -0.0798  0.2395
24764W        W39895   5.888   9.269   1.202  0.1885 -0.2526  0.1494
24765W        W39896   1.889  17.728   4.281 -0.1446 -0.0227  0.4244
24766W        W39897   9.161  18.207   0.080 -0.2463 -0.1267  0.1120
24767W        W39898  14.840  17.301  12.022  0.3144  0.0194  0.0525
24768W        W39899  18.538   0.934   1.565 -0.0227 -0.1161  0.0505
24769W        W39900   3.713  14.177   3.917  0.1726 -0.2085 -0.0867
24770W        W39901  16.757   0.190  14.808  0.0957 -0.1955 -0.0372
24771W        W39902   6.453  16.850   3.772  0.3358  0.0305  0.3229
24772W        W39903  14.831   2.149  11.000  0.1043 -0.1131  0.2771
24773W        W39904   2.455   2.080   0.019  0.0392 -0.3332 -0.2404
24774W        W39905   0.715  15.100   3.926  0.1005  0.0366 -0.2209
24775W        W39906  17.726  14.355  12.237  0.0924 -0.3175 -0.3497
24776W        W39907   9.407   3.491  15.937  0.1390  0.3866  0.1302
24777W        W39908   6.059   6.914  14.549 -0.2849  0.1213 -0.1018
24778W        W39909   1.729   8.765   3.314 -0.3299  0.0969  0.1159
24779W        W39910   8.322  14.788  13.153 -0.5051 -0.2183  0.1147
24780W        W39911  18.190   1.293  15.457 -0.1960 -0.0198 -0.1889
24781W        W39912  14.742   1.310  14.644 -0.2041  0.0741  0.0450
24782W        W39913  12.049   7.761   4.809 -0.1726 -0.2316 -0.0711
24783W        W39914   2.254  17.307   4.711 -0.3217 -0.0557 -0.0132
24784W        W39915  10.497   0.730  15.582 -0.1957  0.0750 -0.0520
24785W        W39916  10.456  12.592   2.772  0.0618 -0.2327  0.2098
24786W        W39917  10.305  14.236   1.162  0.2456 -0.3031 -0.1191
24787W        W39918   2.123   0.728  14.919 -0.2327  0.1642 -0.2170
24788W        W39919  12.518   9.299  13.077  0.1282 -0.3838 -0.3369
24789W        W39920  10.115  16.345   5.379 -0.0522  0.0582 -0.2016
24790W        W39921   0.905  12.254   5.444  0.2288  0.2062 -0.1065
24791W        W39922   3.103   4.082  12.638  0.0493  0.3250  0.0078
24792W        W39923   1.970  12.181  13.218  0.0357  0.0385 -0.1110
24793W        W39924   7.079   5.831  13.076  0.0205  0.1334  0.0267
24794W        W39925  17.448  10.041   4.697 -0.1378  0.0640 -0.3704
24795W        W39926   2.448   8.615   4.309 -0.1570 -0.0273  0.0591
24796W        W39927   4.481   9.241  12.802 -0.2302 -0.4040 -0.1761
24797W        W39928  10.200   0.235  10.330  0.2418  0.1799  0.0044
24798W        W39929   4.385  11.349   1.021 -0.2846  0.2049 -0.1469
24799W        W39930   6.474  11.616   2.537 -0.1411  0.1747 -0.1331
24800W        W39931  11.099   6.999   4.743 -0.2758 -0.0276 -0.0492
24801W        W39932   7.865  11.084  11.851  0.0706 -0.5017  0.1787
24802W        W39933   0.572   9.831   5.420  0.1816  0.1540 -0.1316
24803W        W39934   1.335  10.952   5.163 -0.1593 -0.3058 -0.1815
24804W        W39935  11.137  16.455  15.473  0.1074 -0.0436 -0.3754
24805W        W39936   8.403  15.750   3.489  0.0215  0.6297 -0.2440
24806W        W39937  11.628  10.940   1.050  0.1110 -0.0050 -0.0148
24807W        W39938  11.637   0.088  10.729 -0.1223 -0.1177 -0.1097
24808W        W39939   1.727  15.131  11.520  0.0322 -0.0348 -0.1715
24809W        W39940   4.164   3.625   2.266  0.0774  0.0693 -0.1807
24810W        W39941   0.330   0.873  14.651  0.2113  0.0166 -0.2198
24811W        W39942   0.889   5.051   2.186 -0.1726 -0.3649  0.0212
24812W        W39943  18.390  12.484   5.317  0.0802  0.0474  0.1872
24813W        W39944   3.230  13.024  15.536 -0.0860  0.0088  0.0717
24814W        W39945  16.111   3.910  15.448  0.1002 -0.1374 -0.2663
24815W        W39946  11.096  11.362   4.731 -0.1094 -0.0583 -0.0983
24816W        W39947   5.713  11.633  13.972 -0.3769 -0.0265 -0.1431
24817W        W39948   4.375   0.503   1.308 -0.2569  0.1666 -0.1626
24818W        W39949   8.859   1.703   1.997  0.2902 -0.3171  0.0261
24819W        W39950   3.219  14.979  14.853  0.1569 -0.2508  0.2004
24820W        W39951  18.496   7.242  13.857  0.0340 -0.0022  0.3440
24821W        W39952  13.278  16.657   1.676 -0.1536  0.0724 -0.1616
24822W        W39953  14.250   4.530   3.580 -0.2203  0.3684 -0.1014
24823W        W39954   4.638   2.330   2.423  0.2807 -0.2050  0.2010
24824W        W39955   8.819   8.048  13.590  0.1727 -0.1423 -0.0130
24825W        W39956   1.047   8.347  12.516  0.0410  0.1472 -0.0656
24826W        W39957  13.972   2.771  11.030 -0.0762 -0.0369  0.1789
24827W        W39958   6.875   9.972  15.882 -0.3739  0.0693 -0.0545
24828W        W39959  16.818   3.131   4.304 -0.2242  0.5748  0.2119
24829W        W39960   4.544  13.874   2.545 -0.0514 -0.1339 -0.0882
24830W        W39961  11.340   3.783  10.843 -0.0139  0.1512  0.5035
24831W        W39962   4.835  14.157  11.296 -0.0649  0.2639  0.0808
24832W        W39963  14.111  14.737  12.369 -0.1655  0.0394 -0.0055
24833W        W39964   3.051   9.983  14.292 -0.3743 -0.2849 -0.1589
24834W        W39965  14.352   7.623  11.308 -0.0756 -0.0046 -0.2966
24835W        W39966  14.452   0.764   1.261  0.1361 -0.0076 -0.1958
24836W        W39967  12.194  10.250  13.880 -0.0753 -0.1839 -0.1833
24837W        W39968  12.345  15.282  13.554 -0.1172  0.0506  0.1881
24838W        W39969   8.687   3.217   4.785 -0.0497 -0.0142 -0.1127
24839W        W39970   5.180  10.674   2.509 -0.1832  0.1515  0.2462
24840W        W39971  15.665  15.822  15.032  0.2822 -0.4000  0.1903
24841W        W39972   0.819   8.470   5.387 -0.0512  0.1213 -0.0326
24842W        W39973   0.651  18.380  11.542 -0.0826 -0.3299 -0.0393
24843W        W39974  14.163  16.709   4.213  0.0429 -0.0780  0.0248
24844W        W39975   4.079   9.151  11.891  0.1929 -0.0224  0.3299
24845W        W39976   4.480  15.792   4.316  0.0482  0.1720  0.1560
24846W        W39977   8.135   8.234   0.990 -0.3574 -0.1619 -0.0674
24847W        W39978   0.047   4.266  11.409 -0.2050 -0.0843 -0.0351
24848W        W39979  13.155  11.739   4.351  0.3131 -0.0836  0.4466
24849W        W39980  11.402  16.816   4.807 -0.0622 -0.0746  0.2868
24850W        W39981   3.861   5.363   5.527  0.1861  0.1261  0.3360
24851W        W39982   1.993   4.628   2.987 -0.1885 -0.1768  0.2195
24852W        W39983   0.018   8.475   4.170 -0.4503  0.0071  0.1876
24853W        W39984   7.299   9.352  15.929  0.0016 -0.0041 -0.1569
24854W        W39985  16.794  16.018   2.242  0.2705  0.0718  0.0015
24855W        W39986   7.737  10.502   1.347  0.2037  0.0206 -0.0934
24856W        W39987  11.072  10.490  15.519 -0.1579  0.0188 -0.1266
24857W        W39988  13.503  14.877  14.317 -0.0037 -0.2329  0.0349
24858W        W39989   7.773  17.081  12.443 -0.1310 -0.0968 -0.1344
24859W        W39990   6.245  14.596  12.036  0.0062  0.1540 -0.2308
24860W        W39991   3.439   2.074   0.189  0.1770 -0.1876  0.1520
24861W        W39992  14.534   5.429   0.906  0.0170  0.1904  0.0352
24862W        W39993  11.407   5.795  15.845  0.2929  0.3043 -0.2169
24863W        W39994   9.341   5.664   2.299  0.0821 -0.1817  0.0557
24864W        W39995  13.334  17.862   1.627  0.1671  0.1345  0.1636
24865W        W39996  15.380  15.749   1.446  0.0936 -0.2682  0.0077
24866W        W39997  16.674  12.173   0.014 -0.0101  0.1292 -0.4368
24867W        W39998   2.334   7.699   1.483  0.2392 -0.2071 -0.4102
24868W        W39999  10.348   8.225  11.547 -0.0863 -0.0938 -0.0998
24869W        W40000   8.206   9.614   2.209  0.2730  0.2317 -0.0485
24870W        W40001  10.000   4.400   4.041 -0.0110  0.0459 -0.0850
24871W        W40002   3.013  16.060  11.939 -0.1524 -0.1619 -0.1961
24872W        W40003  17.589  11.106  14.908  0.1881  0.1605  0.3836
24873W        W40004  12.096  17.204  14.486  0.2932 -0.4813 -0.1658
24874W        W40005  15.168   1.109   4.886 -0.0472  0.1239  0.0897
24875W        W40006   7.833   8.317  11.457  0.1886  0.1273  0.2832
24876W        W40007   6.926   0.699  14.911  0.1482  0.1587  0.0323
24877W        W40008  11.880   6.942   4.042  0.1922  0.1162 -0.3238
24878W        W40009   2.790  17.516  14.271 -0.1417  0.0455  0.2553
24879W        W40010  13.640  10.564  13.691  0.2454 -0.0534  0.0627
24880W        W40011  15.451  15.870  12.061 -0.2726  0.2543  0.1115
24881W        W40012  15.691  12.385  14.108  0.1266 -0.0761  0.1018
24882W        W40013   6.910   0.943   2.924  0.0674  0.2076 -0.3645
24883W        W40014  17.013   8.976   1.041  0.2197  0.0981 -0.1792
24884W        W40015   7.197  12.444  15.940 -0.1760  0.0184 -0.3874
24885W        W40016   8.903   9.749  13.790  0.1361  0.0376 -0.0706
24886W        W40017  10.044  12.457  15.545  0.2278 -0.4979 -0.2667
24887W        W40018  17.696  13.110   5.894  0.3051 -0.3001 -0.0779
24888W        W40019  16.205  14.312   2.272  0.1884 -0.0931 -0.2443
24889W        W40020  17.710   5.409   6.367  0.0371  0.1254  0.1939
24890W        W40021   2.771   8.376  14.809  0.1209 -0.0876 -0.1391
24891W        W40022  11.960  10.678   1.344  0.0178  0.0110 -0.1143
24892W        W40023   3.356   9.804   3.662  0.2818 -0.0232 -0.3525
24893W        W40024   2.092   1.194   3.355 -0.0618  0.2469  0.0293
24894W        W40025   8.797   0.877  15.614 -0.0248  0.3487  0.2635
24895W        W40026   0.590  15.306  13.841  0.0463  0.0567  0.2301
24896W        W40027   1.574   2.907  14.453 -0.0444 -0.0165  0.0215
24897W        W40028   2.482  15.523  11.573  0.0044  0.1574 -0.0387
24898W        W40029  15.954   4.685   2.511 -0.1610 -0.0261  0.0129
24899W        W40030   3.919   9.586   1.118  0.0157 -0.1975 -0.1824
24900W        W40031   7.077  15.675  12.849 -0.0084  0.2180 -0.0548
24901W        W40032   1.610  14.780   6.246 -0.2971 -0.1794 -0.2857
24902W        W40033  17.335  16.219   2.462 -0.0093  0.3018 -0.2038
24903W        W40034   8.542   5.819   1.037  0.0547 -0.0543  0.0884
24904W        W40035   7.329   7.039   4.354  0.0314  0.3034  0.2120
24905W        W40036  11.394  17.918   2.135  0.0627  0.4338  0.0902
24906W        W40037  13.223  15.192   0.283  0.0420  0.0652  0.2070
24907W        W40038  15.071   5.302  12.213  0.0288 -0.2810  0.0677
24908W        W40039   8.996   3.777  15.015  0.1260  0.3672 -0.2880
24909W        W40040   3.852  14.731  13.503 -0.2934 -0.1908  0.2790
24910W        W40041  10.927   4.901   9.871 -0.0466  0.1057  0.0265
24911W        W40042   9.245   9.963   0.716  0.2011 -0.1627 -0.2820
24912W        W40043  12.272   8.566   1.332 -0.1503 -0.0982  0.1564
24913W        W40044  13.218  14.504  11.978 -0.0437  0.3847 -0.0527
24914W        W40045   8.939  16.088  14.557  0.1666 -0.2073 -0.1972
24915W        W40046  17.373   2.264  15.050  0.3158 -0.2432 -0.0782
24916W        W40047  12.402   8.033   1.798  0.2174  0.0940 -0.1283
24917W        W40048  14.348   4.254  11.511  0.0467 -0.2591 -0.1630
24918W        W40049  16.715   7.363  13.739 -0.1649 -0.0290  0.0345
24919W        W40050  18.393  12.073  13.592  0.1285  0.0459 -0.1146
24920W        W40051  13.651   0.241   4.663  0.0308  0.0523 -0.1988
24921W        W40052   2.683  16.760  15.194 -0.0261  0.0834 -0.0025
24922W        W40053   4.059   7.565   0.218 -0.0341 -0.0746 -0.1666
24923W        W40054  12.691  16.666   3.519 -0.2571 -0.0250  0.2212
24924W        W40055  15.139  18.232   3.204  0.4360 -0.2258 -0.0915
24925W        W40056   8.079  14.351   4.090 -0.0891  0.0194  0.2042
24926W        W40057  18.534   3.460   4.185 -0.1719  0.1661  0.1737
24927W        W40058   9.933   7.741   3.572  0.4776 -0.0022 -0.0888
24928W        W40059  16.434  13.146   3.289  0.0784  0.0206 -0.0669
24929W        W40060   7.897  10.547  15.287 -0.1141 -0.1360 -0.0654
24930W        W40061  16.467   6.971   2.203  0.0248 -0.3908 -0.0950
24931W        W40062  15.119   2.866   2.309  0.1585 -0.1394  0.1221
24932W        W40063  15.769   2.007   1.371 -0.0803 -0.1542  0.2190
24933W        W40064   9.145   3.148  10.839  0.0192 -0.2786  0.2482
24934W        W40065   6.616   9.526  12.200  0.5131  0.0440 -0.4695
24935W        W40066   0.174   4.685   2.252  0.2171 -0.1278  0.2102
24936W        W40067   1.634   3.141   4.641  0.0175  0.3202 -0.1911
24937W        W40068   8.476   4.121   1.155  0.0063 -0.0520 -0.0922
24938W        W40069   0.192   5.960   4.256  0.2958  0.1777 -0.1600
24939W        W40070  15.621  14.610  13.411  0.1276 -0.3838  0.0825
24940W        W40071  12.352   9.900  13.464  0.0181  0.0847 -0.1509
24941W        W40072   9.710   6.516  11.899 -0.0270  0.0011  0.0455
24942W        W40073   4.011  11.239   2.690 -0.0500  0.1642 -0.2103
24943W        W40074  11.885  14.287  15.021  0.0759 -0.1289  0.1953
24944W        W40075   4.319   1.455  15.047 -0.3885  0.1678  0.1172
24945W        W40076   3.517  18.193  13.535  0.0775 -0.1975 -0.0654
24946W        W40077   2.017  10.300   1.251 -0.1507  0.1367 -0.5677
24947W        W40078  17.200   0.844   6.007 -0.0946 -0.0780 -0.3183
24948W        W40079   7.038   0.526   0.560 -0.0709  0.1118 -0.1498
24949W        W40080  14.698   1.458   5.884  0.3124  0.3933  0.0370
24950W        W40081  14.855   8.731   4.943 -0.3183  0.1295 -0.1899
24951W        W40082   4.376   6.004  12.417  0.1116  0.0143  0.0147
24952W        W40083   4.910  18.244  14.330 -0.1947  0.6043 -0.2491
24953W        W40084  12.465  10.354  11.182  0.0485  0.2789 -0.2798
24954W        W40085  11.489  16.423   5.154  0.1217 -0.1105  0.2218
24955W        W40086   4.435  13.078   3.673 -0.1349 -0.0310 -0.0477
24956W        W40087  12.372  10.456  13.413  0.0854  0.2354  0.2332
24957W        W40088   4.240  10.956   4.273  0.0063 -0.1656 -0.0025
24958W        W40089  14.849  13.559  12.964 -0.2620 -0.3055 -0.0814
24959W        W40090   5.428  16.828  14.636  0.1439 -0.3216  0.2218
24960W        W40091  11.278  11.626  13.926  0.0026 -0.3284  0.1251
24961W        W40092   3.665  16.110   3.138 -0.0894  0.0083 -0.1673
24962W        W40093   1.271   9.333   1.211 -0.2257  0.0328  0.0740
24963W        W40094   8.755  14.926   1.675 -0.1810  0.2311  0.4359
24964W        W40095  15.488   6.207  11.710 -0.0515  0.0899  0.0088
24965W        W40096  17.558  11.411  15.341  0.3474  0.2430  0.1964
24966W        W40097   1.807   0.494   3.669  0.2294 -0.0804  0.3612
24967W        W40098   3.028   7.461  12.541 -0.0449  0.1726  0.2939
24968W        W40099  13.732  17.942   4.168  0.1063 -0.5312 -0.2627
24969W        W40100   0.190  17.733  12.553 -0.1227 -0.0867  0.3038
24970W        W40101  15.756   6.076   0.209 -0.2267  0.3266  0.0858
24971W        W40102   1.794   0.243  11.815  0.1992 -0.1246 -0.0811
24972W        W40103   3.743  16.217  11.380  0.2681 -0.1016 -0.0709
24973W        W40104  16.843   1.709  13.037 -0.1285 -0.0081 -0.3197
24974W        W40105   5.211  13.002  15.163 -0.1620  0.1357 -0.1353
24975W        W40106  15.552   8.677   0.553 -0.0512 -0.2013 -0.1039
24976W        W40107   0.953  18.473  14.501 -0.2190 -0.0252  0.0580
24977W        W40108   4.711   8.094  11.064  0.0799 -0.1626 -0.2512
24978W        W40109   8.185   5.930  15.938  0.1191  0.1449  0.1477
24979W        W40110   9.419   5.367   0.124 -0.3274 -0.0144  0.3080
24980W        W40111  16.813  11.146  13.746 -0.1698  0.3022  0.4180
24981W        W40112  15.450  13.998  12.638  0.1272 -0.3401 -0.0760
24982W        W40113   8.981  14.045   4.318  0.1297 -0.0322  0.4055
24983W        W40114   5.882   7.931   5.072 -0.0366  0.2620  0.2265
24984W        W40115   4.026   7.030   2.297 -0.1149 -0.2113 -0.0029
24985W        W40116  17.544  13.517   3.780 -0.2759  0.3442 -0.0385
24986W        W40117   7.606  13.765  11.865  0.3085  0.2084 -0.0928
24987W        W40118   4.507   1.619   3.124  0.0821  0.2227  0.1724
24988W        W40119  17.817   9.360   5.067  0.3388 -0.0184 -0.2936
24989W        W40120   3.116  16.539   5.608  0.1746 -0.0774 -0.3493
24990W        W40121  14.806   3.957  14.691 -0.0117 -0.2229 -0.0017
24991W        W40122  13.609   6.119   0.080 -0.0407  0.0830 -0.0180
24992W        W40123   2.489  10.293   3.215  0.2745 -0.1673 -0.0356
24993W        W40124  14.934   6.159  13.435 -0.1578  0.0705 -0.2448
24994W        W40125   2.768  15.187   1.012  0.3861  0.1928  0.1648
24995W        W40126   8.849  15.532   3.402 -0.1601  0.1623 -0.1710
24996W        W40127  14.232  12.442  11.133  0.3535 -0.2860  0.0030
24997W        W40128   9.307   3.993  15.726  0.4846 -0.0445  0.2052
24998W        W40129   1.306  11.976   1.462  0.0264  0.3449  0.2160
24999W        W40130   2.988  12.959  12.610  0.2496  0.1843  0.0597
25000W        W40131   9.638  13.122   0.392 -0.0857 -0.1779  0.1118
25001W        W40132   4.498  16.449   1.492 -0.0345  0.1015 -0.2087
25002W        W40133   7.489   0.037  12.630 -0.0624  0.0048  0.1725
25003W        W40134   9.646  16.902  13.412 -0.1546 -0.3315  0.2046
25004W        W40135  17.371  15.156  11.700 -0.4639 -0.1542  0.1407
25005W        W40136   6.580   1.738  14.862  0.0261 -0.0138 -0.3829
25006W        W40137  12.329   2.509  15.840  0.1722  0.0417 -0.2985
25007W        W40138   8.135   7.691  14.758  0.1220  0.2471  0.1509
25008W        W40139   0.104   6.173  11.504  0.1219 -0.3137  0.1904
25009W        W40140   5.789  14.548   1.469  0.1998  0.3212  0.0787
25010W        W40141  14.101  18.291   1.344  0.2091  0.1575 -0.4444
25011W        W40142   4.155   7.181  14.831 -0.0985  0.1549 -0.1222
25012W        W40143  14.730  15.221  15.191  0.0714 -0.0023 -0.0896
25013W        W40144   2.815   4.067  15.029  0.0360 -0.0095 -0.0669
25014W        W40145  10.268   7.356   2.755 -0.0828 -0.0835 -0.0025
25015W        W40146   6.989   1.948  10.806  0.2177  0.1490  0.1540
25016W        W40147   9.183   8.569  13.511 -0.3203 -0.0554  0.0138
25017W        W40148   3.001  10.278  10.906 -0.1227  0.0986  0.2805
25018W        W40149   7.645   9.243   3.916  0.3005  0.2048 -0.0543
25019W        W40150  13.360  14.156   4.990 -0.0313 -0.2264 -0.1136
25020W        W40151   2.644   6.964  11.927  0.1012 -0.0524  0.1263
25021W        W40152  15.505   2.820   1.410 -0.2288  0.2028 -0.0646
25022W        W40153  18.306  13.119  12.280 -0.3723 -0.0929 -0.1121
25023W        W40154  13.211  15.312   5.489 -0.0740  0.1185  0.0839
25024W        W40155  17.922  10.878   4.443 -0.2191  0.2755 -0.0100
25025W        W40156   4.573   6.398   1.762 -0.3156 -0.0878 -0.3869
25026W        W40157   4.552  16.555  13.132 -0.1744 -0.2992  0.0109
25027W        W40158  12.675  18.487   4.650  0.0323  0.0973  0.2521
25028W        W40159  12.437   2.058   0.057 -0.2779 -0.2169  0.1315
25029W        W40160  18.470   4.702  11.159 -0.1886 -0.2204 -0.0712
25030W        W40161   5.471  11.791  11.013 -0.1326  0.0179  0.1479
25031W        W40162  17.630  14.811  13.926  0.1479  0.1514 -0.0730
25032W        W40163  14.779  17.524  13.037 -0.0252 -0.0770 -0.0991
25033W        W40164   9.083  12.864  14.924  0.1634  0.2325 -0.0219
25034W        W40165   8.035   3.786   4.327 -0.0230 -0.0375  0.0748
25035W        W40166  15.265   9.058   4.929  0.2594 -0.2645  0.0936
25036W        W40167   1.724  12.190   0.338  0.1505 -0.1956  0.1772
25037W        W40168  17.194   9.814  13.643  0.3374 -0.0557  0.1034
25038W        W40169  14.163  17.654  15.768  0.1584 -0.1524 -0.0659
25039W        W40170  13.320  17.144  13.083  0.1059 -0.0708 -0.2644
25040W        W40171   8.704   7.690  13.204 -0.1958  0.1848  0.2775
25041W        W40172  14.537  12.864  12.414 -0.3070  0.0408  0.1526
25042W        W40173   6.814   7.176   5.083  0.1659  0.0546  0.0704
25043W        W40174  14.106   8.118  15.707 -0.3479 -0.0928 -0.0228
25044W        W40175  18.264   3.031   1.382  0.0023  0.0633 -0.2349
25045W        W40176   3.849   5.706   2.043  0.2211  0.1281 -0.0428
25046W        W40177   0.069   4.115  13.967  0.1034  0.1901  0.1506
25047W        W40178   1.681  15.140   5.071 -0.0142 -0.0427 -0.0431
25048W        W40179  18.343   2.589  15.082 -0.1095 -0.4805  0.0713
25049W        W40180   2.976  11.005  14.859  0.0833  0.1046 -0.0575
25050W        W40181   7.531  12.120  13.389 -0.1166 -0.2023 -0.1317
25051W        W40182  10.469  15.090  14.236  0.0253  0.1006 -0.2312
25052W        W40183  16.348   6.788   1.776 -0.1924 -0.1063  0.4517
25053W        W40184  16.527  15.392  15.483 -0.2048 -0.0956 -0.1335
25054W        W40185  17.369  16.484   1.513 -0.2713 -0.0190  0.0326
25055W        W40186   8.791   2.705  10.049 -0.1181  0.3499 -0.0290
25056W        W40187  11.411   5.750   2.323  0.0828  0.2871  0.1664
25057W        W40188  17.665   4.172   4.947  0.0770  0.2945  0.1870
25058W        W40189  12.177   7.447   0.018  0.0641  0.1401  0.4244
25059W        W40190   6.502   8.346   5.599  0.3506 -0.0232 -0.1299
25060W        W40191  10.904   5.500   3.148 -0.0425 -0.1083  0.0098
25061W        W40192   8.120   9.769  14.011 -0.0114  0.2506  0.3071
25062W        W40193  15.127  11.569  15.261 -0.1638  0.2109  0.1285
25063W        W40194   8.777   0.787  12.415 -0.1439 -0.1442 -0.4769
25064W        W40195   2.593  12.342   1.901 -0.1420 -0.2303 -0.1700
25065W        W40196  15.501  15.302  10.177 -0.1634 -0.3293  0.1766
25066W        W40197   0.183   1.283   2.935  0.2836 -0.2537  0.1257
25067W        W40198   5.821  12.223   4.605 -0.1080 -0.1314  0.1987
25068W        W40199  13.288  11.644   1.722  0.0692 -0.0253  0.0949
25069W        W40200  13.117   4.036   2.405  0.1394 -0.0832  0.1587
25070W        W40201   0.855   1.411   3.421  0.0874 -0.1106 -0.0372
25071W        W40202   9.056  10.611  12.329 -0.0647 -0.0504  0.1189
25072W        W40203  13.237   7.756  13.564 -0.0351  0.0086 -0.1246
25073W        W40204   1.821  10.319   5.268 -0.0011  0.0319  0.2172
25074W        W40205  12.955   4.736  13.429 -0.3699 -0.0394  0.1599
25075W        W40206  17.709  11.821   4.541  0.1582  0.3558 -0.1289
25076W        W40207  14.647   6.337   4.791  0.2546  0.0914  0.0792
25077W        W40208   6.910  15.780   0.980  0.0696  0.3384  0.1604
25078W        W40209   5.713   0.685   0.051  0.0812  0.2415  0.0892
25079W        W40210   3.874  16.997  15.565  0.0735  0.0403  0.1467
25080W        W40211   6.339  13.933   2.882  0.0421 -0.1035 -0.1394
25081W        W40212   1.985   3.489   2.607  0.0619  0.1019  0.2236
25082W        W40213   3.290   6.885   3.979  0.0591 -0.0202 -0.1249
25083W        W40214   6.381  11.512  10.210 -0.4326 -0.2338  0.4102
25084W        W40215  10.896  18.549   2.027  0.0161 -0.0718  0.1234
25085W        W40216   6.038  11.276  14.630  0.5739 -0.0039 -0.0557
25086W        W40217   1.645  17.933   5.071  0.0605 -0.0790  0.0742
25087W        W40218   9.985   6.462  14.776  0.0360  0.0530  0.0125
25088W        W40219  12.177   7.761   0.452  0.4213 -0.2778  0.2322
25089W        W40220   6.619  14.197  12.078  0.2529 -0.1209 -0.0788
25090W        W40221  13.151   1.517   0.433 -0.0836 -0.1344  0.2698
25091W        W40222   6.192  12.125   0.407 -0.1085 -0.2736  0.1199
25092W        W40223   4.112  15.853  15.889  0.1854 -0.1131  0.0181
25093W        W40224   3.487   7.264  12.317 -0.0201  0.3495 -0.3157
25094W        W40225  17.898  13.696   0.737 -0.1297 -0.1600 -0.1325
25095W        W40226   7.117   3.052   1.957 -0.1955 -0.3768 -0.2407
25096W        W40227  15.727  14.122   5.219 -0.5934  0.1493  0.3298
25097W        W40228   8.967  12.156  10.980 -0.4397 -0.0028  0.0352
25098W        W40229   7.044  18.490   4.946 -0.1545  0.1916 -0.2489
25099W        W40230  17.967  12.597  14.261 -0.3331 -0.1504 -0.2814
25100W        W40231  17.879   3.046  12.765  0.0505  0.0996 -0.1028
25101W        W40232  15.750   8.617  11.805  0.0988  0.1129  0.0327
25102W        W40233  15.094   3.499   1.670 -0.3139  0.0977 -0.1242
25103W        W40234   3.149  14.268   3.164  0.1294 -0.0654 -0.0771
25104W        W40235   8.070   3.321  15.881 -0.1784 -0.0545 -0.0476
25105W        W40236  17.205  10.149   6.454 -0.0017  0.0115 -0.4252
25106W        W40237  11.210   1.236  11.518 -0.0438 -0.1745 -0.1439
25107W        W40238   8.052  16.434   3.162  0.0374  0.1785 -0.0759
25108W        W40239   7.223   3.225  12.188 -0.0723 -0.1842 -0.1927
25109W        W40240  14.569  16.982  13.775  0.0474 -0.0214  0.5206
25110W        W40241   8.335  10.741   0.569  0.0835  0.0455  0.0407
25111W        W40242  14.980   4.427  11.014  0.0262  0.0619  0.0804
25112W        W40243  12.937   9.166  10.226  0.0967 -0.1305  0.3236
25113W        W40244   0.739   1.274   2.858 -0.1776  0.1065 -0.0661
25114W        W40245  17.862   4.113   3.518  0.4794  0.3027  0.1353
25115W        W40246   3.588  13.382  13.371 -0.2466 -0.0221  0.2343
25116W        W40247  11.436   8.038  15.384  0.0543 -0.0525 -0.1543
25117W        W40248   8.840   9.707  15.886  0.1065  0.0413 -0.1139
25118W        W40249  15.390   9.204   2.302 -0.1795  0.3830 -0.0438
25119W        W40250   3.900  12.533  12.369  0.0338 -0.3063  0.0076
25120W        W40251  16.218   2.590  13.892 -0.1206 -0.0114 -0.2209
25121W        W40252   3.106   7.880   1.424  0.0271 -0.2058  0.1808
25122W        W40253  14.708   8.032   1.621  0.0209 -0.0798 -0.0968
25123W        W40254   2.660  10.578   5.798  0.1759  0.1122  0.2223
25124W        W40255   4.903  14.533  12.263 -0.0670  0.0352 -0.2625
25125W        W40256  10.942  10.951  14.285  0.0158 -0.2310  0.1231
25126W        W40257  12.461   6.991   4.167 -0.1021 -0.2640  0.2364
25127W        W40258   8.753   8.475  14.377  0.1899  0.1157  0.0187
25128W        W40259   0.981  12.052  13.561 -0.0937 -0.1463 -0.0648
25129W        W40260  17.953   0.190   1.932  0.0406 -0.2708 -0.1201
25130W        W40261   8.921  17.195  13.446 -0.1107  0.0737 -0.0972
25131W        W40262  17.535   5.657  15.724 -0.0666  0.0014 -0.0043
25132W        W40263   8.888   3.273  15.141  0.3552 -0.1274 -0.0441
25133W        W40264   3.112   5.619  15.771  0.0030  0.1328 -0.1175
25134W        W40265   8.695  11.707   3.322 -0.0801 -0.3267  0.0096
25135W        W40266   0.612   8.008   5.328  0.0212  0.4482 -0.1923
25136W        W40267  15.152  15.876  14.918  0.2386  0.2793  0.0612
25137W        W40268  12.062   3.451   0.012  0.0977 -0.0260  0.2524
25138W        W40269   2.012  11.920   0.820 -0.0132  0.0150  0.0614
25139W        W40270   8.800  12.940  15.411  0.2440 -0.0632 -0.0230
25140W        W40271   1.876   3.693  15.413 -0.0893 -0.0598  0.0520
25141W        W40272   3.117   4.766  10.468  0.1064 -0.1423  0.0155
25142W        W40273   6.056  16.752   4.254 -0.0364 -0.1774  0.0928
25143W        W40274   4.481   6.832  15.221  0.2173  0.0511  0.0311
25144W        W40275   7.154   3.757   0.238 -0.3190  0.0763 -0.1179
25145W        W40276   4.756   9.338   3.665 -0.3232 -0.1010 -0.1451
25146W        W40277   5.581   4.236   2.242 -0.0334  0.0493 -0.1088
25147W        W40278  10.542   5.531  11.887 -0.0892 -0.0533 -0.0962
25148W        W40279  10.577  10.074  14.318 -0.1850  0.1289 -0.1427
25149W        W40280   3.439  12.487  11.922 -0.3417 -0.1390  0.1914
25150W        W40281  18.275   1.004  13.088  0.0472 -0.0479 -0.0277
25151W        W40282   4.682   2.686  14.386  0.4290 -0.1956 -0.3319
25152W        W40283  12.903   5.978   1.058 -0.2011 -0.1747 -0.0203
25153W        W40284  11.678  11.834   1.194 -0.1745  0.1745 -0.0616
25154W        W40285   6.046   8.007  13.325  0.0572  0.3513 -0.2221
25155W        W40286  16.755  16.230  12.269  0.1253  0.1844 -0.1767
25156W        W40287   3.908  14.412   1.109  0.2287  0.3888 -0.0160
25157W        W40288  10.272  18.156  13.297 -0.2218 -0.2822 -0.5504
25158W        W40289  15.318  16.684   3.636  0.4279  0.2675 -0.0379
25159W        W40290   7.008  13.698  13.892 -0.0566 -0.1451 -0.1038
25160W        W40291   3.483   0.608   1.280  0.0291  0.3127 -0.0283
25161W        W40292   5.904  15.640  12.977  0.0040  0.2207  0.3474
25162W        W40293   8.306   6.248   1.276  0.2191 -0.2805 -0.1842
25163W        W40294   2.594   2.548   5.510 -0.2037  0.2465 -0.1639
25164W        W40295   7.604  10.454   4.834 -0.0818  0.0528  0.0073
25165W        W40296  12.454  18.051   4.650 -0.0125 -0.1195 -0.3454
25166W        W40297   7.720  15.283   4.892  0.2152 -0.0326 -0.0557
25167W        W40298   9.337  11.161   1.271 -0.1419  0.1173  0.2260
25168W        W40299   6.162   3.391   2.149 -0.2871  0.1420  0.0205
25169W        W40300  11.009   3.764  11.302 -0.0858  0.0561 -0.1238
25170W        W40301   5.330   9.787  14.201 -0.1957 -0.3338 -0.2893
25171W        W40302   2.679  11.715   0.295  0.0231 -0.2069 -0.0988
25172W        W40303   0.781   9.634  15.484 -0.0553 -0.0725 -0.1965
25173W        W40304  15.414   0.727   2.308 -0.2855 -0.1696 -0.0309
25174W        W40305   9.265   4.775   4.745  0.3264  0.2941  0.1004
25175W        W40306  10.154   6.332  12.773 -0.0163 -0.0415  0.0178
25176W        W40307   7.612   6.888  14.041  0.0677  0.1662  0.2801
25177W        W40308  15.863   8.930   5.795 -0.0719  0.0482 -0.2885
25178W        W40309  14.892   3.376   2.890 -0.3088  0.2505  0.0564
25179W        W40310   3.053  17.251   0.131 -0.2109  0.1133  0.1219
25180W        W40311  11.024  12.295   0.351  0.2581  0.1411 -0.0284
25181W        W40312   6.628   1.086   4.747 -0.1313 -0.2609 -0.1075
25182W        W40313  10.387  14.803  11.632  0.0311 -0.0989 -0.0592
25183W        W40314   8.805  14.430   2.394 -0.0730  0.0603  0.1113
25184W        W40315   0.917   0.920   4.682  0.0824 -0.0943  0.2168
25185W        W40316  14.844  17.114   2.036  0.0031 -0.1573 -0.1163
25186W        W40317   2.688   8.876   5.185 -0.2770 -0.2809 -0.0738
25187W        W40318   1.106   1.541   5.279 -0.0473 -0.0263  0.0040
25188W        W40319   5.792  15.750  15.681  0.0174  0.0199 -0.1531
25189W        W40320   8.251   4.953  13.257  0.0755 -0.1274  0.1448
25190W        W40321   0.758   2.566   1.826  0.0609  0.3051 -0.0128
25191W        W40322   0.060  13.530  11.949 -0.0012 -0.1761  0.0097
25192W        W40323   8.435   7.238  14.062 -0.2695 -0.2351 -0.2077
25193W        W40324  17.043   3.106   3.045  0.1591 -0.3570  0.1947
25194W        W40325   6.694   0.913  12.104 -0.0355 -0.0720 -0.1345
25195W        W40326  14.120  14.636   3.437 -0.3495  0.1548 -0.1589
25196W        W40327   1.091  15.675   4.861 -0.1269  0.3702 -0.2638
25197W        W40328   3.358   6.182   2.498 -0.0354 -0.3992 -0.0197
25198W        W40329  14.680   3.363  12.285 -0.0190 -0.3562 -0.0896
25199W        W40330  15.692  15.521  14.551 -0.2581  0.0717 -0.0100
25200W        W40331   4.455   2.890  13.284 -0.2386 -0.0922  0.0889
25201W        W40332   5.737   4.971   3.850  0.1233  0.2761 -0.0453
25202W        W40333  10.071   6.471   5.850  0.2901  0.0552 -0.0355
25203W        W40334   1.936   1.795   4.020 -0.0993 -0.1746 -0.1208
25204W        W40335  14.332   9.980   5.190  0.1503 -0.2310 -0.0507
25205W        W40336   2.795  13.574   0.918  0.1004 -0.0114  0.0073
25206W        W40337   6.133   2.705   1.018  0.2267  0.1649 -0.0184
25207W        W40338  10.418   3.855  12.814 -0.1935  0.4940  0.1005
25208W        W40339  10.927   2.200   0.696  0.0185 -0.1152 -0.0083
25209W        W40340   0.534   8.454   4.948  0.3594 -0.0252  0.2372
25210W        W40341  16.373   8.727   0.411 -0.1575  0.1502  0.1667
25211W        W40342  18.175  12.040  11.653  0.1305 -0.0146 -0.4143
25212W        W40343   2.043   1.483   4.893  0.0278 -0.2473 -0.0645
25213W        W40344   9.235   4.678   2.818  0.2305 -0.0219  0.0636
25214W        W40345  11.844  13.878   4.271 -0.1321 -0.4579 -0.1495
25215W        W40346   3.920   5.438  13.470  0.1338 -0.0029 -0.0703
25216W        W40347  14.426   2.474  12.319  0.1980  0.0396 -0.2140
25217W        W40348   3.557   7.410  15.401  0.2318 -0.2881 -0.2128
25218W        W40349   9.134   9.095  14.813 -0.3378 -0.2382  0.2840
25219W        W40350   9.751  10.730  13.963  0.0492  0.2036  0.1800
25220W        W40351   8.215   4.415   0.371  0.2045 -0.1174 -0.0730
25221W        W40352   9.338   1.796  13.532  0.0019  0.1351  0.2204
25222W        W40353  16.885  13.274   4.824  0.1957  0.0480 -0.3610
25223W        W40354   0.555  18.130  15.667  0.0863 -0.0852 -0.2021
25224W        W40355   2.896   5.964   1.080  0.0905 -0.0451 -0.1395
25225W        W40356   9.495  10.687  15.906 -0.3053 -0.2556  0.0064
25226W        W40357  13.795  15.069  10.918 -0.2187 -0.0274 -0.1844
25227W        W40358   6.381   6.464  12.665 -0.3197 -0.0656 -0.0236
25228W        W40359   2.145   1.253   5.412 -0.2616  0.1322 -0.1857
25229W        W40360   0.398   2.144   2.262  0.0120 -0.3007 -0.1905
25230W        W40361   5.157   0.140  15.636 -0.1790  0.1418  0.1111
25231W        W40362  17.813  15.549   0.326  0.3964  0.0133  0.3077
25232W        W40363  15.199   3.479   5.421 -0.0333 -0.1562  0.0398
25233W        W40364   3.664  13.016  14.366  0.0009 -0.0528  0.0043
25234W        W40365  12.097   4.733  10.029 -0.3863  0.3643  0.0929
25235W        W40366  15.897  14.565   3.693  0.3782 -0.0956 -0.5101
25236W        W40367   4.556  18.407   1.899 -0.1353 -0.1349  0.2820
25237W        W40368  18.170  11.309   1.129 -0.1386  0.1418  0.1146
25238W        W40369  15.072   5.184   0.908  0.4575 -0.2962 -0.2101
25239W        W40370  13.626   0.911   3.775  0.1865 -0.2113 -0.1969
25240W        W40371   0.784  14.079  11.367 -0.0393  0.1534  0.1297
25241W        W40372   6.369  10.987  14.887  0.3391  0.0588  0.1025
25242W        W40373  14.395  15.351   3.986  0.5007  0.0998  0.0540
25243W        W40374  12.106   5.541   1.212 -0.2019 -0.4375  0.2279
25244W        W40375  16.879  17.047   4.167 -0.2502 -0.1747 -0.0044
25245W        W40376   0.721   0.942   0.858 -0.1391 -0.2762 -0.6323
25246W        W40377   6.000  12.985  15.163 -0.4357 -0.1510 -0.3740
25247W        W40378   6.766   3.440  11.304 -0.0390  0.0358 -0.1082
25248W        W40379   1.084   2.034  13.558 -0.1325 -0.0174 -0.0120
25249W        W40380   6.021  14.869   0.241  0.1082  0.0072  0.2895
25250W        W40381   0.486   0.487   3.207 -0.0071  0.0805  0.1507
25251W        W40382  15.579  15.137  11.366 -0.1779 -0.0598 -0.3161
25252W        W40383  10.775   1.626   9.715 -0.2690  0.1423  0.0800
25253W        W40384   5.829  14.968  11.058 -0.2114  0.2832 -0.0150
25254W        W40385   4.545  15.134   3.170  0.1119 -0.0790 -0.0821
25255W        W40386  16.293   8.657  13.578  0.0377  0.1504  0.0756
25256W        W40387   5.830   5.551   2.828  0.2738 -0.1323  0.2308
25257W        W40388  13.447   5.295   2.754 -0.0558 -0.1962  0.0009
25258W        W40389   4.254  16.092   3.271 -0.1076 -0.3821 -0.0375
25259W        W40390   6.376   4.323  11.047 -0.0531 -0.0758 -0.1201
25260W        W40391   4.142   7.521  14.143 -0.1884  0.0386 -0.3735
25261W        W40392  11.644   9.284   3.189 -0.1940  0.2693  0.0353
25262W        W40393   0.995  10.283  12.916  0.1954 -0.2574  0.0613
25263W        W40394   9.544   7.125   3.081 -0.0691  0.2566 -0.2264
25264W        W40395  15.269   5.335  13.054  0.2895  0.0418 -0.2356
25265W        W40396   5.218   5.600  11.570 -0.0204  0.1650  0.0888
25266W        W40397   7.366  15.053  10.979 -0.0268  0.1357 -0.0436
25267W        W40398   9.624  13.767  13.177 -0.0845 -0.1814  0.1172
25268W        W40399  14.226  13.784  14.239  0.0173  0.1320 -0.1915
25269W        W40400   0.627   1.924  10.929  0.1590 -0.0822 -0.3323
25270W        W40401   5.271  16.723   3.756 -0.1692 -0.3134  0.0836
25271W        W40402  12.587   7.701   4.709  0.0415  0.1466 -0.1353
25272W        W40403  10.833   4.697   0.351 -0.3434  0.0503  0.3575
25273W        W40404   2.065  10.220  10.503  0.0233  0.2285  0.1398
25274W        W40405   2.376  11.669  10.041 -0.1915 -0.1889  0.0325
25275W        W40406  12.080   5.196   3.377  0.2129 -0.0313  0.3047
25276W        W40407  17.353   9.187   2.224 -0.2783  0.3650 -0.4006
25277W        W40408   6.998  15.569  11.681 -0.0623 -0.0925 -0.0114
25278W        W40409   6.671  13.591  11.412 -0.0484  0.0844  0.0719
25279W        W40410  15.862  12.617  12.207  0.3253 -0.0013  0.5019
25280W        W40411  12.156  11.899  13.072 -0.0673 -0.2112 -0.4224
25281W        W40412   5.215  11.225  14.473  0.0080 -0.1505 -0.1899
25282W        W40413   3.453   2.208   1.905  0.0817 -0.6340  0.4395
25283W        W40414   0.061   0.552  13.843 -0.0419 -0.1601  0.0643
25284W        W40415  18.133   1.222   3.854  0.2383  0.3015  0.4792
25285W        W40416  15.152   8.990   3.395 -0.1970 -0.0239  0.0471
25286W        W40417   5.879   3.212   5.942 -0.0271  0.0688  0.2884
25287W        W40418  12.464  17.623  15.366  0.0887  0.0814 -0.2263
25288W        W40419  10.876   2.751  11.169  0.0832  0.0202  0.2193
25289W        W40420   5.691   5.967   5.263  0.1345 -0.2405 -0.0366
25290W        W40421   5.794  15.511  11.095  0.0116  0.0165 -0.1017
25291W        W40422  17.803  17.586  14.698 -0.0638  0.6086  0.0144
25292W        W40423  11.778   0.039   1.736 -0.1428 -0.2808  0.0138
25293W        W40424   7.801   5.294  15.754 -0.0915  0.2805 -0.0084
25294W        W40425   1.872   9.387  11.095 -0.6021 -0.0182 -0.1349
25295W        W40426  14.601   7.037   1.102 -0.1563  0.2790  0.0096
25296W        W40427   0.631  16.472   4.415 -0.1782 -0.2188 -0.0768
25297W        W40428  18.227   8.900   1.711 -0.1991  0.0597 -0.0133
25298W        W40429  10.979  15.964  12.653  0.3720 -0.1079  0.0807
25299W        W40430   4.447  15.883  10.883 -0.1393  0.0312  0.2197
25300W        W40431   7.571   5.917  11.934 -0.0658 -0.2432  0.0477
25301W        W40432   0.935  14.961   3.340 -0.1517 -0.3580  0.1244
25302W        W40433  14.913   0.011  14.911  0.0956 -0.0618  0.3801
25303W        W40434   2.007  16.890  14.131 -0.0415  0.1290 -0.0351
25304W        W40435  17.577  10.759   0.245 -0.0443  0.3047 -0.0638
25305W        W40436   1.932   6.456  12.293 -0.0085 -0.1617  0.1928
25306W        W40437   5.155   7.076   0.329 -0.1720 -0.0219  0.1807
25307W        W40438   0.405   9.298   2.516  0.1418  0.2725  0.2047
25308W        W40439   3.941  11.390  14.221  0.1028 -0.0246  0.0730
25309W        W40440   0.579  15.476  15.664 -0.0174 -0.0013  0.1653
25310W        W40441   7.752   8.479  13.780 -0.1596 -0.0142 -0.2388
25311W        W40442  11.639   4.069  15.151  0.3572 -0.1521  0.1354
25312W        W40443   1.519   2.141  10.930  0.0520  0.3076  0.3261
25313W        W40444  13.014   9.171   0.745 -0.1078 -0.0406 -0.1750
25314W        W40445  16.034  17.557  15.078 -0.5064  0.0104 -0.0014
25315W        W40446  18.543   7.749  10.887 -0.1486 -0.1895 -0.1124
25316W        W40447  13.838   2.419   2.831  0.1172  0.0222  0.1124
25317W        W40448  12.405   1.064   3.975 -0.2576 -0.1910  0.0209
25318W        W40449  13.529   0.852  15.139 -0.1127  0.0593 -0.0146
25319W        W40450   8.486  13.448   5.514  0.2200  0.1125  0.0596
25320W        W40451  18.347   0.478   3.071 -0.0277  0.0524  0.0824
25321W        W40452  16.769   9.683  13.041 -0.2668  0.0114 -0.1846
25322W        W40453  15.498  16.667  11.566  0.2312 -0.2466 -0.0380
25323W        W40454  15.364   5.373  11.170 -0.0243  0.2315  0.0202
25324W        W40455  16.394   5.252   1.387  0.2076 -0.3399  0.1025
25325W        W40456   8.119  13.433   4.204  0.2864  0.0579 -0.1337
25326W        W40457  16.833  12.037   2.136  0.1280 -0.1675 -0.2424
25327W        W40458   9.443   3.383   3.101 -0.2440  0.0711 -0.2788
25328W        W40459   8.110   3.508   1.677  0.2632  0.0565  0.1105
25329W        W40460  15.504  13.714  14.947 -0.0821  0.0208 -0.1422
25330W        W40461   8.679   8.523  13.826  0.0170 -0.0444  0.0736
25331W        W40462  11.516  10.419   0.918  0.5155  0.2272  0.1505
25332W        W40463   8.907   8.531   1.373 -0.2307  0.2721 -0.3239
25333W        W40464   8.962  12.679  15.824 -0.1841 -0.1786  0.0316
25334W        W40465  12.004  10.578   3.866 -0.1251  0.4626 -0.1892
25335W        W40466  14.748  11.731  12.966  0.0790  0.2537  0.2533
25336W        W40467  14.947   3.615  11.420  0.0591  0.0421  0.0470
25337W        W40468  15.531   7.465  14.536  0.4190 -0.0822 -0.0401
25338W        W40469  14.332  11.107  11.695 -0.2439  0.0861 -0.1892
25339W        W40470  12.831   5.538   5.906 -0.0918 -0.0425 -0.1334
25340W        W40471  16.517  10.727   3.913  0.1467 -0.0538 -0.0011
25341W        W40472   5.370  17.729  10.875  0.0862 -0.2518  0.1641
25342W        W40473   9.186  15.831  10.910  0.2872 -0.1686 -0.0768
25343W        W40474  15.936   3.855  13.905  0.1876 -0.0587 -0.0234
25344W        W40475   3.994  15.774  12.752  0.1124  0.0290 -0.4395
25345W        W40476   9.079   2.258  11.168 -0.1708  0.1548 -0.0610
25346W        W40477   7.582   2.116  14.110  0.3292  0.2240 -0.2376
25347W        W40478  17.668  13.378  11.793  0.0660 -0.2155 -0.0586
25348W        W40479   1.902   0.334  14.106  0.2005 -0.0927 -0.2040
25349W        W40480   6.986  17.576  12.763 -0.2451 -0.0352  0.1180
25350W        W40481   0.404   3.779  15.382 -0.1837 -0.0911 -0.1567
25351W        W40482  11.059  11.391  15.693  0.0227 -0.0855 -0.2128
25352W        W40483  18.426  14.141   2.909  0.1732  0.1400 -0.0947
25353W        W40484   0.938  16.267  13.721 -0.0715 -0.1902  0.1159
25354W        W40485   3.286  18.569  15.307  0.0364 -0.0291  0.3835
25355W        W40486  12.829  18.231   5.589 -0.4547  0.1591  0.1186
25356W        W40487  10.238   6.237   3.175  0.2458  0.2663  0.3289
25357W        W40488  18.249   7.476   3.318  0.1646 -0.0545 -0.0785
25358W        W40489   5.449  13.435  12.482 -0.2212  0.1059  0.0922
25359W        W40490  18.293  15.829  13.188 -0.1250 -0.1428 -0.2859
25360W        W40491   4.600  16.837  15.405 -0.0409 -0.2621  0.1542
25361W        W40492   8.574  14.475  11.129  0.4251 -0.1896 -0.3008
25362W        W40493  13.365  13.497   4.862  0.7226 -0.1855 -0.2667
25363W        W40494  15.118   6.629  11.767  0.0208  0.1103  0.0282
25364W        W40495  10.630  12.195   3.610  0.1743  0.0259  0.2815
25365W        W40496  12.857  12.468  13.433  0.5614 -0.1121  0.1312
25366W        W40497   5.158  13.898   1.928 -0.2669 -0.0295  0.0452
25367W        W40498   3.169   9.983  13.804  0.0057  0.1219 -0.0521
25368W        W40499  10.803   0.223   4.151 -0.2337  0.2610  0.0292
25369W        W40500  15.489  11.124  14.353  0.0143  0.1607 -0.2337
25370W        W40501  14.922   8.470   3.516 -0.1667  0.2126  0.1872
25371W        W40502   1.281  12.448   1.758 -0.1789  0.0934  0.1714
25372W        W40503   1.635  17.319  14.281  0.1302  0.1077  0.0986
25373W        W40504   6.543  18.379   2.231 -0.5031  0.0329  0.1622
25374W        W40505   5.051  10.415   5.958  0.1901 -0.2141 -0.0732
25375W        W40506  16.747  15.328   4.807 -0.1061 -0.3509 -0.1212
25376W        W40507   4.162  15.006   0.770 -0.1686 -0.1382 -0.0261
25377W        W40508  11.787  15.212  15.494  0.0572  0.0862 -0.2287
25378W        W40509   4.165   3.486   0.059  0.0265  0.1464  0.3346
25379W        W40510  10.833  12.444  13.216  0.0626  0.0314  0.0578
25380W        W40511  17.856  10.211   1.368  0.0895 -0.0768 -0.0386
25381W        W40512   3.094   7.632   2.764  0.2240  0.1646 -0.2380
25382W        W40513   2.096  18.397   4.978  0.2759  0.4106 -0.0283
25383W        W40514  10.677   3.415  11.577  0.0770 -0.2417 -0.3147
25384W        W40515   3.894  12.543  14.345  0.2307  0.1518  0.0979
25385W        W40516  13.819  13.522  13.804 -0.0205 -0.3353  0.1648
25386W        W40517   2.205   6.421   3.278 -0.0289 -0.0359  0.0268
25387W        W40518  15.235   8.220   2.584  0.1708 -0.1563 -0.0606
25388W        W40519   7.321  15.868  13.405  0.2029  0.0679 -0.0167
25389W        W40520  14.940  10.984  15.943 -0.3664 -0.2254  0.1663
25390W        W40521  10.531  16.079   9.972 -0.1438  0.0088  0.0757
25391W        W40522   0.853  14.750  11.525 -0.1904 -0.1164  0.0973
25392W        W40523   0.557   9.900  13.596  0.0779  0.1598  0.1761
25393W        W40524   1.706   7.474  10.728 -0.1537 -0.0213  0.2112
25394W        W40525   9.450  10.026  10.930 -0.1157 -0.2097  0.0513
25395W        W40526  12.245   7.379   0.727 -0.0152 -0.2779 -0.0665
25396W        W40527   5.204   6.659  15.636  0.3717 -0.0313 -0.0370
25397W        W40528  11.478  16.961   2.408 -0.0654  0.1572  0.3466
25398W        W40529  12.979  17.676   1.249  0.0579 -0.0263  0.1671
25399W        W40530   3.566   3.655  12.055  0.2632  0.1090 -0.0418
25400W        W40531   1.390   6.852   1.407  0.0091  0.0198 -0.3804
25401W        W40532   0.205   8.106   1.769  0.0831  0.0245 -0.0599
25402W        W40533  15.647  16.627   5.472 -0.0705 -0.0281 -0.0943
25403W        W40534  17.522  11.521   4.914  0.0559  0.0307 -0.1326
25404W        W40535  15.025   4.256   1.076  0.0443  0.2469 -0.0671
25405W        W40536  16.129   8.258  14.871  0.0243  0.0152  0.3605
25406W        W40537  14.704  13.388   4.221 -0.4625 -0.2003  0.2346
25407W        W40538   1.195   9.708   2.492 -0.1267 -0.2829  0.1566
25408W        W40539   3.204   7.756   0.890 -0.1512  0.0203  0.1156
25409W        W40540   9.040   4.322   3.188  0.0284 -0.0149  0.1518
25410W        W40541   3.758  12.856   3.472  0.0270  0.6409  0.2886
25411W        W40542   9.131   9.048   1.398  0.1645 -0.0828  0.0645
25412W        W40543  15.262  10.914  11.903 -0.0699  0.1512  0.0678
25413W        W40544   1.605  17.052   9.495 -0.0460 -0.0939  0.1369
25414W        W40545   9.562   9.019   1.755  0.1779 -0.1945  0.3203
25415W        W40546   7.115  18.248   2.903  0.1362  0.1762 -0.1580
25416W        W40547   5.636  10.019   3.130 -0.0286  0.1622 -0.1148
25417W        W40548   1.709  17.740   0.618 -0.4079 -0.0649 -0.0014
25418W        W40549   6.687  15.506  15.404  0.1889  0.2992  0.3453
25419W        W40550   2.236  12.773  12.507  0.1475 -0.1916 -0.2503
25420W        W40551  11.220  10.945   2.824 -0.2307 -0.2126  0.1008
25421W        W40552  12.794  10.168   3.893  0.4120  0.1625 -0.0199
25422W        W40553   9.208   4.339  10.898 -0.0481  0.0538  0.0589
25423W        W40554  18.174  16.766   5.601  0.2033 -0.0922 -0.0602
25424W        W40555   6.821   6.792  12.004  0.1383 -0.2277  0.0387
25425W        W40556  16.076   6.606  15.309  0.3228  0.0267  0.0678
25426W        W40557   1.860   9.322   6.278  0.0799 -0.0640  0.2473
25427W        W40558  16.943  11.802  10.973  0.1074 -0.3281  0.0081
25428W        W40559   9.330  14.094  12.143 -0.3606  0.0064  0.2499
25429W        W40560  17.798   3.222   1.528 -0.1140  0.0469 -0.2199
25430W        W40561  15.670  15.992   5.268  0.4042 -0.1826 -0.2785
25431W        W40562  12.641   3.827  11.649 -0.2670 -0.0231  0.0672
25432W        W40563   9.652   1.363  15.427  0.0603  0.1913  0.0125
25433W        W40564   8.943  16.431   0.306 -0.2610  0.2353  0.1141
25434W        W40565   6.304   7.775  12.279 -0.1810  0.0531  0.5958
25435W        W40566   5.474  13.458  11.495  0.0539 -0.0304 -0.1410
25436W        W40567  17.830   1.431   2.244  0.2162  0.0489  0.0421
25437W        W40568   1.028   9.328  11.837  0.0284 -0.1391 -0.2612
25438W        W40569   0.389  11.266   1.859 -0.3029  0.2452  0.0568
25439W        W40570  10.967  15.876   2.202 -0.1829 -0.3170  0.0870
25440W        W40571   5.406   8.326   3.387 -0.0050 -0.3629  0.0264
25441W        W40572  15.768  13.217  12.917 -0.0684 -0.1306 -0.3892
25442W        W40573   9.633  17.139   0.555  0.3024 -0.3024  0.3507
25443W        W40574  15.951   5.758  13.978  0.1856  0.3063  0.3115
25444W        W40575   8.861   2.895  12.956 -0.0578  0.3456  0.1637
25445W        W40576   2.923   8.519   4.894 -0.0842  0.1003 -0.0176
25446W        W40577   1.913   7.113   5.336  0.1559  0.1887 -0.0816
25447W        W40578   4.291   6.080   4.601  0.1193  0.0092 -0.0911
25448W        W40579  16.299   3.651  11.117 -0.0174  0.0287  0.0237
25449W        W40580   5.230   3.536  13.368 -0.2201 -0.2387 -0.1133
25450W        W40581   4.380   1.021   3.018 -0.0244  0.1015  0.0377
25451W        W40582   9.141  11.421  11.242  0.1907  0.0491 -0.1000
25452W        W40583  14.060   6.592  13.669  0.0965 -0.0379 -0.0427
25453W        W40584   1.897   3.276   3.660  0.1026  0.3468  0.3224
25454W        W40585   9.049   7.818  11.517  0.3136  0.4152  0.1008
25455W        W40586  16.411  14.932  15.357 -0.0413 -0.1627 -0.1609
25456W        W40587  13.537   9.048   2.021 -0.2036  0.0530 -0.0712
25457W        W40588   0.525   5.105   4.035 -0.0210  0.0213 -0.1680
25458W        W40589   4.185  17.185  12.506  0.0669 -0.0484  0.1802
25459W        W40590   5.368  11.728   1.489  0.1153  0.0224  0.0751
25460W        W40591   7.835  18.197   4.790  0.1576  0.0483 -0.0905
25461W        W40592  14.902  14.137  15.459 -0.2666 -0.2518 -0.1123
25462W        W40593  12.249  11.613   2.551  0.1677  0.0675  0.2002
25463W        W40594  13.957   9.120   1.765 -0.1732  0.1473  0.0674
25464W        W40595   2.700   5.535  15.165  0.2384 -0.0069  0.0981
25465W        W40596   7.133  13.094  12.234 -0.0578  0.0843  0.0656
25466W        W40597   6.542   4.172   2.007 -0.0101  0.0757  0.1370
25467W        W40598   7.011   6.056   3.285  0.1295  0.1444 -0.3727
25468W        W40599   5.538   7.943  12.859 -0.0975  0.2429  0.1903
25469W        W40600   4.006   8.084  15.478  0.2108  0.1121  0.3378
25470W        W40601   3.466  15.117  13.454 -0.0304  0.3313  0.1157
25471W        W40602  15.445  11.834   2.702  0.1009  0.2653 -0.1366
25472W        W40603  12.350   0.480  12.443 -0.2123 -0.2118 -0.0575
25473W        W40604   3.368  15.919   4.272 -0.1024 -0.0599 -0.1081
25474W        W40605  13.805  14.580   0.108  0.2684  0.3235  0.0835
25475W        W40606   2.787   8.288   1.976 -0.2613  0.0735 -0.0568
25476W        W40607  17.383  13.579  15.304  0.0570  0.1506  0.0115
25477W        W40608  14.980   5.580  12.675  0.2252  0.2976  0.0409
25478W        W40609   1.064   1.444   0.820  0.1803 -0.2510  0.1974
25479W        W40610  10.396  16.150  14.795  0.2434  0.1573  0.2592
25480W        W40611   1.522   0.637  14.934 -0.3185 -0.1409  0.2480
25481W        W40612   8.790   9.831   4.236 -0.3549 -0.0980  0.1173
25482W        W40613   1.702   0.714  10.990 -0.0461  0.2938 -0.1406
25483W        W40614   8.266   1.739   1.468  0.0685 -0.2903  0.1210
25484W        W40615  12.820   1.114   3.173  0.1667  0.0453  0.5995
25485W        W40616  10.245   6.198   0.099 -0.1335  0.0750 -0.1680
25486W        W40617  14.546  14.648   1.384 -0.1305  0.0163 -0.0571
25487W        W40618  10.360   9.201   0.667  0.1442 -0.0009  0.2934
25488W        W40619  13.804   2.243   4.756  0.1253  0.1716 -0.1287
25489W        W40620   2.910  10.606   3.292  0.2647  0.1767 -0.2537
25490W        W40621   9.665  14.085  14.024 -0.3877  0.0763  0.3098
25491W        W40622  10.186   4.382  15.447 -0.1306 -0.0219 -0.1449
25492W        W40623  18.403   6.067   1.527 -0.0875 -0.1261  0.1729
25493W        W40624   7.793  17.066   2.143  0.2672 -0.0228 -0.1718
25494W        W40625  15.498   0.038  15.904 -0.0002  0.1482  0.5918
25495W        W40626   5.433  15.622  11.450  0.1491  0.1607  0.0416
25496W        W40627  11.952   5.238   2.021  0.1589  0.0219 -0.2891
25497W        W40628  10.580   7.251  13.706 -0.0709  0.0470 -0.0725
25498W        W40629   4.510   2.002  13.746  0.1286  0.3737 -0.1050
25499W        W40630   2.970  13.686   3.755 -0.0555 -0.3288 -0.1139
25500W        W40631   6.085  18.002  13.196 -0.2086 -0.2070  0.1113
25501W        W40632  14.717  16.052   2.981 -0.0390  0.0849  0.0582
25502W        W40633  11.115   8.831   1.845 -0.3776  0.0577 -0.0615
25503W        W40634   5.867  17.038   2.901  0.2557 -0.0455  0.2237
25504W        W40635   8.514  16.130  10.994 -0.3074 -0.3356  0.0076
25505W        W40636   1.444   1.431  14.887  0.0063  0.1035 -0.2308
25506W        W40637   3.524  15.644  14.523  0.0634 -0.1709 -0.1342
25507W        W40638  16.318  16.202  11.969  0.2844  0.1615 -0.0153
25508W        W40639  10.740   5.558   0.487  0.3464 -0.0624 -0.0881
25509W        W40640  12.744  12.659   2.244  0.0165 -0.4491  0.3419
25510W        W40641   0.276   1.869   0.188  0.1119 -0.3721  0.0158
25511W        W40642  17.323  10.993   2.538 -0.0388  0.1622  0.0711
25512W        W40643  11.905  14.172  14.058 -0.1158  0.0882 -0.3523
25513W        W40644   8.094   6.186   3.602  0.3512 -0.1941  0.1631
25514W        W40645   1.493  18.388  13.152 -0.0907  0.3360  0.0666
25515W        W40646   2.000  11.636   4.862  0.1462 -0.0855  0.2308
25516W        W40647  18.139  12.019   1.304  0.3698  0.0599  0.1876
25517W        W40648  10.968   7.192   3.381 -0.0091 -0.1526  0.1221
25518W        W40649   4.288  13.236   0.068  0.0340  0.0249  0.0503
25519W        W40650  13.013  16.371  10.697  0.0213 -0.1160 -0.0069
25520W        W40651   3.486  12.990   0.783  0.0232  0.0318 -0.2165
25521W        W40652   8.667  18.355   0.265 -0.1751 -0.0988  0.2072
25522W        W40653  11.127  14.203   4.684  0.3409  0.1189 -0.1828
25523W        W40654   5.222  12.572  11.903  0.2094 -0.0202  0.0996
25524W        W40655  13.622  11.724  13.856 -0.1504 -0.0421  0.4600
25525W        W40656  15.254   8.055  11.855  0.0736  0.1047 -0.0924
25526W        W40657  10.413  10.255  13.610  0.0923  0.1503 -0.2818
25527W        W40658   8.554  12.651   0.902 -0.3368 -0.3056  0.1173
25528W        W40659  14.606  12.629   5.661 -0.0280  0.0907  0.1384
25529W        W40660   5.168   0.555  15.040 -0.2187 -0.3152 -0.0534
25530W        W40661   2.806  13.021  11.431  0.0150  0.0897  0.3408
25531W        W40662   7.638   9.124  10.468  0.2628 -0.1489 -0.3954
25532W        W40663   0.317  18.468   9.528  0.0450  0.0510  0.0010
25533W        W40664   5.648   1.841   2.420 -0.1124 -0.1517  0.2354
25534W        W40665   7.489   5.409  15.354 -0.0600  0.2951  0.0161
25535W        W40666   6.564  14.953  14.667  0.0781 -0.0472 -0.0920
25536W        W40667  18.119   0.047   5.714  0.2162  0.1191 -0.0080
25537W        W40668  15.249  15.176   3.775  0.3869  0.1471  0.0539
25538W        W40669  12.775  14.071   4.451 -0.0046 -0.3551  0.2706
25539W        W40670   5.170  14.914   1.317 -0.2001 -0.0325 -0.2873
25540W        W40671  18.306   8.075  14.264 -0.0521  0.2545  0.0783
25541W        W40672   4.148  11.863   3.659 -0.0384 -0.0051  0.0524
25542W        W40673   3.476   4.222   3.403  0.1197  0.1844 -0.2985
25543W        W40674   5.991  18.125  14.063 -0.5097  0.2090  0.2538
25544W        W40675   1.618  15.771   4.015 -0.1660  0.1949 -0.1478
25545W        W40676  14.378  17.589   0.692 -0.2492 -0.0345  0.2292
25546W        W40677   7.669   6.515   3.655  0.0492  0.0212  0.2592
25547W        W40678   4.474  17.211  11.145 -0.0640 -0.0005  0.0602
25548W        W40679  12.288  11.177  10.964  0.0983  0.0174  0.1606
25549W        W40680   2.017   4.790  14.220  0.0168  0.0070  0.3273
25550W        W40681   9.340   5.115   0.522 -0.0555  0.0945  0.0853
25551W        W40682  17.534   7.294  15.800 -0.0275  0.1674 -0.0963
25552W        W40683  18.140  13.108   4.450  0.0868  0.0887  0.0382
25553W        W40684  18.421   2.120   0.982  0.0134 -0.0808 -0.1874
25554W        W40685  14.027  11.914  14.124  0.1772  0.0402 -0.0011
25555W        W40686  11.495   2.720  14.931 -0.4186 -0.1964  0.2356
25556W        W40687  14.445  15.510  11.150 -0.0162  0.0177 -0.0009
25557W        W40688   2.063   2.898  11.680 -0.2439 -0.1064  0.2637
25558W        W40689   2.818  14.287   3.574 -0.1381  0.1448 -0.0725
25559W        W40690  14.275   0.211   0.417  0.2676  0.2198 -0.2441
25560W        W40691  16.009  17.772   2.918  0.1840  0.2801 -0.2899
25561W        W40692  10.055  12.163   2.091 -0.1147  0.1087  0.1882
25562W        W40693   5.490  15.630   4.459  0.2511  0.1838 -0.1345
25563W        W40694  10.135   6.485  15.477  0.3990  0.1362 -0.0386
25564W        W40695   3.841   3.370  14.877 -0.0301  0.0491 -0.2107
25565W        W40696   4.097  16.153  14.161  0.0298 -0.0532  0.2230
25566W        W40697  14.976  13.313  15.274 -0.1028 -0.1886  0.4669
25567W        W40698   1.299   1.740  15.277  0.0325 -0.1745 -0.1448
25568W        W40699  10.908   3.984  15.815 -0.0250  0.0393  0.0762
25569W        W40700  17.245  12.751  12.375  0.1091 -0.2737  0.2925
25570W        W40701   8.701   5.847   2.789  0.0293 -0.0179  0.2390
25571W        W40702   6.145  12.721  11.552 -0.2574 -0.2449  0.0508
25572W        W40703   7.169   1.975  15.432 -0.1669 -0.2294  0.1592
25573W        W40704   1.124   9.872   5.148 -0.2918 -0.2028  0.0956
25574W        W40705  10.856  17.415   3.719  0.0978 -0.1107 -0.0294
25575W        W40706   6.797  11.940  10.255 -0.0716 -0.1841  0.0850
25576W        W40707   8.878   5.755  13.569 -0.3035 -0.0813  0.0968
25577W        W40708   6.601  15.907   1.457 -0.0976  0.2842 -0.0056
25578W        W40709   5.393  15.087   4.282  0.0832 -0.2139  0.3580
25579W        W40710  11.755  13.853  14.671 -0.2182  0.1264  0.0933
25580W        W40711   4.140  13.563  11.425  0.2469 -0.2495 -0.0103
25581W        W40712  16.774  15.001   3.961 -0.5194 -0.1043  0.2626
25582W        W40713   3.456  12.441   0.514 -0.4281  0.3481  0.2469
25583W        W40714  13.693  13.084   4.152  0.0191  0.1846 -0.1208
25584W        W40715  10.080  15.437   4.509 -0.2033 -0.1315 -0.2155
25585W        W40716  14.658  11.928   1.141 -0.1841  0.1725  0.0312
25586W        W40717  16.165  15.987   6.035 -0.0247  0.0528 -0.2501
25587W        W40718   4.903   3.002   4.712 -0.4960 -0.2183  0.4047
25588W        W40719  10.862   1.242  15.568 -0.3150 -0.0777  0.0534
25589W        W40720  17.157   4.250   1.855 -0.1661  0.4662 -0.2013
25590W        W40721  12.477   1.030  12.360 -0.0265  0.0802 -0.0149
25591W        W40722  12.913   7.300  14.689 -0.2118 -0.2060  0.0199
25592W        W40723  17.379  12.921  11.876  0.1224 -0.0771 -0.3279
25593W        W40724  17.403   6.694   4.286 -0.0166  0.0422  0.0730
25594W        W40725  14.209  10.149  13.018 -0.0945  0.1025 -0.0278
25595W        W40726   7.960   3.848  12.564 -0.1900 -0.3326 -0.1863
25596W        W40727  13.511   0.954   2.466  0.0218 -0.0141  0.0791
25597W        W40728   5.612   3.341   2.546 -0.1748  0.1352 -0.3738
25598W        W40729  16.653   5.198   3.165  0.0649 -0.3871  0.1191
25599W        W40730  12.674  11.816  10.474 -0.0931  0.0329 -0.4780
25600W        W40731   9.471   8.262  14.276 -0.0727 -0.1395 -0.0364
25601W        W40732  13.842   7.502   0.449  0.0847  0.0635  0.0294
25602W        W40733  16.118  11.393   4.588 -0.1008  0.1270  0.2455
25603W        W40734  13.907  13.763   9.974 -0.1631 -0.1556  0.3483
25604W        W40735  16.357   3.103   0.988 -0.1701  0.0478 -0.4072
25605W        W40736   5.425  13.634  11.940 -0.0339 -0.1196  0.2007
25606W        W40737   5.470  16.361  14.002  0.1592  0.1486 -0.2387
25607W        W40738   2.896   8.219  14.245  0.0712  0.0336  0.1837
25608W        W40739   2.512   3.046   5.520 -0.1493  0.2107  0.3026
25609W        W40740   0.979   9.011  11.469  0.0800  0.0811  0.0028
25610W        W40741   8.225  10.410   4.059 -0.3347 -0.1425 -0.1127
25611W        W40742  14.668  12.523  12.765 -0.0141  0.5401  0.0119
25612W        W40743  14.676  12.366   0.925  0.2964  0.1395  0.1342
25613W        W40744   0.455   4.608   2.964  0.3479  0.1723 -0.1313
25614W        W40745  14.700  15.404   5.135 -0.3009  0.1274 -0.1576
25615W        W40746  15.292   7.052  13.777 -0.0383 -0.0766  0.1207
25616W        W40747   9.151   7.521  13.450 -0.0328 -0.0853  0.0703
25617W        W40748   1.544   6.663   3.692 -0.0149  0.0743  0.2778
25618W        W40749   8.600  14.847  14.065 -0.1819 -0.1307 -0.2269
25619W        W40750   9.793   1.297  13.036 -0.0923 -0.0303  0.2487
25620W        W40751   8.017   5.375  11.417 -0.0473 -0.0518  0.1965
25621W        W40752   0.529  10.120  12.805  0.1504 -0.0764 -0.0730
25622W        W40753  17.450   7.906   3.817  0.2652 -0.1736  0.2010
25623W        W40754   6.900  14.208   5.412 -0.0400  0.0345 -0.1020
25624W        W40755  10.661   8.131   0.023  0.2400 -0.4220 -0.1356
25625W        W40756   7.471   7.435  13.845  0.1976 -0.1778  0.0767
25626W        W40757  11.381   7.509   1.202  0.2104  0.1588 -0.3018
25627W        W40758   9.340   2.921  14.455  0.4217 -0.1699 -0.4332
25628W        W40759   4.450   8.291  15.301 -0.1045 -0.0503  0.1538
25629W        W40760   5.469   7.858   2.470  0.1973  0.1488 -0.3053
25630W        W40761  13.455   1.752   5.494  0.2049  0.0941  0.0489
25631W        W40762  12.289  17.982  12.326 -0.1007 -0.0515 -0.0743
25632W        W40763  13.715   6.808   2.771 -0.0337  0.2239 -0.1366
25633W        W40764   3.706   0.594  12.838  0.1600 -0.1220  0.1173
25634W        W40765   8.508  16.711   1.339  0.4779  0.0385 -0.3765
25635W        W40766  10.142   6.751   3.481  0.1128 -0.4161 -0.0343
25636W        W40767   8.771   5.666   4.870  0.2771 -0.1479  0.0186
25637W        W40768  16.240  15.951   2.579  0.1327 -0.1220 -0.0613
25638W        W40769   3.993   3.010  13.673  0.1765  0.0308 -0.0087
25639W        W40770  15.714  11.925  11.344 -0.1313 -0.2348  0.1143
25640W        W40771  15.749   8.484  13.390  0.0382 -0.5555  0.0310
25641W        W40772   8.256  10.319   5.737  0.1126  0.2411  0.3281
25642W        W40773  12.041   0.430  14.812 -0.0135 -0.1185  0.0970
25643W        W40774   3.454  17.747   4.852  0.1919  0.1129 -0.2201
25644W        W40775  13.092   3.519  13.593 -0.1345  0.2385  0.3103
25645W        W40776  10.418   1.138   3.753  0.0132 -0.4151 -0.0670
25646W        W40777  10.880   5.104   0.697  0.0852 -0.2504  0.0427
25647W        W40778  16.685  11.510  11.671  0.0503  0.2965  0.0230
25648W        W40779   1.948  15.090   2.726  0.0241  0.0949 -0.5477
25649W        W40780   8.336  12.655   4.823 -0.0580 -0.3332 -0.1484
25650W        W40781  12.071  10.134   6.123 -0.1860 -0.1576  0.3972
25651W        W40782  17.729  11.671  13.215 -0.4042 -0.1453 -0.0851
25652W        W40783  10.635   2.132   1.221 -0.1168 -0.2558 -0.2351
25653W        W40784   9.252  10.197  12.485  0.1372  0.1242 -0.0630
25654W        W40785  12.091   4.898   4.868 -0.2253  0.1075  0.1509
25655W        W40786   6.084  10.811   2.099  0.4185  0.0371 -0.3677
25656W        W40787  18.452   3.101  14.792  0.3331  0.1243 -0.1660
25657W        W40788   2.203   6.165   0.004  0.0509 -0.0524  0.2697
25658W        W40789   8.673   4.918  12.892  0.0064  0.0936 -0.0193
25659W        W40790   0.469   2.288  15.789  0.0465 -0.3191 -0.0441
25660W        W40791   5.018  15.537   4.327 -0.0504  0.0648  0.1282
25661W        W40792   7.886  11.480  12.833 -0.1253  0.3724  0.1443
25662W        W40793  12.136  16.449  12.826 -0.0585  0.2217  0.1581
25663W        W40794   4.857  13.012  11.918  0.0569  0.0030 -0.3630
25664W        W40795   0.087  13.921  10.778  0.0167  0.0895 -0.0812
25665W        W40796   2.490   7.682  12.687  0.0966 -0.0112  0.0388
25666W        W40797  10.049  11.918   5.865 -0.1542 -0.1388  0.0914
25667W        W40798  15.300   1.533   6.725  0.1843  0.2351 -0.0394
25668W        W40799   7.816   7.624   1.245  0.1208  0.2163 -0.3101
25669W        W40800  17.305  14.822  15.364  0.2899 -0.0210 -0.0233
25670W        W40801   1.977  12.835   5.056 -0.0243  0.1118  0.1266
25671W        W40802   1.736   9.872   4.910 -0.1840 -0.1812 -0.2315
25672W        W40803  16.366  18.544  15.167 -0.1082 -0.0828  0.1668
25673W        W40804  15.366   9.920   2.242  0.3384 -0.1805  0.1683
25674W        W40805   1.648   5.770  13.808 -0.1548 -0.1814 -0.3221
25675W        W40806   9.402  12.709  12.838 -0.2766  0.0581  0.0460
25676W        W40807   2.639  18.067  11.961 -0.0413  0.0890  0.0139
25677W        W40808   1.113   0.501   0.769 -0.0782 -0.0693 -0.2334
25678W        W40809  10.534  15.818  11.330 -0.0105  0.0011  0.4288
25679W        W40810  13.036   9.762   2.962 -0.1634  0.2482  0.2872
25680W        W40811   6.023   0.003  12.996 -0.2095  0.1688 -0.1623
25681W        W40812   2.869   9.357  12.025  0.2316 -0.1136  0.3962
25682W        W40813   8.988   6.883   2.946  0.2383 -0.0674 -0.2241
25683W        W40814  10.829   4.387  11.137 -0.2388  0.0553 -0.0582
25684W        W40815   3.245   9.392  12.914  0.2105 -0.0062  0.1473
25685W        W40816   6.291  13.232  12.968 -0.2957 -0.2342  0.1676
25686W        W40817  11.065  15.850   0.065  0.0847  0.1668  0.3222
25687W        W40818   9.841   8.204   4.240 -0.1078 -0.0297  0.1118
25688W        W40819   8.685  18.278   3.827 -0.0764  0.0761 -0.0263
25689W        W40820   9.593   0.932  13.451  0.3280  0.0780 -0.2088
25690W        W40821   0.075  10.579   4.838 -0.0746  0.3761  0.3038
25691W        W40822   8.434  16.182  12.565 -0.0979 -0.1336 -0.0462
25692W        W40823   5.793   1.431  13.600  0.0482  0.0461  0.0084
25693W        W40824   1.352   8.343   6.262  0.2021  0.1485  0.0201
25694W        W40825   8.818  11.229  11.671  0.3258  0.0929  0.2387
25695W        W40826   0.113   7.497  12.995  0.0900 -0.3519 -0.1479
25696W        W40827  12.865   1.480  12.347  0.1773 -0.1645  0.2559
25697W        W40828   3.798   8.351  11.828 -0.0479  0.1967  0.1574
25698W        W40829  13.722  17.916  12.411  0.4852  0.3487 -0.0357
25699W        W40830   9.212  14.910  15.353 -0.3545  0.4560  0.1565
25700W        W40831   8.319  15.593   1.989  0.2443 -0.1503 -0.4416
25701W        W40832  17.045  18.520  15.140 -0.0309  0.1044 -0.1464
25702W        W40833   9.757   8.348  14.723  0.2127 -0.1763  0.3650
25703W        W40834  16.022  17.830   1.648 -0.2055 -0.2684  0.1427
25704W        W40835   5.431  15.229   0.936  0.1699 -0.1210 -0.0648
25705W        W40836  12.201   7.170   2.133  0.1962  0.0045  0.0980
25706W        W40837  14.844   7.134  12.525 -0.2769 -0.0903 -0.0971
25707W        W40838   7.847   8.653   0.214  0.1366 -0.1378 -0.0776
25708W        W40839  16.112   1.278   6.166  0.1138  0.1786 -0.3007
25709W        W40840   6.465   0.752  15.747  0.1825  0.4167 -0.2308
25710W        W40841   8.599  10.809  13.190 -0.1851 -0.1445 -0.1496
25711W        W40842  10.554  10.540   0.824 -0.0064  0.1565  0.0336
25712W        W40843  18.275  18.403   2.291  0.0169  0.1032 -0.1959
25713W        W40844   1.651  11.261   1.435 -0.1416  0.1126  0.3729
25714W        W40845   9.615  18.571  12.870 -0.0020 -0.1211  0.0228
25715W        W40846  15.687  12.941  14.563 -0.2721 -0.2359 -0.2219
25716W        W40847  11.633  13.534  12.049 -0.2415 -0.1184  0.1717
25717W        W40848  10.680   5.121  12.676  0.2855  0.0493  0.0931
25718W        W40849   2.249   6.085   5.000 -0.1929  0.1036  0.0452
25719W        W40850   9.600   9.624   5.863  0.2023 -0.4755  0.0376
25720W        W40851   2.494   8.010  14.639 -0.1541  0.2614  0.0361
25721W        W40852  17.276   3.733  14.399  0.1695  0.0382 -0.1521
25722W        W40853   7.399   0.015  14.633 -0.1330 -0.0532 -0.1525
25723W        W40854   4.925  15.876   2.071 -0.0260 -0.4194 -0.1847
25724W        W40855  11.220   0.812  13.342  0.1869 -0.0126  0.2886
25725W        W40856   7.791   1.071  10.390  0.0195 -0.0019  0.0152
25726W        W40857   7.967   1.206  14.891 -0.1255  0.2178 -0.0453
25727W        W40858  11.417  15.031   1.720  0.0998 -0.0829  0.2149
25728W        W40859  13.608   1.617   4.448 -0.1846  0.1556  0.1808
25729W        W40860   9.396   2.138   3.119 -0.0393  0.1065 -0.1659
25730W        W40861  17.798   3.634   2.794  0.1375  0.3546  0.2382
25731W        W40862  18.527   5.416  12.974 -0.2181 -0.4400  0.0600
25732W        W40863   4.975  13.351  11.547 -0.0715 -0.2062 -0.1583
25733W        W40864   2.907  18.241   3.327 -0.1215 -0.4092 -0.2401
25734W        W40865  14.453  12.492   2.874  0.0183  0.1071 -0.2364
25735W        W40866   3.621  16.318  14.469 -0.2630 -0.1314 -0.0182
25736W        W40867  11.777  16.167  13.020  0.0075 -0.2174 -0.2054
25737W        W40868  17.283  14.993   0.529 -0.3480  0.0598  0.0711
25738W        W40869   8.595  12.550   2.925 -0.2353  0.0448 -0.1041
25739W        W40870   9.839  13.248  11.633 -0.0611 -0.0656  0.2262
25740W        W40871  11.709  12.531   3.186  0.1491 -0.4262 -0.0881
25741W        W40872  13.119   5.638  12.949  0.0778 -0.0854 -0.1772
25742W        W40873   8.540   0.004   3.278 -0.0557  0.2299 -0.1886
25743W        W40874  13.038  17.587   0.471  0.2163 -0.3267  0.2273
25744W        W40875   5.974  16.508  15.781 -0.2146 -0.0249  0.1594
25745W        W40876  15.626  11.252  13.055  0.1285  0.4521 -0.3764
25746W        W40877  17.870   5.502   5.344  0.2147 -0.1923 -0.0534
25747W        W40878   5.716   7.751  11.897 -0.0134 -0.3187  0.0005
25748W        W40879   8.769  12.875  14.462  0.0655 -0.1884  0.1716
25749W        W40880   9.428   1.074   2.999  0.1984 -0.1209 -0.0626
25750W        W40881   2.959  15.409  14.529  0.2016  0.1110 -0.2130
25751W        W40882  17.375  14.574   4.915 -0.0700 -0.1377 -0.0658
25752W        W40883   9.203  13.838  11.034 -0.0625  0.0101  0.0851
25753W        W40884  12.329   0.035  15.001  0.0680  0.0770 -0.3528
25754W        W40885  13.440   7.167  11.707  0.1385  0.0554  0.1551
25755W        W40886   8.705  11.171  14.006  0.1987 -0.2171 -0.1305
25756W        W40887  16.499  10.247  13.576 -0.2914 -0.1344  0.1010
25757W        W40888   9.534   2.739  11.861  0.0399 -0.1551  0.1131
25758W        W40889   7.301  17.507  13.618 -0.0689  0.1833 -0.0495
25759W        W40890   1.467   6.869   5.585  0.0396 -0.3173 -0.0820
25760W        W40891   7.028   1.156   5.282 -0.3623 -0.1595 -0.0448
25761W        W40892  12.838   6.190   4.964 -0.0167 -0.0168  0.0211
25762W        W40893  10.573  17.125   2.883 -0.3159 -0.2076  0.0669
25763W        W40894  13.404  11.386  11.609 -0.0935 -0.2615 -0.0686
25764W        W40895  15.483   9.470  14.482 -0.0729  0.2144 -0.1620
25765W        W40896  10.427   8.851  11.616  0.0482 -0.2749 -0.0296
25766W        W40897   3.685  11.827   3.391  0.0891 -0.3982  0.3582
25767W        W40898  12.288  17.431  10.611  0.4586 -0.2304 -0.2215
25768W        W40899   0.343  14.182   5.650 -0.0833  0.2293  0.0334
25769W        W40900   8.118   8.725  11.237  0.3503  0.1672 -0.0298
25770W        W40901  17.100   7.538  11.727  0.3135 -0.0467 -0.0453
25771W        W40902  17.830  17.119  12.519  0.0622 -0.1011  0.1608
25772W        W40903   9.541  18.059   1.325  0.4074  0.0861  0.0863
25773W        W40904   9.182   5.780  14.626  0.0618 -0.0215  0.1447
25774W        W40905   1.523   5.581  14.274 -0.2124 -0.2843 -0.0052
25775W        W40906   7.250  17.349  13.127 -0.1404 -0.0056 -0.1313
25776W        W40907   8.036  11.594  11.981  0.3089 -0.3575 -0.1396
25777W        W40908  16.305  18.215  15.560 -0.1904  0.0092 -0.0171
25778W        W40909   5.499  13.424  15.024 -0.2098  0.1066 -0.0193
25779W        W40910   5.152  10.976  11.480 -0.2622  0.0782  0.1913
25780W        W40911  14.688   7.544   5.687  0.0942  0.2560  0.3048
25781W        W40912   8.836  14.130  12.000 -0.0133 -0.0451  0.1760
25782W        W40913   7.662  16.685  14.328  0.1042  0.1078 -0.0413
25783W        W40914   7.132   6.824   1.605  0.0864 -0.0132 -0.0214
25784W        W40915   2.955   2.705  12.343  0.1425  0.0836 -0.0835
25785W        W40916  10.719   3.548   1.918  0.2772 -0.0584 -0.2418
25786W        W40917   4.945   9.532  11.447  0.4393 -0.2692  0.0153
25787W        W40918   6.450  17.231  11.423 -0.0857  0.0988  0.1919
25788W        W40919   4.834  14.519   2.113 -0.2283 -0.0062 -0.3508
25789W        W40920   0.802   8.258  14.398  0.0522  0.0541  0.0509
25790W        W40921   3.705   6.566  11.445  0.2093 -0.2648  0.0821
25791W        W40922  18.037   5.798  15.579 -0.0863  0.0173 -0.1393
25792W        W40923   5.812  14.277  14.602 -0.2245  0.1346  0.1091
25793W        W40924  11.636   2.504   4.785 -0.1891 -0.0549  0.0614
25794W        W40925   9.201  17.895   0.501 -0.0569 -0.0948  0.2516
25795W        W40926  18.313  15.439  12.310 -0.1690 -0.1606 -0.0058
25796W        W40927  17.775   9.392   2.535 -0.2377  0.2071 -0.2152
25797W        W40928  17.741   4.593   3.531 -0.0525  0.0153 -0.3558
25798W        W40929  14.532   9.326   1.113 -0.0040 -0.1582  0.1512
25799W        W40930  14.271  11.082  10.803  0.0403  0.2888  0.5539
25800W        W40931  14.876   0.315   3.988  0.0440  0.0005 -0.0102
25801W        W40932   5.138  12.653  14.106 -0.4588 -0.0571 -0.1563
25802W        W40933   5.646   2.868   2.741 -0.2835  0.2451 -0.1428
25803W        W40934  11.519  17.028   1.514 -0.0510  0.4343 -0.1791
25804W        W40935  17.626   7.680   2.064 -0.0337  0.0679  0.1908
25805W        W40936   7.778   2.539   2.066 -0.0720 -0.0981 -0.3553
25806W        W40937  18.531   2.744   0.622 -0.0582  0.0937  0.0194
25807W        W40938  12.698   1.391  15.254 -0.0564  0.2289 -0.3465
25808W        W40939  11.689   0.457   3.787 -0.1824  0.1029 -0.0001
25809W        W40940   6.040  16.674   4.810 -0.1319  0.0645 -0.1238
25810W        W40941  16.166   5.978   1.967 -0.1245  0.0650 -0.1932
25811W        W40942   0.645   2.525  13.843 -0.1054  0.3290 -0.0926
25812W        W40943   4.280   1.842   2.609 -0.3840  0.0460 -0.2566
25813W        W40944   6.530  14.955   3.500 -0.0547  0.2459 -0.3534
25814W        W40945   7.035  11.118  14.362 -0.1065  0.2182  0.3040
25815W        W40946  17.763   9.056  12.757 -0.1403  0.2273 -0.4388
25816W        W40947  12.596  16.060  10.454 -0.2197  0.1638 -0.5244
25817W        W40948   6.462   2.608  15.466 -0.3765 -0.1695  0.0689
25818W        W40949   7.253  14.522  11.365 -0.3010  0.2033  0.0275
25819W        W40950  14.598  15.023  11.477  0.0444 -0.0654 -0.3739
25820W        W40951  11.767  13.953  11.086 -0.0506 -0.1283  0.4083
25821W        W40952   3.317   5.100   0.994 -0.0323 -0.2447 -0.1035
25822W        W40953   4.699   1.823   2.298 -0.1507 -0.0423 -0.2285
25823W        W40954   0.483   6.343   5.902  0.1398  0.0955 -0.0379
25824W        W40955  14.388   0.282   9.878  0.3088 -0.3219 -0.0234
25825W        W40956  12.031  12.623   2.811  0.0547  0.3221  0.0226
25826W        W40957   0.950  13.688  14.550  0.2058 -0.0544  0.4294
25827W        W40958  16.878   6.888   5.541  0.1034  0.2253 -0.0956
25828W        W40959  15.072  14.557  15.202  0.0674  0.1854  0.1081
25829W        W40960   7.740   6.463   5.430 -0.0363  0.0811 -0.0152
25830W        W40961  10.764  13.133   0.813  0.2003  0.0693  0.2698
25831W        W40962   8.046  11.420   1.201  0.1913 -0.0777  0.3003
25832W        W40963   9.407   6.790   4.769  0.0476  0.1216 -0.2903
25833W        W40964   0.340  12.772  11.562 -0.2235  0.2956  0.3409
25834W        W40965  16.797   4.724  13.333 -0.0853 -0.0721  0.0441
25835W        W40966   6.875  16.118  12.872  0.1695 -0.0455  0.0714
25836W        W40967   5.908   4.374  12.876 -0.0046  0.0341 -0.3597
25837W        W40968   1.002   3.843   2.671  0.0077  0.1014 -0.1400
25838W        W40969  18.486   1.732  14.629 -0.0172  0.0417  0.2645
25839W        W40970  12.306  10.551   1.824 -0.1453  0.0167 -0.0954
25840W        W40971  18.277  10.742   5.876  0.0741 -0.0403  0.0341
25841W        W40972   7.528  17.265  15.926  0.0161 -0.4491  0.0093
25842W        W40973  16.630   4.667  15.420 -0.0826  0.2696  0.0141
25843W        W40974  16.544   8.196  11.898 -0.3145  0.0624  0.0512
25844W        W40975  13.493  11.587   2.967 -0.0503 -0.0425 -0.1127
25845W        W40976   7.063  14.996   1.404  0.4453  0.1786 -0.0369
25846W        W40977   9.793   0.136  10.586  0.0267 -0.1817  0.1941
25847W        W40978   6.697  17.145   3.299 -0.1627  0.1456 -0.2406
25848W        W40979  15.813  11.951   2.271  0.1757 -0.1406 -0.2820
25849W        W40980  13.621   6.444   1.449 -0.1808  0.0756 -0.1182
25850W        W40981  13.729  17.143   5.033  0.1522 -0.4312 -0.4598
25851W        W40982   7.415   1.119   0.595  0.1011  0.0434 -0.0711
25852W        W40983   0.170  10.879  15.818  0.0055 -0.1867  0.3650
25853W        W40984  12.436   5.111  11.900 -0.0577  0.0638 -0.1798
25854W        W40985  10.967   3.999   5.635 -0.0903  0.0681  0.0443
25855W        W40986  13.160   9.897  15.429  0.0757  0.0205  0.1279
25856W        W40987   6.705   8.302   3.638  0.2901 -0.2404  0.3940
25857W        W40988   6.029  15.881  15.014  0.1088 -0.0462  0.0763
25858W        W40989  17.386  13.864  14.297 -0.2284 -0.1521 -0.2002
25859W        W40990   8.153  10.655  15.715  0.1514  0.0183  0.2015
25860W        W40991  10.571   5.196  10.936 -0.1289 -0.2123 -0.1854
25861W        W40992   1.761   8.243  15.102 -0.0960 -0.0221  0.1888
25862W        W40993   1.539  11.009   5.974 -0.1631 -0.1986  0.0147
25863W        W40994   3.096   3.466  15.757 -0.0157  0.1183  0.1392
25864W        W40995   4.332  11.871   1.185  0.1311 -0.0067 -0.0061
25865W        W40996   4.366  13.984   1.652 -0.0044  0.1953 -0.0510
25866W        W40997  16.416   8.829   3.911  0.0067  0.3906  0.0686
25867W        W40998  12.739  17.798   4.324 -0.0040  0.2213 -0.0592
25868W        W40999  15.063   3.269  13.621 -0.2906 -0.2206 -0.2914
25869W        W41000   7.366  13.857   3.008 -0.0723 -0.3385 -0.2512
25870W        W41001   6.718  16.953   0.170 -0.2329 -0.0512 -0.1528
25871W        W41002   1.796   9.323   5.731 -0.0980  0.2661 -0.2231
25872W        W41003   6.878  15.270   4.225 -0.1682 -0.1572 -0.1461
25873W        W41004   5.945   2.623  12.196  0.2646  0.1851  0.0597
25874W        W41005   5.324  11.804   0.827 -0.0562  0.2765  0.1495
25875W        W41006   3.341  16.323  11.676 -0.3718 -0.0499  0.1066
25876W        W41007   7.649  13.234  15.929  0.0058 -0.0322 -0.0066
25877W        W41008   7.448  17.479  14.106 -0.1664 -0.1444 -0.0189
25878W        W41009  14.699   3.975  12.773  0.0112 -0.0955 -0.4646
25879W        W41010  15.355   4.604   0.931  0.3541  0.3321  0.1843
25880W        W41011  15.478   1.383   0.221 -0.0065  0.2877 -0.0038
25881W        W41012   9.783   1.435  13.596 -0.2295 -0.0206  0.0610
25882W        W41013  11.766   8.220   3.470  0.4272  0.1482  0.0857
25883W        W41014  12.492   0.863   1.862 -0.2715 -0.1242 -0.1307
25884W        W41015   0.812   9.371   5.759  0.2739 -0.2346 -0.0754
25885W        W41016   2.741   7.446  11.605  0.4269  0.0740 -0.0119
25886W        W41017   8.485   0.820  10.656 -0.0777 -0.1138 -0.1382
25887W        W41018   4.305   8.612   2.747  0.1432  0.1057  0.1931
25888W        W41019  12.740  12.185  13.080 -0.2303  0.0311 -0.0705
25889W        W41020  15.713  14.440  11.983  0.1535  0.1996 -0.0845
25890W        W41021  15.246   2.039  12.447 -0.1771  0.0284 -0.1384
25891W        W41022   8.444  11.903  11.773  0.2345 -0.3562 -0.2359
25892W        W41023  12.398   6.185  15.908  0.1066  0.0512 -0.1353
25893W        W41024  17.615  10.229   0.077  0.2433  0.0341 -0.0521
25894W        W41025   2.056   5.744  10.395  0.2126 -0.2969  0.0571
25895W        W41026  16.575   3.701  12.600 -0.2482  0.4774 -0.0197
25896W        W41027   2.918   2.814   0.235 -0.1510  0.0580 -0.1121
25897W        W41028   3.341   7.711   3.436 -0.1649  0.0629  0.0059
25898W        W41029  13.047  16.715  13.193  0.5408 -0.0792 -0.0344
25899W        W41030  13.291   4.963  10.318  0.0018  0.3775 -0.3381
25900W        W41031   9.680  12.288  12.680  0.2775 -0.1581  0.1884
25901W        W41032   1.000   9.660   0.496  0.0123 -0.3036 -0.0824
25902W        W41033   6.638   3.578   0.047  0.0308 -0.0734 -0.1136
25903W        W41034   0.063  15.470   3.730  0.3135 -0.1038  0.3748
25904W        W41035   6.061  15.557   2.797  0.1597 -0.1618  0.0504
25905W        W41036  13.511   6.953   5.181 -0.0357 -0.0922  0.0147
25906W        W41037   5.194  12.103  14.266  0.1159 -0.0576 -0.3587
25907W        W41038  14.644   1.953  12.784  0.1619 -0.0637  0.0616
25908W        W41039   0.717  18.173   3.535  0.0638 -0.2007  0.2089
25909W        W41040  16.820   9.194  13.082  0.2340  0.0216 -0.1795
25910W        W41041   7.838  11.910   4.980 -0.0488  0.2234 -0.1788
25911W        W41042   8.282   0.358  10.468  0.1859 -0.4089 -0.0378
25912W        W41043   3.120   6.808  13.553  0.0861  0.3745  0.0371
25913W        W41044  12.221   4.683   5.462  0.2750 -0.0664  0.0718
25914W        W41045  15.827   1.504  11.263 -0.0205 -0.0872 -0.0950
25915W        W41046   7.345  10.137   2.577  0.1714  0.2819  0.0919
25916W        W41047   0.987  13.107   5.802 -0.2762  0.1304 -0.3244
25917W        W41048   5.805   4.534   5.290  0.1145  0.4316  0.1963
25918W        W41049   8.409   0.775  14.230 -0.0859  0.3590 -0.1895
25919W        W41050  16.615   3.088   1.922  0.2052  0.2767 -0.1452
25920W        W41051  13.929   1.562   1.773 -0.2204  0.0636 -0.0841
25921W        W41052  15.881   8.793   0.148 -0.2533 -0.0200 -0.1548
25922W        W41053   8.519  10.562  12.385  0.1475  0.1445 -0.0287
25923W        W41054   4.169   6.357  11.546  0.1814 -0.1825  0.0102
25924W        W41055   6.420   3.229   4.102  0.0189  0.2984  0.2933
25925W        W41056  11.731   6.642   1.082  0.0148  0.1345  0.3577
25926W        W41057   1.335   2.844  10.350  0.0251  0.0470 -0.1840
25927W        W41058  16.576   3.095  10.198 -0.4220 -0.1374 -0.0135
25928W        W41059  11.727   9.908  12.818  0.1232  0.1767  0.0467
25929W        W41060  16.525  17.102   3.824 -0.2195  0.3201 -0.2187
25930W        W41061  12.270  10.643   2.333  0.1023  0.0489 -0.3430
25931W        W41062  17.288  13.759  11.118 -0.0501 -0.0318  0.1872
25932W        W41063   8.660   6.028  15.240 -0.3550  0.2252 -0.2277
25933W        W41064  10.416  14.228  11.514  0.0542 -0.1462 -0.0866
25934W        W41065   4.281   5.885   1.689  0.0981 -0.1302 -0.0424
25935W        W41066   5.090  14.114   0.108 -0.1623  0.0927  0.2152
25936W        W41067  14.978   8.475  15.743 -0.1619 -0.1954  0.2611
25937W        W41068  17.407   3.620   1.289  0.0002  0.0522  0.1774
25938W        W41069  15.817   6.518   1.172  0.0148 -0.1645  0.2356
25939W        W41070   6.062  16.711   0.894  0.2192  0.2646 -0.2462
25940W        W41071  10.927  15.287  14.051 -0.4152  0.4644  0.3509
25941W        W41072   8.628   9.647  10.826 -0.2179 -0.2201 -0.0585
25942W        W41073  10.676   3.296   5.060  0.1640 -0.1860 -0.1021
25943W        W41074  14.763   5.663  11.825  0.0072  0.6445  0.0651
25944W        W41075   5.871   8.814  15.922 -0.1665  0.0913 -0.0152
25945W        W41076  10.723  10.437   4.339  0.1432  0.0363  0.2028
25946W        W41077   6.386  13.568   5.211  0.1691  0.2362  0.0285
25947W        W41078   7.928  13.060   2.794 -0.1928 -0.3945  0.0250
25948W        W41079  12.091  11.823   0.784 -0.0678 -0.0390  0.1084
25949W        W41080  10.571   9.394  12.061  0.0062 -0.0584  0.2306
25950W        W41081  13.601   7.859   3.387 -0.1353 -0.0974  0.4020
25951W        W41082   3.150   8.875  11.161  0.3217 -0.0428  0.0959
25952W        W41083  11.379  18.200  12.268  0.3116  0.1826 -0.0936
25953W        W41084  13.852  13.401  13.320 -0.1105  0.3807  0.2539
25954W        W41085  11.481   8.346  13.088  0.2247 -0.3015  0.2036
25955W        W41086  17.467   4.655  12.768  0.2989 -0.0526 -0.1507
25956W        W41087  17.929  18.273   1.939  0.0670 -0.2516  0.2158
25957W        W41088  10.399   8.140  13.110 -0.0793 -0.0621  0.4196
25958W        W41089  16.080   9.528  14.374 -0.0337  0.0150  0.0104
25959W        W41090   2.303   1.615   2.089 -0.0007 -0.1735  0.0336
25960W        W41091   9.002  12.434  14.195  0.0038 -0.1237 -0.1491
25961W        W41092   8.216   1.996  11.882  0.3758  0.1563  0.0485
25962W        W41093   5.523   6.980   2.892  0.1944 -0.1431  0.0850
25963W        W41094   2.683  12.815  10.914  0.0627 -0.1113 -0.0919
25964W        W41095  12.162   8.275  15.653 -0.2909  0.3225  0.3376
25965W        W41096  18.449   1.611   0.311  0.5573  0.0313 -0.1793
25966W        W41097   9.571   9.539   0.688  0.3843  0.0749  0.1398
25967W        W41098  17.726  15.363  13.923  0.2030  0.3915  0.0922
25968W        W41099  10.828   2.789   0.500  0.0057 -0.1696 -0.3951
25969W        W41100  15.212  10.923   1.851 -0.2065 -0.2329 -0.2260
25970W        W41101  12.149   1.037  10.620 -0.0316  0.2342 -0.0920
25971W        W41102  18.084  10.074  15.833 -0.1622 -0.2318  0.1332
25972W        W41103   3.057   9.094  14.186 -0.0694 -0.1724 -0.0675
25973W        W41104   8.696  12.026   3.701 -0.1521  0.2203 -0.1150
25974W        W41105   5.196   4.651  13.307  0.2986  0.2829  0.0571
25975W        W41106  17.695  14.699   5.302  0.1873  0.4603  0.0113
25976W        W41107   0.708  10.131  15.388  0.0102 -0.0943 -0.0970
25977W        W41108  13.328   9.021  15.922 -0.0487  0.2748  0.0745
25978W        W41109  18.392   7.928  13.149  0.0131  0.1185  0.0343
25979W        W41110   1.066  10.786  12.753 -0.0807 -0.0002 -0.2886
25980W        W41111   3.871   5.851   3.769  0.0874  0.1426 -0.3631
25981W        W41112   2.544   5.599   5.109  0.0219 -0.0336 -0.1681
25982W        W41113   8.291  13.737   0.144  0.0576 -0.2147 -0.2539
25983W        W41114   1.856  10.184  13.837  0.3572  0.0086  0.0884
25984W        W41115  15.365  15.465   1.920  0.2264 -0.2512 -0.2086
25985W        W41116   5.717   2.405   1.298  0.1778 -0.2589  0.1258
25986W        W41117   1.581  13.007   3.818 -0.2944 -0.0454  0.1044
25987W        W41118   5.970  13.208   2.784  0.1636 -0.0168 -0.0035
25988W        W41119   1.266   9.992   2.082 -0.1280 -0.1237 -0.3672
25989W        W41120  15.166   0.456  12.746  0.3123  0.1019  0.0764
25990W        W41121  16.824   8.674  14.605 -0.0699 -0.2778 -0.1050
25991W        W41122  13.840  12.708  11.328  0.0671 -0.1974  0.0366
25992W        W41123   9.937  13.181  10.140  0.1243  0.0938  0.2603
25993W        W41124  10.693   4.173  13.690  0.1848 -0.3128  0.1685
25994W        W41125   9.647   0.291  14.689 -0.2018 -0.0462  0.0601
25995W        W41126  14.889   2.125   5.437 -0.0409  0.2526 -0.1203
25996W        W41127  12.074  15.279   1.370  0.0548  0.1809 -0.2448
25997W        W41128   9.450   4.686   3.255  0.0317 -0.5013  0.1345
25998W        W41129  14.294  14.481  14.786 -0.1564 -0.0358 -0.0466
25999W        W41130  13.105   8.099  12.733  0.3925 -0.0304  0.0341
26000W        W41131  10.182  10.731  13.608 -0.2182  0.0447  0.2892
26001W        W41132  11.416   7.083   4.028  0.3083 -0.1576 -0.1889
26002W        W41133   5.509   1.938   1.952 -0.1631 -0.3322  0.1923
26003W        W41134  16.676   2.796  13.012  0.0270  0.2381 -0.1156
26004W        W41135  10.987  14.038  14.690 -0.0117 -0.6285 -0.2635
26005W        W41136  10.758  16.941   3.731 -0.4435  0.3319 -0.4970
26006W        W41137   5.892   4.944   1.341  0.0388 -0.6104  0.1996
26007W        W41138   1.957  11.889  15.034 -0.0083 -0.1828  0.1329
26008W        W41139   3.616  12.493   3.098  0.1328 -0.4461 -0.1390
26009W        W41140   5.422  15.695  10.179  0.2559  0.0676 -0.2414
26010W        W41141   7.760  15.706   0.699  0.1508 -0.1037  0.0965
26011W        W41142   3.337  14.426   1.129  0.1687  0.2765  0.4507
26012W        W41143   1.343   7.485   3.308 -0.1056  0.0112 -0.0685
26013W        W41144   7.552   3.990   1.641 -0.1218  0.5185  0.1982
26014W        W41145  12.081   9.451  10.762 -0.0628  0.0086 -0.1226
26015W        W41146  14.525   2.200  15.530 -0.2862 -0.0608 -0.0202
26016W        W41147   9.453  16.018   0.294  0.2272 -0.2452 -0.0150
26017W        W41148   8.904   0.835  14.995 -0.1383 -0.1857 -0.0820
26018W        W41149   7.900  15.510   0.066  0.1437 -0.1811 -0.1323
26019W        W41150   8.122   4.025  11.362 -0.1885 -0.0793 -0.5136
26020W        W41151  12.833  16.686   1.848 -0.4126 -0.1024 -0.4137
26021W        W41152  15.280   2.808  11.367  0.2802 -0.1401  0.0734
26022W        W41153   9.878  12.844  14.523  0.0979  0.2686  0.1872
26023W        W41154   9.893   1.020  12.047 -0.0598  0.0546 -0.0167
26024W        W41155   5.440  11.663  12.170  0.0273 -0.4288 -0.3647
26025W        W41156  13.023  12.130  15.638  0.1611  0.2218 -0.2024
26026W        W41157  16.903  15.883  10.938 -0.0202 -0.0369 -0.0530
26027W        W41158   8.000  14.635   2.011  0.0232 -0.3313 -0.1474
26028W        W41159   3.129   4.310  15.633  0.3981  0.1653 -0.1369
26029W        W41160   5.495  17.557   3.437 -0.2474  0.0029  0.0199
26030W        W41161   5.658   2.144  13.080  0.0414  0.1753  0.1642
26031W        W41162  11.171   8.380   4.630  0.0645 -0.1802 -0.1842
26032W        W41163   3.240   4.453  12.973  0.3856  0.0402  0.0050
26033W        W41164   8.564   6.242  15.876 -0.0829  0.0330 -0.0636
26034W        W41165   2.233   3.052  13.469  0.1166 -0.1518  0.1171
26035W        W41166   0.418  17.627   2.846  0.1047  0.1179 -0.0943
26036W        W41167   2.122   4.124   3.848  0.2958  0.1701 -0.2659
26037W        W41168   8.660   0.971   3.364 -0.2397  0.3156 -0.2741
26038W        W41169  12.594  17.043  12.695 -0.0554  0.0356 -0.0042
26039W        W41170   4.464  13.401  14.701 -0.1273  0.2299 -0.1618
26040W        W41171   8.746   5.400   4.438  0.0774 -0.0395  0.3404
26041W        W41172  17.410   6.841   5.562  0.3239  0.2531  0.1780
26042W        W41173  14.392  14.769   1.890 -0.2665  0.2688  0.1219
26043W        W41174  15.661   3.722   2.368 -0.1598  0.3701  0.0457
26044W        W41175   9.871   1.670  10.794  0.1074 -0.0414 -0.2870
26045W        W41176  15.026   0.234   3.424 -0.1508 -0.1815  0.0506
26046W        W41177   0.425  14.867  14.039 -0.1269  0.0839  0.1549
26047W        W41178   5.240   8.838   1.657 -0.1106 -0.1320  0.0792
26048W        W41179  13.758  11.796   2.573  0.0622 -0.0270 -0.1789
26049W        W41180  13.215  16.257  12.915  0.0282  0.1605  0.1294
26050W        W41181  16.812  16.269  14.049 -0.0140 -0.0610  0.0078
26051W        W41182  11.752  14.166  10.582  0.0387 -0.3100  0.0641
26052W        W41183  17.153  14.499  12.758 -0.4327  0.1338  0.0550
26053W        W41184  15.987  12.019  14.602  0.0222  0.1135 -0.1192
26054W        W41185   1.339   8.765  12.712 -0.0878  0.0473 -0.0160
26055W        W41186  14.841   5.390  15.527 -0.2134  0.1215  0.1972
26056W        W41187   9.273  13.253  14.022  0.0664  0.2460  0.2037
26057W        W41188  16.675  18.434   2.819  0.0498 -0.1845  0.2823
26058W        W41189  10.473  10.732   4.702 -0.1863  0.0432 -0.0748
26059W        W41190   6.764  15.905  11.438 -0.1265 -0.1082 -0.1571
26060W        W41191  18.122   8.799   2.503  0.2662  0.0568 -0.2310
26061W        W41192   8.484   4.310   1.946 -0.0885  0.1985 -0.0760
26062W        W41193   7.254   2.228  12.369 -0.0424 -0.3316  0.0783
26063W        W41194  11.997   0.800   2.770 -0.0715  0.1015  0.2467
26064W        W41195   2.091  12.424  15.918  0.2719 -0.1549  0.3382
26065W        W41196   9.811   4.918   0.667  0.1709 -0.0462  0.1590
26066W        W41197  16.845   1.966   0.943  0.0688 -0.1220 -0.2680
26067W        W41198  18.104  16.641  13.643  0.0256  0.2412  0.2916
26068W        W41199   6.068   3.926  11.018  0.0541  0.2712 -0.5273
26069W        W41200   8.881   0.983   4.263 -0.1041  0.4482 -0.4018
26070W        W41201   3.853  13.257   3.698 -0.0881  0.1048 -0.0396
26071W        W41202   4.683   7.004   3.694 -0.1183  0.1112  0.0268
26072W        W41203   4.144   3.520  10.411  0.4447  0.1469 -0.1591
26073W        W41204  10.403   0.145  15.305 -0.1530 -0.0500  0.1533
26074W        W41205   3.975   4.073  11.445  0.1729  0.0419 -0.0283
26075W        W41206   5.639   4.796  11.094  0.4528 -0.1077 -0.0344
26076W        W41207   7.828   7.862  10.851  0.2813  0.0311 -0.3375
26077W        W41208   6.352   5.502   4.209 -0.0335 -0.0106  0.0720
26078W        W41209   4.523   5.168   4.857 -0.0784  0.3026  0.3063
26079W        W41210  14.385   0.081  15.923  0.0575 -0.1790 -0.0253
26080W        W41211  17.499   9.894  14.465 -0.0277  0.3300  0.0413
26081W        W41212  13.884   7.844  11.386 -0.1302 -0.0730 -0.0355
26082W        W41213   7.043   3.125  10.323 -0.0574 -0.4394  0.0645
26083W        W41214  12.853   5.794  13.699 -0.1319  0.1005  0.1928
26084W        W41215  15.807   7.698   2.100  0.0206  0.0376  0.1722
26085W        W41216  17.176  16.605   2.829  0.0524 -0.1035 -0.0382
26086W        W41217  14.623   7.154   2.397 -0.3037  0.1785 -0.3209
26087W        W41218   4.513  11.521  11.040  0.0874  0.3517 -0.0227
26088W        W41219  13.950   2.168   5.695  0.0441 -0.4020  0.1400
26089W        W41220   1.146   5.523   2.225  0.5903 -0.3936 -0.1360
26090W        W41221   4.477   1.770  12.410 -0.0122  0.0014 -0.1419
26091W        W41222   2.387   6.954   0.383 -0.0991 -0.0707 -0.1720
26092W        W41223   7.118  16.094  14.810 -0.2798 -0.1761 -0.2119
26093W        W41224  13.705   8.323   3.695  0.1802  0.2340  0.0992
26094W        W41225   4.720  14.042  10.720 -0.0497 -0.0453  0.1129
26095W        W41226  14.583  16.964  14.861 -0.0914  0.1667  0.2033
26096W        W41227   5.303   6.322   0.120  0.0600 -0.0092  0.1714
26097W        W41228  16.632   1.641   0.285 -0.1798  0.1466  0.1960
26098W        W41229  17.166   5.515  14.929 -0.0029  0.0041  0.2224
26099W        W41230   1.025   4.791   4.900  0.0730  0.1231 -0.2312
26100W        W41231   6.898  11.565  12.356  0.2298 -0.0574 -0.2852
26101W        W41232   9.050  14.626   4.334  0.1768  0.2872  0.1255
26102W        W41233  12.035  16.284  10.923  0.0467 -0.0961 -0.1535
26103W        W41234   7.055  11.760  13.595 -0.0597 -0.0203 -0.0928
26104W        W41235   7.767  11.178   4.261 -0.1204 -0.2117 -0.0296
26105W        W41236  12.000   3.067  12.543 -0.0202  0.0394  0.0211
26106W        W41237   4.633  18.289   1.308 -0.2398  0.1703 -0.0177
26107W        W41238   8.781   8.871   4.326 -0.1900  0.1750  0.0135
26108W        W41239  11.979  11.078   0.605 -0.0886 -0.1449  0.0199
26109W        W41240   8.687  10.791  11.848 -0.0452  0.0539  0.1303
26110W        W41241   7.008  14.561   3.017 -0.1364  0.0286  0.2733
26111W        W41242  12.541   6.115  14.908 -0.0704  0.1359 -0.1275
26112W        W41243   0.263   4.606  14.172  0.1190 -0.1565  0.0967
26113W        W41244  10.042   5.681  15.201  0.0350 -0.3272 -0.1602
26114W        W41245   0.272  11.082   6.600 -0.1719  0.1468  0.1535
26115W        W41246  16.114  15.726  14.742  0.1881 -0.1405  0.0563
26116W        W41247  13.902  16.510   1.639 -0.0978 -0.5078  0.0245
26117W        W41248   1.662  11.975   4.657 -0.2612 -0.1627  0.0764
26118W        W41249  17.148  17.630   4.110 -0.2326 -0.1670 -0.0738
26119W        W41250  17.220   5.439   1.332 -0.2540 -0.2949  0.0597
26120W        W41251  11.843   6.370   4.626 -0.0215  0.0001 -0.2102
26121W        W41252  12.460  18.175   3.534 -0.1817  0.2807  0.0391
26122W        W41253  15.589   2.534   0.052  0.2289  0.1101  0.0371
26123W        W41254  17.720   2.357  12.094  0.1862  0.1102 -0.2859
26124W        W41255  13.362   3.640   5.089 -0.3698  0.2272 -0.0920
26125W        W41256   0.558   3.873  13.022  0.2758 -0.2426  0.2931
26126W        W41257   0.982  10.235   0.381  0.0930  0.0504  0.1980
26127W        W41258  14.052  10.125  15.612  0.2493 -0.0819  0.1473
26128W        W41259   0.697  16.227   0.639  0.3722  0.3322  0.3516
26129W        W41260   7.598   1.264  11.192 -0.2584 -0.1056  0.3089
26130W        W41261   4.816   8.961   1.923 -0.0930  0.0033 -0.0958
26131W        W41262  10.337  16.732  11.758 -0.0333 -0.0389  0.3765
26132W        W41263   3.206   1.684   4.028 -0.0987  0.1685 -0.0476
26133W        W41264  16.688   5.603   3.832 -0.2907  0.0016  0.2207
26134W        W41265  15.712   2.367   4.572 -0.0907  0.1879  0.2479
26135W        W41266   5.338  10.916  12.707  0.1429  0.0461 -0.0561
26136W        W41267   9.107   3.074   4.024  0.0438 -0.3231  0.0681
26137W        W41268  13.205   2.049   1.153 -0.0612 -0.2059 -0.0850
26138W        W41269  17.918  14.515   4.858  0.0499 -0.0308  0.1876
26139W        W41270  10.754   8.037  12.763  0.0388 -0.1234 -0.0752
26140W        W41271  14.484   6.767  13.205  0.0348 -0.2151  0.0545
26141W        W41272  14.599   6.179   5.336 -0.3859  0.0759 -0.1806
26142W        W41273  11.398   5.633  10.976  0.2168 -0.2080 -0.1090
26143W        W41274   6.833   6.484   4.058 -0.0366 -0.3438 -0.0737
26144W        W41275   5.983   0.616  14.452  0.1289  0.1596 -0.2899
26145W        W41276   7.935   3.092   1.489  0.1031  0.0236  0.0014
26146W        W41277  11.400   1.518  14.813  0.0367  0.2033  0.0819
26147W        W41278   3.403  11.442   9.273 -0.2357  0.1118 -0.1992
26148W        W41279   0.592  12.805  12.452  0.2523 -0.0074  0.3041
26149W        W41280  12.483   0.998   4.547 -0.0716  0.1014 -0.0548
26150W        W41281   6.428  11.664   1.118  0.0071 -0.2367  0.0845
26151W        W41282  16.092   8.607  11.231 -0.1748 -0.2561  0.1397
26152W        W41283  18.384   3.667  11.566  0.3633 -0.2416 -0.3620
26153W        W41284   0.382  14.508  15.461 -0.3943 -0.2771 -0.1935
26154W        W41285   6.447  11.464   5.622  0.3374  0.1245 -0.0750
26155W        W41286  14.890  10.677   2.346  0.0610 -0.3543 -0.0096
26156W        W41287   6.196   2.625   2.663 -0.1032  0.1466 -0.2221
26157W        W41288   2.200   0.749  13.245  0.0400  0.2636  0.1753
26158W        W41289   3.015  14.094   4.593  0.0076 -0.3739 -0.0862
26159W        W41290   5.018  14.525  15.278 -0.2023  0.2560 -0.2299
26160W        W41291   4.734   7.442  15.568  0.3858  0.2857  0.1065
26161W        W41292   8.401   6.067   0.545 -0.5010 -0.1871 -0.0489
26162W        W41293  15.414   0.670   4.610  0.0240  0.1384  0.3315
26163W        W41294  17.820   4.393   2.445  0.3358 -0.4547 -0.1301
26164W        W41295   9.541  12.504   2.674  0.1224  0.2047  0.1971
26165W        W41296   8.709   9.266  14.537  0.0114  0.1601 -0.0665
26166W        W41297   8.650  17.224   2.088 -0.2513  0.1694 -0.0644
26167W        W41298  16.552  15.390  11.576 -0.2021 -0.1564  0.1084
26168W        W41299  17.705   0.657   1.732  0.0987  0.2053  0.0289
26169W        W41300  17.549  12.690  10.409 -0.3753  0.0678 -0.2618
26170W        W41301   4.086  14.362   3.129 -0.0313  0.1656 -0.2898
26171W        W41302   8.460   8.000   1.832 -0.0410 -0.0120  0.0888
26172W        W41303   4.722  15.175  13.959 -0.0556  0.3661 -0.1640
26173W        W41304  13.719   4.312   1.122  0.2264  0.1236  0.0551
26174W        W41305   9.593   1.648  10.378  0.2122 -0.1685  0.0659
26175W        W41306  18.332   0.725  11.358 -0.3351  0.1107  0.0232
26176W        W41307   2.586   0.447  12.133 -0.0984 -0.1497 -0.1389
26177W        W41308   7.965   0.048   3.427  0.0887 -0.1815  0.0961
26178W        W41309  15.945  10.999  15.472 -0.3942 -0.0054 -0.0855
26179W        W41310   7.813   4.834   0.609  0.3803 -0.0751 -0.1358
26180W        W41311   2.516   4.359   4.662 -0.0893 -0.0907  0.1096
26181W        W41312  10.867   2.408  11.569 -0.0863  0.0229  0.2817
26182W        W41313   6.981  10.986   0.925  0.0204  0.1729  0.0016
26183W        W41314  12.964   3.584   2.094 -0.0146 -0.0190  0.6472
26184W        W41315  14.416   7.365   4.965  0.2259  0.3160  0.3502
26185W        W41316   5.206   1.355   3.484 -0.2141  0.1004 -0.1269
26186W        W41317   0.593  16.398  12.640 -0.1273  0.2543  0.4758
26187W        W41318  15.087   4.617   3.956  0.3084  0.0740  0.0796
26188W        W41319   4.245   1.567   2.212 -0.2205  0.1902 -0.0070
26189W        W41320   0.824   1.784   0.290 -0.2850 -0.0269  0.0688
26190W        W41321  12.821   0.959  14.481  0.3991  0.1576  0.3198
26191W        W41322  18.446   3.105   2.370 -0.3954  0.3316  0.2362
26192W        W41323  11.303   0.209  14.249  0.3034  0.4766  0.0235
26193W        W41324  13.238  15.370  12.710  0.1293  0.1799  0.2319
26194W        W41325   8.218   2.055   4.921 -0.1229  0.4624  0.3152
26195W        W41326   2.766  17.908  12.466  0.0510 -0.2847  0.2594
26196W        W41327   7.416   9.364   0.765 -0.3469  0.1137 -0.1169
26197W        W41328  17.265  15.479  12.642  0.4659 -0.1580  0.0537
26198W        W41329   2.689  18.195   1.911  0.2583 -0.0894 -0.3158
26199W        W41330   9.158   7.008   3.568  0.0841  0.0042 -0.0828
26200W        W41331   4.755   1.464   0.421 -0.0950  0.0623  0.3625
26201W        W41332  14.155  14.075   2.360 -0.2038 -0.3038  0.2412
26202W        W41333  16.086   1.471   2.290  0.3330  0.0079 -0.2051
26203W        W41334   2.306   8.368  13.868  0.2079  0.0725  0.4036
26204W        W41335   8.493   4.046   4.070 -0.0498  0.3969  0.0305
26205W        W41336   4.131   6.271  12.860  0.0402 -0.3131  0.1705
26206W        W41337  11.516  18.360   2.452 -0.0920  0.0108  0.2877
26207W        W41338   8.787   9.965   0.906  0.0015  0.3585 -0.0179
26208W        W41339  16.379   6.219   2.855 -0.1093 -0.4490 -0.0296
26209W        W41340  16.282  12.589   4.363  0.0165 -0.1073  0.0376
26210W        W41341  14.997  18.149   3.676 -0.2742 -0.1190 -0.2446
26211W        W41342  11.097   0.839   0.779 -0.2097 -0.0319  0.3594
26212W        W41343   9.708   8.777   3.769 -0.0021 -0.0408 -0.1244
26213W        W41344  15.756   8.076   2.474 -0.1530 -0.1182 -0.1328
26214W        W41345   7.416   7.827   1.595 -0.0479 -0.4279  0.0158
26215W        W41346   4.768  18.488  12.880  0.1449 -0.1678 -0.1145
26216W        W41347  16.018   3.352   1.372  0.2789 -0.0801  0.0748
26217W        W41348  10.158   0.675   4.735 -0.0389 -0.3098 -0.1114
26218W        W41349  10.495  11.171  14.369 -0.2710  0.2645 -0.2260
26219W        W41350  10.683   7.538   3.118 -0.0722 -0.1708  0.0780
26220W        W41351  13.942   5.203   5.826  0.0794 -0.1241 -0.2215
26221W        W41352  16.016   7.448  13.493 -0.1969  0.2482  0.0820
26222W        W41353  13.565  13.936  15.049 -0.2867 -0.1493 -0.1151
26223W        W41354  14.550   5.011  14.307 -0.0366  0.0003 -0.0269
26224W        W41355  13.833   4.811  10.494 -0.2703  0.0223  0.0008
26225W        W41356   0.100   1.064   9.981  0.2563  0.1567 -0.2076
26226W        W41357  18.120   2.121   2.832  0.0142  0.1844 -0.1864
26227W        W41358  15.312   7.545  11.634 -0.2509  0.2106  0.0122
26228W        W41359  18.270   0.420   1.570 -0.3366  0.2374 -0.2578
26229W        W41360  16.638   8.281  14.954 -0.0319 -0.2658  0.4030
26230W        W41361   9.382   2.703  12.356  0.1043 -0.0470  0.0224
26231W        W41362   9.078   3.896  12.918  0.0698  0.0209  0.2697
26232W        W41363  11.973  11.639   1.692 -0.2039 -0.4111  0.1525
26233W        W41364  16.975   5.686  13.434 -0.3506  0.0942  0.1112
26234W        W41365  11.255  10.636  13.343  0.1935 -0.0968 -0.0010
26235W        W41366   6.042   8.848   1.485 -0.3629  0.3803 -0.0313
26236W        W41367  12.897  11.481  14.455  0.0592 -0.0452  0.3903
26237W        W41368  17.919   9.030  14.671  0.1123 -0.1861  0.1012
26238W        W41369  17.282   8.378  15.650 -0.0244 -0.0419 -0.4299
26239W        W41370   1.658   4.193   3.160  0.2296  0.1123  0.2772
26240W        W41371   4.674   9.731   1.712  0.0198 -0.1220 -0.5379
26241W        W41372   1.247   8.234  11.892 -0.3013 -0.0896  0.0067
26242W        W41373   0.079  14.366   3.806  0.0202 -0.0292 -0.2227
26243W        W41374  17.325   9.402  11.440  0.1042  0.3365  0.1634
26244W        W41375  13.109   8.372  13.737 -0.1641 -0.3705  0.3617
26245W        W41376   3.315  17.031   5.596 -0.2047  0.1202  0.1645
26246W        W41377   4.203  12.676   4.645  0.3168  0.1271  0.0021
26247W        W41378   3.593  18.434   1.517 -0.4152  0.0690  0.0979
26248W        W41379   1.811   6.058   5.731 -0.1374  0.0142 -0.4831
26249W        W41380   3.659   4.031   2.848  0.0674  0.3443  0.3172
26250W        W41381  10.757   3.505   3.481  0.2486 -0.1008 -0.0030
26251W        W41382   3.584  12.820   2.192 -0.0017  0.0171 -0.2127
26252W        W41383   3.673   4.021   1.800  0.1717  0.3182 -0.0034
26253W        W41384  15.260   5.553   1.973 -0.3304 -0.1436  0.3759
26254W        W41385   9.317  14.279   2.987 -0.2016  0.1680 -0.1130
26255W        W41386  18.261  17.220   4.193  0.1772 -0.3758  0.1149
26256W        W41387   9.815  11.627   4.472 -0.1672 -0.1967  0.1715
26257W        W41388   7.708  11.651  10.081 -0.1910 -0.3252  0.1128
26258W        W41389  17.824   0.792   5.241  0.3520  0.1089  0.0973
26259W        W41390  13.756  10.844   5.161 -0.3677 -0.3917  0.0732
26260W        W41391   0.052  16.931  11.939 -0.0686 -0.0861  0.0804
26261W        W41392   4.643  13.422   0.426  0.0230 -0.0913 -0.0043
26262W        W41393   5.696  17.986  13.621 -0.0571  0.2181 -0.0437
26263W        W41394   6.774   5.742  15.166  0.0672 -0.1453 -0.2239
26264W        W41395  12.770  11.155  12.173  0.1051 -0.3753 -0.1955
26265W        W41396  14.081   6.905  10.106  0.4430  0.2264 -0.0415
26266W        W41397  18.136  13.935  13.524 -0.2417  0.1466  0.2091
26267W        W41398   5.990  12.157   2.024 -0.1443  0.3833  0.0288
26268W        W41399   2.964   6.645  15.253 -0.0386 -0.0520 -0.1488
26269W        W41400   2.518   4.652  14.701 -0.1604  0.0063 -0.1255
26270W        W41401   1.947   8.721  12.560  0.2582  0.0933  0.1553
26271W        W41402  18.026   1.634   4.790  0.4259  0.2215 -0.1094
26272W        W41403   6.903   6.683   2.063 -0.1389 -0.3485  0.0748
26273W        W41404   8.021   7.100  15.785 -0.0114 -0.3934 -0.2422
26274W        W41405  13.283   4.116   5.338 -0.0807 -0.0023 -0.1936
26275W        W41406  16.250  10.473   0.794  0.2251 -0.3095  0.0435
26276W        W41407   0.901   4.523   5.361  0.0618  0.1353 -0.1390
26277W        W41408   2.803   7.298   0.272 -0.0894  0.1322  0.2543
26278W        W41409  13.546  13.591  14.703  0.1932 -0.1136 -0.0642
26279W        W41410  14.854   7.120  13.404  0.3589 -0.1132  0.1122
26280W        W41411  17.503  17.172   0.249 -0.0253  0.1076  0.0062
26281W        W41412  14.430   5.486  12.762  0.0149 -0.1361  0.2967
26282W        W41413  12.042  17.427  11.053 -0.0966 -0.2989 -0.0009
26283W        W41414  15.168  14.673  13.164 -0.0653 -0.0959  0.0941
26284W        W41415   2.212  10.711  12.575  0.2693 -0.1129 -0.0994
26285W        W41416   7.944  16.125   1.856 -0.2403  0.1049 -0.1385
26286W        W41417   5.070   3.958  11.316 -0.1024 -0.0195  0.0119
26287W        W41418  13.098  14.675  14.485 -0.1597  0.0216 -0.0376
26288W        W41419   3.967   2.740   5.010 -0.3864 -0.0052  0.1871
26289W        W41420  12.806  16.611  12.656 -0.0197 -0.0935 -0.0684
26290W        W41421   6.354  11.678   0.551  0.1718 -0.1471  0.3824
26291W        W41422  12.243   8.208  12.237 -0.0891 -0.3060  0.3574
26292W        W41423   3.898   4.456   6.057  0.0895 -0.0676  0.1028
26293W        W41424   8.099  17.348  13.761  0.0222  0.1885  0.2586
26294W        W41425  14.347  16.653  11.441 -0.2170 -0.2361 -0.0000
26295W        W41426  14.631   3.876  11.693 -0.3283 -0.0516  0.2603
26296W        W41427   0.036   1.392  13.622 -0.1542 -0.4275  0.1052
26297W        W41428  10.551  15.718   0.206  0.0545 -0.2209 -0.2281
26298W        W41429   2.898   7.966  12.393 -0.0988 -0.0904  0.0919
26299W        W41430  17.145   3.155  15.888 -0.3155  0.1988 -0.1717
26300W        W41431   8.929  13.162   2.211  0.0343  0.0372  0.1866
26301W        W41432   3.612  11.346   2.376  0.1510  0.1876  0.1190
26302W        W41433   4.843   9.201   4.660 -0.0093  0.0535  0.1188
26303W        W41434  17.457  16.404  13.061 -0.1105 -0.0156  0.1969
26304W        W41435  16.129   7.291   2.297 -0.2190 -0.2249 -0.3438
26305W        W41436   2.090   0.402  14.609 -0.3289  0.1883  0.0249
26306W        W41437   8.686   1.138  11.751 -0.0174  0.5856 -0.0696
26307W        W41438   7.771   7.798   6.225 -0.3147  0.3054  0.1551
26308W        W41439   6.409   9.331   1.988  0.0905 -0.0365  0.1379
26309W        W41440   7.152   0.480  11.083  0.3756 -0.1492 -0.0398
26310W        W41441   3.574   3.526   2.834  0.2085 -0.3165 -0.0818
26311W        W41442   6.736  17.869   9.933  0.0107 -0.1811 -0.1712
26312W        W41443  10.432   1.824   4.123 -0.3344  0.3024 -0.0488
26313W        W41444   7.690  14.383  11.214  0.0389  0.3823  0.3304
26314W        W41445   4.645  15.835   0.774  0.1811  0.1505  0.0952
26315W        W41446   0.789   9.990  11.287  0.0646 -0.0208  0.0639
26316W        W41447  15.744  13.464  15.334  0.0839 -0.0092 -0.0159
26317W        W41448   4.155  14.492  11.688 -0.0739 -0.1286 -0.2722
26318W        W41449  12.730  18.488   3.266 -0.2273 -0.0874 -0.1344
26319W        W41450   0.301   1.194   1.192 -0.1082 -0.1298 -0.0180
26320W        W41451  15.216  13.530  13.459  0.1139 -0.4677 -0.1183
26321W        W41452  15.499   9.713  13.293  0.1587  0.1602 -0.0899
26322W        W41453  11.048  15.012   0.457  0.0388  0.1942 -0.2281
26323W        W41454   4.512   6.466  14.882  0.1787 -0.0861 -0.0627
26324W        W41455   1.166   5.409  11.249  0.1309  0.1413  0.1257
26325W        W41456   6.969   6.860  10.888  0.1415  0.6220  0.2466
26326W        W41457  11.646   3.056   4.890  0.1303 -0.3851 -0.0204
26327W        W41458   8.439  17.350  13.384 -0.0729 -0.2030  0.2538
26328W        W41459  15.848  17.375  15.492 -0.1450  0.1113  0.0293
26329W        W41460   5.309  12.995  12.180  0.0875  0.4820 -0.0421
26330W        W41461   8.882   4.499   3.932 -0.0321 -0.2354 -0.3620
26331W        W41462   0.422   8.486   2.917 -0.0422 -0.1753 -0.2691
26332W        W41463  11.569  11.275  12.014 -0.0844  0.1021  0.0256
26333W        W41464  15.245   2.346  14.688  0.1678  0.0170  0.1220
26334W        W41465   3.664  12.277  14.747 -0.4062  0.0535  0.0607
26335W        W41466   0.130   3.537   6.516 -0.0992 -0.2416  0.2637
26336W        W41467  18.041  10.998   0.039 -0.1031  0.3828 -0.0366
26337W        W41468   6.470   2.972   4.574  0.3761  0.0248 -0.2603
26338W        W41469   1.287  12.963  15.225 -0.0347 -0.3001 -0.2425
26339W        W41470  15.632   4.644  15.217 -0.0014 -0.0899 -0.0023
26340W        W41471   9.039  18.086   0.980  0.0763 -0.0060  0.2320
26341W        W41472  13.813   4.507   3.335  0.1291  0.0087  0.0847
26342W        W41473   2.263   8.192  12.905  0.1744  0.3677 -0.0714
26343W        W41474   3.204   5.743  15.078 -0.0458 -0.0023 -0.1887
26344W        W41475  14.441   1.472   1.852  0.0061 -0.0396 -0.2649
26345W        W41476   7.639   1.289   3.853 -0.0601  0.1138  0.3568
26346W        W41477   1.286  12.858   1.228  0.0207 -0.2996  0.0868
26347W        W41478   0.379   4.314   2.534 -0.0453  0.0136  0.1305
26348W        W41479   4.503   7.405  13.384 -0.1517 -0.1504  0.0090
26349W        W41480   5.017   8.670  15.022  0.1038  0.1445  0.2565
26350W        W41481   9.265  10.928   0.733 -0.0594  0.1832 -0.1133
26351W        W41482   3.820   0.843   3.368  0.0294  0.0143  0.0614
26352W        W41483  11.486   2.212   5.151  0.2294 -0.0143  0.0144
26353W        W41484   9.670   5.557  14.468  0.0500 -0.1438 -0.2573
26354W        W41485  10.146  17.136  11.101 -0.1861  0.2253 -0.1786
26355W        W41486  12.232   6.573   4.022  0.1532 -0.2835 -0.1690
26356W        W41487   8.887   3.981  10.758  0.2006 -0.0606 -0.1583
26357W        W41488   6.533   8.174  15.271 -0.2058  0.4141 -0.1693
26358W        W41489  12.913  10.904   3.959  0.1821 -0.0860 -0.2315
26359W        W41490  11.666  11.768  14.739  0.0970  0.0719  0.1339
26360W        W41491   4.233  16.116  14.981  0.1142 -0.0485  0.4134
26361W        W41492  14.980   7.807   2.750 -0.1567 -0.0183 -0.0981
26362W        W41493   7.031  11.764   2.465  0.0504  0.0112 -0.2078
26363W        W41494  12.725   0.059   2.346 -0.0057  0.2322 -0.2047
26364W        W41495  17.132   0.004   3.286 -0.0203  0.0678  0.0006
26365W        W41496  17.072  10.812   5.289  0.2909  0.0849  0.1415
26366W        W41497   4.294   6.508   0.123 -0.0703 -0.0564 -0.1668
26367W        W41498   5.431   5.154  11.518 -0.1003 -0.1888 -0.1533
26368W        W41499  15.531  11.791   0.566  0.4058 -0.1584  0.1047
26369W        W41500   8.214  16.890  13.675 -0.0992  0.1257 -0.0052
26370W        W41501   3.215   5.923  12.469 -0.7461 -0.0306 -0.0771
26371W        W41502  16.584  15.576  14.622 -0.2785  0.0780  0.0880
26372W        W41503  12.223   2.545  12.098  0.0961 -0.1452 -0.0215
26373W        W41504   1.638   4.837   5.532 -0.4089 -0.0029 -0.3339
26374W        W41505  18.094   9.477   3.571  0.1890  0.1742 -0.1211
26375W        W41506   0.538   7.465   0.977 -0.1468 -0.0418  0.0686
26376W        W41507  16.785   0.121   0.331 -0.1297 -0.0200 -0.1228
26377W        W41508   4.813   2.693   4.295 -0.1508 -0.1686  0.0089
26378W        W41509   5.818  12.118  13.670 -0.2449  0.0804 -0.0008
26379W        W41510   5.569   3.895  14.118 -0.0065 -0.0501  0.2060
26380W        W41511  16.936  10.170  15.661 -0.0644  0.3274  0.0637
26381W        W41512  18.130   3.396  15.602  0.1129 -0.0475 -0.1582
26382W        W41513   7.155   9.697   0.259  0.3247 -0.1260  0.0575
26383W        W41514   5.040  18.311   1.679  0.5439 -0.2508  0.1025
26384W        W41515  10.987  14.192  13.445  0.0784  0.0883 -0.0285
26385W        W41516   2.441  14.314   0.988 -0.0169  0.1733  0.2591
26386W        W41517  13.942  14.095  14.685 -0.0782 -0.3448  0.1289
26387W        W41518  13.012  15.286   4.341 -0.1904  0.1907  0.2173
26388W        W41519  10.860  16.827   4.827  0.0947  0.3189 -0.0265
26389W        W41520   0.920  14.804  11.009  0.0529 -0.2924  0.2152
26390W        W41521   6.290  14.897  10.391  0.0870  0.0752 -0.1223
26391W        W41522   5.498  15.587   0.164  0.0163  0.0925  0.0094
26392W        W41523   0.645   8.165  10.319  0.0878  0.0421 -0.0780
26393W        W41524   7.616   6.214   4.023  0.0313 -0.0008  0.0338
26394W        W41525   0.729   7.862   2.804  0.2027  0.1533  0.2574
26395W        W41526  14.600  16.728  13.328 -0.2115  0.0821 -0.0522
26396W        W41527  10.830  11.156  14.699 -0.2227  0.0424  0.1353
26397W        W41528  12.893  14.900   2.808  0.3218  0.1423 -0.0589
26398W        W41529   9.111  16.718   3.153 -0.0342  0.2976  0.1454
26399W        W41530   5.288  17.029   2.900 -0.0357 -0.1567 -0.1087
26400W        W41531   5.543   7.020   1.486 -0.0949 -0.3318 -0.0946
26401W        W41532  18.397   2.109   3.298  0.0940  0.0507  0.4725
26402W        W41533   5.679   3.225   0.954  0.1074 -0.2454  0.1370
26403W        W41534   9.097  15.194  10.779 -0.2014 -0.1875 -0.0383
26404W        W41535   1.514   0.229   3.395  0.0519  0.2374 -0.0996
26405W        W41536   6.297  12.543   2.263  0.1616  0.1801  0.1290
26406W        W41537  16.304  15.106   0.784  0.2423 -0.1585 -0.0860
26407W        W41538   3.579   4.365   4.763  0.1334  0.0329 -0.1545
26408W        W41539  13.593   1.385   0.182 -0.0455  0.1682 -0.0534
26409W        W41540  14.490  18.029  12.999 -0.0527  0.1042 -0.1680
26410W        W41541   1.890   6.808  13.720  0.1126 -0.0196 -0.1177
26411W        W41542   9.446   6.026  13.257  0.1032 -0.4360 -0.2991
26412W        W41543  11.541   7.902  13.295 -0.1643 -0.0021  0.1529
26413W        W41544   9.390   7.013  10.396 -0.0817  0.1849  0.1540
26414W        W41545  16.790   3.770   5.853  0.0427  0.1005  0.0426
26415W        W41546  13.359  17.289   3.803  0.0632 -0.2613 -0.0259
26416W        W41547   2.964   2.298   4.739 -0.0487  0.1228  0.0384
26417W        W41548   0.233  10.577   2.359 -0.1699  0.1669  0.2843
26418W        W41549   2.618  17.112  14.639  0.3047  0.2018  0.0189
26419W        W41550   7.692  11.404  14.114 -0.1354 -0.2361 -0.3013
26420W        W41551  18.572   4.674  10.591 -0.0132  0.1656  0.1362
26421W        W41552   5.445  11.256  15.294 -0.0672  0.1450 -0.2917
26422W        W41553  11.681  14.997  12.527  0.0598  0.0603 -0.1830
26423W        W41554  12.154   6.902  13.182  0.1886 -0.1980  0.3450
26424W        W41555   9.760   9.815   0.137 -0.1587  0.0917  0.2645
26425W        W41556  13.809   6.267  13.944  0.1254  0.1537 -0.0440
26426W        W41557   4.301   4.976   6.116 -0.1448  0.0314  0.0917
26427W        W41558   5.109  17.518   4.233  0.0136 -0.0533  0.1518
26428W        W41559   2.228   8.621  12.177 -0.2175  0.1397  0.0085
26429W        W41560  11.638   3.231  10.761  0.1507  0.0146 -0.1072
26430W        W41561  16.223   8.271   2.620 -0.1987 -0.4463 -0.2521
26431W        W41562   2.295   7.749   5.362 -0.2365  0.1894  0.1765
26432W        W41563   1.893   0.453   0.702 -0.1894  0.0056  0.0357
26433W        W41564   2.018  16.699  13.014  0.2022  0.1736  0.0136
26434W        W41565   5.639  10.108  11.215 -0.0036 -0.0461 -0.0015
26435W        W41566   7.724  16.506   3.633 -0.2740  0.0184  0.1627
26436W        W41567   5.707   9.362   2.450  0.0842 -0.0419  0.1162
26437W        W41568   5.741  17.088  15.574  0.0125 -0.1158 -0.0420
26438W        W41569   4.260   1.802  10.918  0.1201 -0.2043  0.0170
26439W        W41570   1.357  17.862   0.275  0.0972 -0.1830  0.0601
26440W        W41571   4.409  14.173   4.128  0.3561 -0.2274  0.0749
26441W        W41572   6.185   7.382  14.972 -0.2328  0.1328 -0.1267
26442W        W41573  17.541   6.398   5.197 -0.0161 -0.4321 -0.2123
26443W        W41574   4.588  17.015  13.632 -0.0592 -0.0944 -0.2507
26444W        W41575  11.438   4.322   0.606  0.2553 -0.0850  0.1020
26445W        W41576   2.726   9.259   2.355  0.0328 -0.1582  0.0809
26446W        W41577  16.822   8.718   1.765  0.1537  0.1030  0.0472
26447W        W41578   2.906  17.870  15.730  0.1235 -0.1138 -0.1426
26448W        W41579  13.899   6.158   3.098 -0.1883 -0.1153 -0.0436
26449W        W41580  11.174   2.157  14.921 -0.2848 -0.2033  0.0920
26450W        W41581  10.942  10.240   3.425  0.0745 -0.0788 -0.1155
26451W        W41582   3.713   2.720  11.685  0.0975 -0.0632  0.1979
26452W        W41583   8.870   3.533  10.923  0.2527  0.1622  0.3233
26453W        W41584  11.020   6.620   5.716  0.0332 -0.1532  0.4297
26454W        W41585  16.040  16.986   3.667  0.0050 -0.0086  0.0955
26455W        W41586   8.875  18.125  11.461  0.0742 -0.0525  0.2419
26456W        W41587   1.629   2.580   4.496  0.0557 -0.0404  0.0929
26457W        W41588  11.806  14.982   4.983 -0.3799  0.0409 -0.1271
26458W        W41589   2.471   2.747   1.939 -0.0241  0.2187 -0.2196
26459W        W41590  10.047  14.405  15.552  0.3267 -0.1459 -0.0449
26460W        W41591   8.221  16.472   2.637  0.0573  0.1174 -0.0204
26461W        W41592   9.913  17.537  10.862  0.0357  0.0487 -0.1392
26462W        W41593   8.162  11.939   5.371  0.0173 -0.0895 -0.0161
26463W        W41594  17.680   4.102   1.619  0.0859  0.0646 -0.2050
26464W        W41595  16.541   1.361  12.868 -0.1280 -0.0838 -0.1884
26465W        W41596   6.402   0.031   3.272 -0.1569 -0.0166  0.1192
26466W        W41597   4.864   7.546   0.069  0.1497 -0.1446 -0.0987
26467W        W41598   5.957  11.973  15.800 -0.0279  0.1262  0.1243
26468W        W41599  10.474   2.360  13.113  0.1583  0.1682 -0.1520
26469W        W41600   6.370  17.233   1.654  0.3568 -0.2931  0.2277
26470W        W41601  14.276   1.929   3.626 -0.0103  0.0706 -0.0995
26471W        W41602  12.332   3.515  11.413  0.0436 -0.1836  0.1919
26472W        W41603   7.838   8.713   3.158  0.2675  0.0151  0.0075
26473W        W41604   5.157  13.610  10.692 -0.1543  0.2002 -0.4232
26474W        W41605   8.173   2.577   4.198  0.1229 -0.1958  0.0644
26475W        W41606   4.271   3.556  11.580 -0.3867 -0.2660 -0.0202
26476W        W41607  11.993  11.147  13.351 -0.5210 -0.2215 -0.1790
26477W        W41608   4.524  16.233  11.305 -0.2523 -0.0525  0.3622
26478W        W41609   9.717   5.536   1.954 -0.1968  0.1378 -0.2710
26479W        W41610  15.062   4.349  12.545 -0.0537 -0.0379 -0.3997
26480W        W41611   7.356   4.703   3.880 -0.0190  0.0440  0.0363
26481W        W41612   7.615   4.089   2.206 -0.1976 -0.1070  0.0828
26482W        W41613   9.641   7.143   0.628  0.1354  0.2050  0.0672
26483W        W41614   5.563  17.827   4.366 -0.1367  0.2107  0.2004
26484W        W41615  14.646   5.964  10.639 -0.0110  0.1433 -0.0151
26485W        W41616   5.294   4.465  12.015 -0.0643 -0.0538  0.2315
26486W        W41617   3.473   9.980  11.801  0.3262 -0.1551  0.0133
26487W        W41618   4.250   9.403   4.223  0.2617 -0.1952 -0.0681
26488W        W41619  14.899  11.941   5.600  0.0996 -0.1132  0.1945
26489W        W41620   8.363   5.026   4.346 -0.2342  0.0939  0.1856
26490W        W41621   8.438   6.992   2.899 -0.2634  0.0100 -0.0992
26491W        W41622   4.701   4.564  13.203 -0.2288 -0.2109  0.0734
26492W        W41623   7.781  11.377   4.870  0.4578  0.1534 -0.0303
26493W        W41624   6.267   8.987  10.300  0.1096 -0.3031 -0.1154
26494W        W41625  13.329  18.308  12.789  0.0962 -0.0008 -0.2562
26495W        W41626   6.715   3.805   1.261 -0.1556 -0.1291 -0.1346
26496W        W41627  16.243  14.421   4.514  0.1158  0.2331  0.0440
26497W        W41628  16.203  14.766  12.789  0.1567  0.0898  0.2092
26498W        W41629  14.922   8.871   3.816 -0.1101 -0.1151 -0.2013
26499W        W41630   9.584   8.427  13.816 -0.0521  0.0663 -0.1784
26500W        W41631  13.972  11.719   4.661 -0.1273 -0.1668  0.1067
26501W        W41632   3.043   9.037   3.604 -0.2316 -0.1798  0.1681
26502W        W41633  12.445   9.499  11.148  0.1942  0.2084  0.1818
26503W        W41634   9.846   9.522  12.759  0.0345  0.2851  0.2771
26504W        W41635  18.331  11.718   5.450 -0.0574  0.1302  0.2042
26505W        W41636   6.818  15.505  10.108 -0.0933 -0.0686 -0.0743
26506W        W41637   1.607   1.502  13.191 -0.0299 -0.0607  0.0600
26507W        W41638  14.907   0.822  13.534  0.0349  0.3034  0.2302
26508W        W41639   0.437   6.094   4.703  0.2182 -0.1355 -0.1546
26509W        W41640   8.415  16.094   4.018  0.0887 -0.2741  0.1898
26510W        W41641  11.793   1.265  15.037  0.0685  0.1236 -0.0372
26511W        W41642   5.590  16.808  14.146  0.2428  0.1584 -0.1232
26512W        W41643  12.047  17.705   1.487 -0.0850 -0.2126 -0.2149
26513W        W41644   8.607   2.402  10.967  0.0568  0.2487 -0.0190
26514W        W41645   0.633  11.942   2.059  0.0206  0.0984 -0.1278
26515W        W41646   8.410  15.156   2.787  0.2742  0.2145  0.1479
26516W        W41647  17.041  10.738  14.653  0.0429  0.3972 -0.0463
26517W        W41648   1.798  10.911  12.024 -0.2339  0.3934  0.2798
26518W        W41649  14.305  13.274   4.664  0.3227  0.5275  0.2964
26519W        W41650   2.340   2.751   1.087  0.0099  0.2493 -0.0927
26520W        W41651  16.337   5.835   6.344 -0.2170  0.1933 -0.0020
26521W        W41652  11.182  11.551  12.249  0.0586  0.0188  0.0783
26522W        W41653  12.095   4.436   4.917  0.1557  0.2937  0.0708
26523W        W41654   3.903  12.616  11.752 -0.3109 -0.0220  0.3174
26524W        W41655  10.782  13.616   4.059 -0.0498 -0.1005 -0.2000
26525W        W41656  11.429  13.020  12.450 -0.0208 -0.0012 -0.1326
26526W        W41657   5.760   4.451   3.243 -0.1070  0.2889  0.0342
26527W        W41658   0.243   1.466   5.703 -0.2246  0.2794  0.0323
26528W        W41659   1.700  16.033   3.186  0.3168  0.2175 -0.3275
26529W        W41660   1.611  16.777  14.473  0.1441  0.0562 -0.0716
26530W        W41661   9.998   7.054  13.913 -0.1224 -0.0430 -0.2371
26531W        W41662  16.046  16.203  14.766 -0.1144 -0.3341  0.0688
26532W        W41663   9.646   2.606   5.278  0.1450 -0.0258 -0.0535
26533W        W41664  17.515  16.628   0.427  0.1186  0.1711 -0.4262
26534W        W41665   6.831  12.514   0.923  0.1089  0.1272 -0.1840
26535W        W41666   3.716  18.356  12.638 -0.0335 -0.2554 -0.1674
26536W        W41667   0.247  11.607   3.481  0.1750  0.2996  0.0588
26537W        W41668   4.631  16.368  14.187 -0.0394 -0.2194  0.0189
26538W        W41669  15.702  13.750   0.589  0.1211 -0.1163  0.0920
26539W        W41670   6.121  16.291  14.473 -0.1343  0.2902 -0.0432
26540W        W41671   4.486   5.520  14.587 -0.0150  0.0500  0.2083
26541W        W41672   7.254   5.648  12.242 -0.2794 -0.1739  0.0912
26542W        W41673   1.147   6.656  14.153  0.1207  0.3166 -0.1443
26543W        W41674  17.887   8.572  11.678 -0.1600 -0.1775 -0.1037
26544W        W41675   5.364   7.406  13.731 -0.0877  0.0728  0.2408
26545W        W41676   1.380   8.325  10.968 -0.1968 -0.0498  0.0856
26546W        W41677   5.804   5.260   2.203  0.1406 -0.0254 -0.1013
26547W        W41678   7.217  10.990  10.947  0.3282 -0.0517  0.1999
26548W        W41679  14.798   3.292   0.617  0.2617  0.0138  0.0765
26549W        W41680   8.560  14.005   9.707 -0.2317 -0.2394 -0.3126
26550W        W41681  12.083   1.894   2.471  0.1258 -0.0631  0.2007
26551W        W41682  17.279   7.022  12.617  0.1516  0.0617 -0.2477
26552W        W41683   0.645   7.993   4.705 -0.1722 -0.0491 -0.0585
26553W        W41684  10.409  15.178   1.527  0.0973 -0.2545  0.1565
26554W        W41685   7.731   2.830   4.916 -0.0253 -0.1051 -0.4049
26555W        W41686  11.939   4.342  12.073  0.0364 -0.2071 -0.4055
26556W        W41687  14.817   1.798  15.454 -0.0087 -0.2187  0.0150
26557W        W41688   9.746   6.937  12.158 -0.1048 -0.0662  0.2066
26558W        W41689  11.318  12.932  11.460  0.0643  0.1499 -0.3902
26559W        W41690  10.017  12.190  13.910 -0.2099  0.3505  0.1766
26560W        W41691  10.483  17.242  11.821  0.2094 -0.3159  0.0705
26561W        W41692   6.113  18.371  13.550  0.0610 -0.0815  0.1172
26562W        W41693  12.726   7.398  11.090 -0.1439  0.1359  0.1014
26563W        W41694  11.422   9.133  15.224  0.1761 -0.1360 -0.4658
26564W        W41695  12.470   8.596  12.967  0.3185 -0.2924  0.0456
26565W        W41696   6.841   0.087   0.417 -0.1429  0.0782  0.5836
26566W        W41697   3.675  16.722   3.941  0.0116 -0.1132  0.1370
26567W        W41698   1.121   9.050   5.187 -0.0089 -0.1624 -0.0101
26568W        W41699  17.598  10.143   1.769  0.1514  0.0235 -0.0004
26569W        W41700   4.335   1.871   3.525 -0.0919  0.1335 -0.1338
26570W        W41701   3.358  12.782   2.652 -0.1609  0.3104  0.3303
26571W        W41702  15.819   6.538   0.587  0.2551  0.2456  0.1842
26572W        W41703   2.305   1.143   1.582 -0.5037  0.1387  0.0565
26573W        W41704  18.014  13.700  11.467 -0.1056 -0.0646 -0.2915
26574W        W41705  15.435   7.753   1.585 -0.1250 -0.0441  0.1111
26575W        W41706  12.908   9.520  12.914 -0.0808  0.0936  0.1285
26576W        W41707  17.507   4.478  10.766 -0.1722  0.0271  0.3339
26577W        W41708  13.387  12.079   2.804  0.1641  0.2918  0.2390
26578W        W41709   3.695   5.117   1.307 -0.0804  0.0110  0.1056
26579W        W41710   6.660  12.687   4.740  0.1129 -0.3013  0.1115
26580W        W41711  14.690  13.440   0.862  0.1109  0.2012 -0.2260
26581W        W41712  10.644   0.215   3.445 -0.0871  0.1575 -0.0459
26582W        W41713   7.211  13.386   2.063  0.0100 -0.1574 -0.0076
26583W        W41714   0.936  14.054   2.789  0.1123 -0.2581  0.0889
26584W        W41715  18.126   6.044  12.219  0.1873 -0.0000  0.0041
26585W        W41716   4.767   4.882  15.135 -0.0356  0.1382  0.0691
26586W        W41717  10.014   0.398  15.531 -0.0891 -0.0041  0.0230
26587W        W41718  14.638  12.273   4.626 -0.2857 -0.0813  0.0288
26588W        W41719  17.453   0.536  12.497  0.2167 -0.1276  0.0866
26589W        W41720  11.654  15.906  13.403 -0.0591  0.3071 -0.1977
26590W        W41721   9.566   9.138  12.677 -0.1262 -0.1289  0.0752
26591W        W41722   2.609  16.287   1.819  0.3040  0.0662  0.3104
26592W        W41723  16.679  14.948   3.067 -0.1328 -0.3317 -0.1347
26593W        W41724   6.014  18.520   3.918  0.3485 -0.2627  0.0049
26594W        W41725   5.113   5.032   4.838  0.3076 -0.0576  0.2641
26595W        W41726  15.717   3.436   5.408 -0.0993  0.0818  0.2054
26596W        W41727  10.325  15.019   3.918  0.0731  0.1456  0.0768
26597W        W41728   6.390   1.775   1.556 -0.4180  0.1631  0.0899
26598W        W41729  17.105  11.491  11.392  0.1433 -0.0887  0.0381
26599W        W41730  12.882   5.021   2.305  0.3200 -0.0127  0.2025
26600W        W41731  15.774   1.744  13.189 -0.2215 -0.2430 -0.1433
26601W        W41732  14.076  10.334  10.986  0.3974 -0.3489 -0.0453
26602W        W41733  10.376   1.887  12.940 -0.0496  0.1410 -0.0038
26603W        W41734   9.209   2.783   2.070  0.1898 -0.2791  0.0919
26604W        W41735   6.596   8.749  15.224 -0.5525  0.0537  0.0415
26605W        W41736   3.367  17.508   3.372 -0.0660 -0.1758  0.0177
26606W        W41737   0.647   0.516  15.115 -0.3843  0.0330 -0.4461
26607W        W41738  13.050   5.561   1.500  0.0277  0.2134  0.0960
26608W        W41739   3.870   6.154   1.570  0.0800 -0.3178 -0.1255
26609W        W41740   3.512   3.175  11.394 -0.2506  0.2932  0.2328
26610W        W41741   7.805   3.895  11.754 -0.0820  0.0870 -0.0573
26611W        W41742   2.436  14.324  13.832  0.0105 -0.1105  0.1829
26612W        W41743   6.671  14.578  13.899 -0.1200  0.0079  0.0464
26613W        W41744  14.435  14.971  12.032 -0.0848 -0.1054  0.0411
26614W        W41745   8.597  15.260  10.709  0.1218  0.1221 -0.0463
26615W        W41746   9.849   7.847  14.526 -0.1903  0.2864 -0.3941
26616W        W41747   5.315  11.956  11.466  0.2861  0.1907  0.0423
26617W        W41748   6.721  14.244   2.753  0.2729  0.2639 -0.1273
26618W        W41749  18.214   6.912   0.015 -0.2091  0.1538 -0.0654
26619W        W41750   9.746   7.618  12.693  0.1796  0.2610 -0.0247
26620W        W41751  11.984   2.020  13.134 -0.0867 -0.2151 -0.0398
26621W        W41752   1.845  14.126   0.813 -0.1212  0.1427 -0.2272
26622W        W41753  13.706  15.060   0.195 -0.0091  0.0013 -0.0549
26623W        W41754  14.503  10.810  15.489 -0.1391  0.1313 -0.0167
26624W        W41755   2.737  14.780  13.818 -0.2705  0.2453 -0.1475
26625W        W41756   2.753   9.681   5.213 -0.0100 -0.0090 -0.0787
26626W        W41757   5.027   3.784   0.778 -0.0417  0.1986 -0.0190
26627W        W41758   3.143   3.617   4.806  0.1340 -0.0007 -0.2336
26628W        W41759  10.413  10.521  13.015  0.0634 -0.0198 -0.0711
26629W        W41760   4.313  15.400   1.131  0.1758  0.2268 -0.0212
26630W        W41761  11.595  11.434  13.240 -0.0693 -0.3339 -0.2059
26631W        W41762  13.512   9.553   4.076  0.2992 -0.1054 -0.1363
26632W        W41763   6.694  15.048   1.801  0.3864 -0.3085  0.0761
26633W        W41764   2.067   8.949  10.881  0.1577  0.0150 -0.0351
26634W        W41765   2.359  13.166   2.030 -0.1297 -0.0841  0.1180
26635W        W41766  16.983  14.650  13.173 -0.0248  0.2005 -0.3496
26636W        W41767   3.316   4.549  15.166 -0.0513  0.0089 -0.1956
26637W        W41768   5.776  17.494   0.396  0.1848 -0.2761  0.1222
26638W        W41769   9.060  17.651  13.235 -0.1678 -0.1020  0.4514
26639W        W41770  12.488  14.908  15.245  0.0152 -0.4390  0.3730
26640W        W41771  17.010  17.637  15.143  0.0942  0.0430 -0.2110
26641W        W41772   9.574   1.152  15.911  0.0273  0.0524  0.1892
26642W        W41773  15.871   3.368   5.889  0.4056 -0.1192 -0.0937
26643W        W41774  16.605  10.617  14.423  0.0363  0.1290  0.2247
26644W        W41775   9.246  18.400   2.018 -0.0997  0.3113 -0.0653
26645W        W41776  11.173  18.164   0.351 -0.0007  0.2916  0.0456
26646W        W41777  12.537  10.723  12.047  0.1168 -0.2040 -0.0578
26647W        W41778  14.929   7.368  15.722  0.0943 -0.3614 -0.3179
26648W        W41779   8.758   9.752  14.843  0.0929 -0.3388 -0.0684
26649W        W41780  11.367  10.948  15.655 -0.1493 -0.1255  0.1028
26650W        W41781   6.253   1.313  13.782  0.2318 -0.0220  0.1003
26651W        W41782  10.631  12.683   0.994 -0.0824 -0.2215  0.1402
26652W        W41783  10.852  16.583  11.463 -0.0132  0.1636  0.0309
26653W        W41784  15.153  12.637  12.775 -0.1813 -0.0666  0.1092
26654W        W41785  17.383   4.103  15.719  0.1460 -0.0807 -0.1242
26655W        W41786   3.615   4.125  12.353 -0.1743  0.1561  0.0901
26656W        W41787   9.248   2.795  13.925  0.0053  0.3289 -0.0899
26657W        W41788  17.231  17.001   0.685 -0.2141 -0.5309 -0.0186
26658W        W41789   3.858   6.846   4.029  0.0275  0.0568 -0.0592
26659W        W41790   1.533  11.786  10.065  0.5978 -0.0824 -0.1821
26660W        W41791  15.973   2.859   0.206 -0.2234  0.1704 -0.0059
26661W        W41792   6.116  15.659  13.940 -0.0293 -0.0542  0.2937
26662W        W41793   7.935  14.938  10.282  0.0191 -0.0513 -0.0679
26663W        W41794  18.076  10.542  13.688 -0.0612 -0.0456  0.1683
26664W        W41795  17.505   5.542   2.942 -0.0187  0.0213 -0.1334
26665W        W41796  12.134   3.297   3.780 -0.1069 -0.3055  0.2359
26666W        W41797  13.163  16.892  15.550 -0.1667 -0.0088 -0.1638
26667W        W41798  10.165   1.054   0.860  0.2322 -0.0732  0.1793
26668W        W41799   3.151  16.479  10.485  0.0270  0.1405 -0.1348
26669W        W41800   2.535   3.305   2.512  0.0870 -0.0920  0.2494
26670W        W41801   4.049   7.690   5.734 -0.1861 -0.0943  0.1827
26671W        W41802  13.135   0.187  14.638  0.0343 -0.0797  0.0689
26672W        W41803   7.887  13.225   3.311 -0.0381 -0.0669 -0.0317
26673W        W41804  13.236   2.992   2.947 -0.1699 -0.3332  0.0416
26674W        W41805  15.197   6.362   3.960  0.0962  0.1320 -0.0946
26675W        W41806   2.625   8.662   1.011  0.0431 -0.0601  0.2155
26676W        W41807  17.470  10.756   5.625 -0.2453 -0.0013  0.5235
26677W        W41808   4.880   2.238  14.944  0.2741  0.2587  0.1434
26678W        W41809  16.893  11.969  11.484  0.0849 -0.0288 -0.0869
26679W        W41810   7.782  14.628  14.658  0.0448 -0.0373  0.1369
26680W        W41811  13.613   2.715   3.799  0.1231 -0.0683 -0.0979
26681W        W41812   8.104  17.499  15.529 -0.1798 -0.1520 -0.2616
26682W        W41813   4.097  13.826   4.060  0.0074 -0.0993 -0.1651
26683W        W41814   8.974  15.299   4.644  0.2392 -0.0263 -0.3069
26684W        W41815  12.741  11.818  10.979 -0.1353 -0.1741 -0.4285
26685W        W41816   0.769  13.257  12.473 -0.1520  0.1387  0.1817
26686W        W41817   7.608  14.008   3.962  0.0600 -0.2345  0.0953
26687W        W41818  13.228  15.322  10.580  0.2614  0.1229  0.0604
26688W        W41819  11.258   2.861   3.998  0.0805  0.3551 -0.2124
26689W        W41820  16.200   2.287   1.515  0.2192  0.0038  0.1490
26690W        W41821  18.360   0.423   0.568  0.0691  0.1515  0.1577
26691W        W41822   3.083   6.509   4.831 -0.1768  0.3603  0.2476
26692W        W41823  15.180   3.961   4.035  0.0837 -0.1351 -0.1586
26693W        W41824   7.378  11.526   4.397  0.0952  0.0876 -0.2277
26694W        W41825  13.725  16.149  12.559 -0.0041 -0.0199  0.3567
26695W        W41826  16.652   2.521   0.733 -0.2218 -0.0583 -0.3486
26696W        W41827   5.907   5.042  11.565 -0.0743 -0.3477 -0.2918
26697W        W41828   3.374  17.236   4.811 -0.2304  0.0526 -0.1034
26698W        W41829  16.396   7.310   1.841  0.0842 -0.1347  0.2402
26699W        W41830  11.934  16.682   1.520  0.1399  0.3931 -0.1143
26700W        W41831   2.772   3.740   2.080 -0.0249 -0.0816 -0.1398
26701W        W41832   9.238   7.216   2.656  0.2975 -0.1202  0.1056
26702W        W41833  13.658   0.360  15.377 -0.0022  0.1380 -0.1442
26703W        W41834  17.210  18.487   4.076  0.1712 -0.0550  0.0305
26704W        W41835   2.664   4.260  15.511  0.2519 -0.0673  0.2283
26705W        W41836  11.476   4.653   3.943 -0.2176 -0.0925  0.2612
26706W        W41837  16.272   1.980   0.288 -0.1841  0.3359  0.2501
26707W        W41838  10.747   9.549   2.613  0.0826  0.0843 -0.0712
26708W        W41839   3.002   8.779   4.068 -0.2397  0.1596 -0.0964
26709W        W41840  13.733   5.940  15.250  0.3726  0.0394  0.1311
26710W        W41841   8.696  13.109  13.110  0.1437  0.4653  0.0986
26711W        W41842   2.215  13.691  13.597  0.2635 -0.1026 -0.2423
26712W        W41843   6.047  10.481  11.518 -0.1374 -0.1737 -0.1953
26713W        W41844   7.554   6.766   1.808  0.3394  0.0651  0.0055
26714W        W41845  12.327  13.340  13.234  0.0855 -0.1944  0.1446
26715W        W41846  14.840  16.678  11.341 -0.1622 -0.0009  0.2196
26716W        W41847  16.354  10.990  13.438 -0.0800  0.0895 -0.2488
26717W        W41848   9.761  11.695  13.798 -0.3991  0.2009  0.1578
26718W        W41849  10.916   1.242  13.159 -0.2119 -0.1542 -0.1044
26719W        W41850   0.470  12.286  11.542  0.1486 -0.0906 -0.0305
26720W        W41851  16.958  18.087   6.267  0.1046 -0.2046 -0.0856
26721W        W41852   6.150   4.240   4.106 -0.2651  0.1500  0.1093
26722W        W41853   6.214   7.285   0.174  0.2745 -0.0446 -0.2295
26723W        W41854   0.495   2.293  13.334  0.5077 -0.1440  0.0637
26724W        W41855   1.244  15.505  13.081  0.1356 -0.1048  0.0414
26725W        W41856  13.917   9.278   1.249 -0.1041  0.5022  0.0492
26726W        W41857   1.223   8.845   3.005  0.1891  0.1218  0.0243
26727W        W41858  13.355  11.924   2.195 -0.0707 -0.4186 -0.1124
26728W        W41859   5.965  16.605   3.148  0.0423 -0.1867  0.2553
26729W        W41860   0.060  17.282   2.308 -0.3534 -0.1272  0.2106
26730W        W41861   8.226  16.638  12.864  0.2116 -0.0001  0.1078
26731W        W41862  13.763   9.743   0.776  0.0695 -0.0606  0.0963
26732W        W41863  15.703  12.185   1.445 -0.0156 -0.0933  0.2039
26733W        W41864   3.214  14.499   4.221  0.2826 -0.0873 -0.2153
26734W        W41865  11.874   5.808   3.377  0.2631  0.0314  0.0565
26735W        W41866   6.910   4.710  10.407  0.2881  0.1398 -0.0432
26736W        W41867  13.319  17.751  15.472  0.2052  0.1651 -0.2396
26737W        W41868   0.005  12.518   1.394 -0.2727  0.0790  0.0196
26738W        W41869   2.058   1.603   2.999 -0.0262  0.3343  0.0184
26739W        W41870   4.564  10.679  14.074 -0.1421  0.1118 -0.1543
26740W        W41871   6.439   0.769  11.358  0.0846 -0.1675 -0.1347
26741W        W41872   1.035   5.956  13.380  0.0844 -0.3538 -0.0837
26742W        W41873  11.773   3.788  12.226 -0.0067 -0.1728  0.0117
26743W        W41874   3.734   6.930   4.649 -0.5328 -0.2341 -0.2072
26744W        W41875  15.481  10.416   1.083  0.0650 -0.2730 -0.3208
26745W        W41876   3.132  17.895   3.089 -0.0993  0.0309 -0.1594
26746W        W41877   7.010   1.075  14.540 -0.3910  0.0370 -0.4826
26747W        W41878   9.130  15.746   4.841 -0.0028  0.1474 -0.1246
26748W        W41879  12.605  14.777   3.590  0.0290  0.3720 -0.0289
26749W        W41880   9.599  15.352   0.879  0.0115 -0.1549 -0.3266
26750W        W41881   0.819  11.771  10.965 -0.3267 -0.1500 -0.0508
26751W        W41882   8.938   2.502   5.167 -0.0871 -0.0443  0.1646
26752W        W41883   5.892   5.848   1.479  0.1069 -0.2126 -0.0727
26753W        W41884   4.881  16.049  11.744  0.0761  0.0639  0.2055
26754W        W41885   1.895  13.294   2.143  0.3449 -0.2782 -0.3094
26755W        W41886  13.515   4.465   2.060  0.0454  0.2260  0.2432
26756W        W41887  10.887  14.512  11.658 -0.2321 -0.2507  0.0600
26757W        W41888   2.367   4.950   2.604  0.2726 -0.2043  0.2414
26758W        W41889  10.682   8.637  15.908 -0.1210 -0.0712 -0.1729
26759W        W41890  11.749  14.630  13.796 -0.0587  0.2473 -0.1134
26760W        W41891  10.479  16.632  14.673 -0.0190 -0.1243  0.0270
26761W        W41892   1.212   2.968  13.622 -0.0916  0.0993 -0.2279
26762W        W41893  12.582  14.470  12.344  0.0345 -0.0950  0.0180
26763W        W41894  12.619   6.785  10.439  0.0483 -0.0277  0.1388
26764W        W41895  17.008   0.839  15.423 -0.0940  0.0889 -0.0143
26765W        W41896  12.989  17.394   5.196 -0.1374  0.0877  0.2390
26766W        W41897  16.374  12.282   5.246 -0.2565  0.1314 -0.3020
26767W        W41898   5.882   8.665   2.143  0.2849  0.3739  0.0761
26768W        W41899  15.567  11.025   3.503 -0.0422  0.1903 -0.1575
26769W        W41900   7.684  14.221  12.140 -0.0646  0.1330 -0.1055
26770W        W41901  12.096  13.558  11.125 -0.0306  0.2396 -0.0042
26771W        W41902   9.452   9.431   4.883 -0.3056  0.1131 -0.2567
26772W        W41903  10.304  18.302  14.561  0.0525  0.1301  0.2480
26773W        W41904   3.473   8.182  14.157 -0.0546 -0.7048 -0.0885
26774W        W41905  11.479   6.545   1.886 -0.0967 -0.2863  0.0829
26775W        W41906  12.461  11.539  13.235 -0.1241 -0.1057  0.0443
26776W        W41907   6.216  13.354  14.170  0.3635 -0.2493  0.3326
26777W        W41908   7.163  15.927   3.870  0.2563 -0.3670 -0.4024
26778W        W41909  12.706   1.056  15.668 -0.0643  0.0593  0.1453
26779W        W41910   5.946   1.760   3.370  0.2202 -0.0184  0.3070
26780W        W41911   0.937   5.599  12.480 -0.0126 -0.0512  0.4040
26781W        W41912  14.637   4.493  14.034 -0.4791 -0.0444  0.1524
26782W        W41913  10.675   3.019   1.695  0.2370 -0.1076  0.1594
26783W        W41914  11.835   5.056  13.046  0.1524 -0.1078 -0.1847
26784W        W41915   6.299  11.169  15.787 -0.0608 -0.1129 -0.0111
26785W        W41916  13.206   0.118  10.880  0.0810  0.1366  0.0014
26786W        W41917   2.482  15.572  14.799  0.0031 -0.1051 -0.0993
26787W        W41918  10.727  18.234  11.556  0.0235 -0.1301 -0.4223
26788W        W41919  13.131  17.313  11.646  0.2707 -0.2188 -0.0152
26789W        W41920   3.734  18.019   1.267  0.0762 -0.0248  0.0023
26790W        W41921   1.908   5.670  15.104 -0.1056  0.1821  0.0531
26791W        W41922  15.094  10.450  11.679  0.1973 -0.1450 -0.1541
26792W        W41923  11.287   8.297  11.256 -0.0118 -0.1629 -0.2678
26793W        W41924  17.994   1.938  14.202  0.1167 -0.0065  0.3286
26794W        W41925   3.723   9.749   2.187  0.0711 -0.2216 -0.1768
26795W        W41926  16.907   6.532   4.594  0.2843  0.0896  0.1534
26796W        W41927   6.733  14.737  10.450  0.1033 -0.0312 -0.3485
26797W        W41928  15.094  17.829  11.378  0.3113 -0.0045  0.0020
26798W        W41929  15.155  11.493   4.318  0.1084 -0.0856 -0.2641
26799W        W41930  17.506   6.926  11.177  0.1059 -0.0985  0.0887
26800W        W41931  10.974  17.310   4.793  0.0523 -0.0736  0.1025
26801W        W41932   3.904  18.118  10.623  0.1265 -0.1973 -0.1165
26802W        W41933   1.416   8.680  11.296 -0.0183  0.0713 -0.1319
26803W        W41934   7.654   8.647  11.083  0.1256 -0.1039  0.1573
26804W        W41935  13.807  15.868   4.752 -0.0734 -0.2318 -0.1265
26805W        W41936   3.868   5.715   5.037 -0.1093 -0.2143  0.3487
26806W        W41937  12.158  12.476   4.063  0.2107  0.0044 -0.0571
26807W        W41938   8.036  14.828   3.811  0.1928  0.2030 -0.2743
26808W        W41939  11.818  12.040  10.760  0.3113 -0.0880  0.0336
26809W        W41940   5.956   0.452  13.766 -0.1749 -0.0315 -0.3955
26810W        W41941   4.488  16.021  12.518 -0.1195  0.1269  0.3256
26811W        W41942   4.759   6.131  12.753 -0.0130 -0.0775 -0.2871
26812W        W41943   3.165  10.118  15.322 -0.1365  0.3458  0.1420
26813W        W41944   3.127  16.208  12.529  0.2708 -0.2382 -0.0510
26814W        W41945  11.879   6.504  12.985  0.0289  0.2754 -0.1433
26815W        W41946   6.203  18.346   0.022 -0.4400 -0.1077  0.1666
26816W        W41947  13.512  11.923   3.892 -0.0536 -0.1314  0.0235
26817W        W41948  17.965  15.477   3.079  0.0727 -0.2984  0.1280
26818W        W41949  16.981  18.439   5.877  0.1842  0.0062 -0.2433
26819W        W41950   7.161  15.910  10.744 -0.1191 -0.0862 -0.0731
26820W        W41951   2.833  12.340   5.513 -0.1260 -0.0361  0.0771
26821W        W41952  16.739   4.892   5.054 -0.0307 -0.1974 -0.2174
26822W        W41953   2.221   6.846   5.599  0.0251 -0.3036 -0.3628
26823W        W41954   1.854  10.522  10.845  0.0184  0.2862  0.0874
26824W        W41955   2.943  17.724   4.915 -0.3103 -0.2042 -0.0592
26825W        W41956   5.101   7.260   3.714 -0.2428  0.0195 -0.2570
26826W        W41957  13.924  10.287   1.547 -0.1529  0.0089 -0.1219
26827W        W41958  14.961  15.418  15.624 -0.0733 -0.1393  0.3139
26828W        W41959   2.298   0.301   0.920 -0.0800 -0.1153 -0.1858
26829W        W41960   2.613   4.425   9.957 -0.3189 -0.0837 -0.0857
26830W        W41961  12.237   6.921  15.750  0.0333 -0.0427  0.2200
26831W        W41962   7.971   0.581  13.758 -0.0548 -0.0899 -0.0769
26832W        W41963  14.405  15.651   2.738 -0.0422 -0.1180  0.1884
26833W        W41964  16.988   7.821  14.954 -0.2152  0.0868 -0.4016
26834W        W41965   9.038   8.393   3.583 -0.2184  0.0445  0.2051
26835W        W41966  18.299   7.958   2.533 -0.0689 -0.1233  0.1302
26836W        W41967  13.733   8.625   1.958 -0.0622  0.2709  0.1478
26837W        W41968   7.534   6.145   2.425 -0.0263 -0.5540 -0.4086
26838W        W41969  11.139  15.188  12.345  0.1080  0.3149  0.1224
26839W        W41970  12.752   6.732   3.747  0.0558  0.2266  0.3649
26840W        W41971   7.678  12.140  11.876  0.1150 -0.0413 -0.1697
26841W        W41972   7.978   4.227  14.290  0.0124  0.1536  0.1059
26842W        W41973  18.187  16.817   5.095 -0.0350 -0.1827  0.1607
26843W        W41974  16.797   8.107  14.538 -0.2292  0.2660  0.2901
26844W        W41975   5.199  17.504   4.699  0.1576 -0.2350  0.1355
26845W        W41976   8.148   6.032  12.161 -0.2163  0.0189 -0.2692
26846W        W41977   8.087   3.908   4.856 -0.2005  0.3348  0.3466
26847W        W41978  15.562   7.282  10.472 -0.0617 -0.0970 -0.0712
26848W        W41979  11.933  12.368  13.781 -0.0722 -0.2263  0.0216
26849W        W41980  18.385  16.408  12.110 -0.1052 -0.1058 -0.1694
26850W        W41981   8.647   0.504  10.175  0.0309  0.1627  0.3365
26851W        W41982   0.256  12.907   5.315 -0.2884  0.0206 -0.0483
26852W        W41983   0.667  16.325   0.070 -0.0715 -0.0410  0.1530
26853W        W41984   1.682   2.267  11.884 -0.0868  0.0020  0.2562
26854W        W41985   5.607   9.202   1.671  0.0124 -0.1748  0.0371
26855W        W41986  14.588   0.499  15.605 -0.2822  0.3563  0.4134
26856W        W41987  17.376  14.565   3.489 -0.2480  0.2282 -0.2512
26857W        W41988  14.631   2.204  15.056  0.2654  0.0013 -0.1562
26858W        W41989   8.713  18.230  11.020  0.1161 -0.3880 -0.1792
26859W        W41990  13.804  10.568   5.618 -0.2366 -0.2349  0.1696
26860W        W41991   2.939   8.421  13.723  0.0591 -0.2593  0.0671
26861W        W41992  13.023   0.396  11.894 -0.1172  0.1640 -0.0728
26862W        W41993   5.755  11.809   0.433  0.4517 -0.2767 -0.0190
26863W        W41994   7.774  18.369   2.256  0.1998  0.0014  0.0821
26864W        W41995   2.734   3.065  11.736  0.1825  0.0788 -0.0376
26865W        W41996   0.958   9.553  13.625 -0.2096 -0.4515  0.0683
26866W        W41997  17.245  11.042  15.305  0.1022 -0.0036 -0.0612
26867W        W41998  16.209  13.419   2.833 -0.1038 -0.1436 -0.0477
26868W        W41999  15.362   0.786   1.403 -0.0912 -0.0725  0.2552
26869W        W42000   5.729   9.663   1.511  0.0433  0.1275  0.0774
26870W        W42001   5.037   9.608   0.912 -0.1484  0.0461 -0.4099
26871W        W42002   0.704  16.167   2.778  0.4780  0.0923 -0.0780
26872W        W42003   5.003   6.909  10.916  0.2100 -0.0245 -0.1545
26873W        W42004   7.189   7.680   4.424  0.1146  0.1048 -0.2446
26874W        W42005  17.530   2.879   3.110 -0.2112  0.0209 -0.3465
26875W        W42006   0.904   3.595  15.558  0.1993 -0.0724 -0.0920
26876W        W42007   4.417   9.279   1.802  0.3761 -0.0206  0.1450
26877W        W42008  11.266   7.531   2.054 -0.1378 -0.1940 -0.2165
26878W        W42009  14.555   7.312  10.791  0.1039  0.0887  0.3047
26879W        W42010   9.522   5.493  13.370  0.0966 -0.2000  0.0856
26880W        W42011   9.025   3.835  13.461 -0.0565 -0.1377 -0.0371
26881W        W42012  16.098  11.727   1.629  0.1282  0.1045  0.5403
26882W        W42013  13.141   2.585  14.907  0.1524  0.0372  0.0093
26883W        W42014  18.415   3.212  11.406  0.0315 -0.1128 -0.3137
26884W        W42015   8.589  13.364  11.998 -0.1501  0.0289 -0.3987
26885W        W42016  11.181  12.047   3.746 -0.0600  0.3612 -0.3783
26886W        W42017  18.224   9.940   4.190  0.1762  0.1300 -0.0369
26887W        W42018   6.458   6.630   4.374 -0.1131 -0.1118 -0.0211
26888W        W42019   3.559   4.141   1.312 -0.0626  0.0372  0.3627
26889W        W42020   9.275   5.585   1.730  0.1347 -0.1289  0.3206
26890W        W42021  17.972  15.314  13.331  0.2262  0.2539 -0.0484
26891W        W42022   0.583   7.748  15.813  0.2975  0.0916  0.2203
26892W        W42023   8.905  13.950   3.352  0.0212 -0.0709  0.0755
26893W        W42024  17.332  14.368   3.040 -0.2393  0.4905  0.2538
26894W        W42025  13.197   9.480   1.963  0.0138  0.0997 -0.2893
26895W        W42026   3.502   2.515  14.577  0.0114 -0.2124  0.3903
26896W        W42027  10.504   7.136   3.581  0.1843 -0.2498  0.2124
26897W        W42028  16.627   2.279   4.780 -0.2501  0.2757 -0.1864
26898W        W42029   4.330  13.829   3.050  0.1510 -0.0228 -0.6112
26899W        W42030   4.776   1.171   3.282 -0.1203  0.2313 -0.1054
26900W        W42031   7.017   5.853   2.823  0.0618  0.2312  0.0433
26901W        W42032  13.421   1.587   1.150 -0.2002 -0.1502 -0.2702
26902W        W42033   3.782   3.451   3.898  0.2073 -0.1981 -0.0683
26903W        W42034   8.334  14.883   3.230  0.0476  0.1193  0.2097
26904W        W42035   9.933   0.548  13.309  0.1952 -0.0242  0.0226
26905W        W42036   9.081   6.293  15.786  0.3287 -0.1269 -0.0919
26906W        W42037  12.687  12.409   5.085 -0.0164  0.0539  0.1045
26907W        W42038   2.996  17.654   1.128 -0.0001  0.2438  0.2436
26908W        W42039   8.453  13.364  11.456  0.0260  0.0765 -0.3557
26909W        W42040  16.639   8.469  12.368 -0.5641  0.0794 -0.1181
26910W        W42041   8.040   6.249  11.024  0.4495  0.1791  0.2760
26911W        W42042   1.901  18.339  15.470 -0.2394 -0.1570  0.3443
26912W        W42043  17.760   8.312  10.877 -0.0272 -0.0488 -0.1643
26913W        W42044  17.453   8.274   5.582  0.1784  0.0814 -0.2360
26914W        W42045  14.060   3.661  11.989  0.2871 -0.1163 -0.1084
26915W        W42046  14.271  15.026  14.736  0.1962 -0.0258  0.1937
26916W        W42047  15.105   6.094  11.120 -0.0255  0.1179  0.2617
26917W        W42048   5.591  10.056   0.572 -0.0274  0.0501  0.0833
26918W        W42049  15.012  18.275  14.164  0.2109  0.0096 -0.1562
26919W        W42050   2.092   3.212   2.122 -0.2454 -0.1179 -0.3328
26920W        W42051   7.220  13.713   2.572 -0.2783  0.3853 -0.0264
26921W        W42052   1.971   9.257   2.056 -0.1708 -0.0240  0.2179
26922W        W42053   8.705  13.891  14.014  0.1905 -0.3420  0.0972
26923W        W42054   9.446  10.145  14.597 -0.1694  0.0728 -0.0265
26924W        W42055   4.981   4.957   1.861  0.3442  0.1719 -0.0003
26925W        W42056  16.958   4.034  12.401  0.0420  0.4633  0.1173
26926W        W42057   8.373  17.346   3.653  0.3485 -0.1127  0.0964
26927W        W42058   8.276  11.491  11.539 -0.5261 -0.2536  0.1636
26928W        W42059   1.932  17.350  12.389 -0.0337  0.0162 -0.2041
26929W        W42060   8.531   1.871  13.185  0.0878 -0.2944 -0.0651
26930W        W42061   5.833  15.978  14.283  0.0848 -0.0226  0.1529
26931W        W42062   9.724   2.486   3.719 -0.1772  0.1428  0.2211
26932W        W42063  13.816   9.775  14.617  0.1881 -0.2109 -0.1871
26933W        W42064  11.126   8.065   2.029 -0.1385  0.2586 -0.0564
26934W        W42065  14.462   7.943   1.162 -0.1722 -0.3422  0.2119
26935W        W42066  13.694   2.404   1.186 -0.3801  0.1293 -0.0022
26936W        W42067  12.065  15.162  10.709  0.1899 -0.1936 -0.2878
26937W        W42068   7.955   0.223   9.564 -0.1578 -0.2281  0.0168
26938W        W42069   4.500   7.048  11.094 -0.1327 -0.2060 -0.1973
26939W        W42070   8.641  13.454   1.910 -0.0378 -0.2516 -0.0262
26940W        W42071   8.571  15.190  13.261 -0.2625  0.3292 -0.2733
26941W        W42072   7.608   6.831  15.073 -0.3010  0.1467  0.0196
26942W        W42073  14.987   0.484   6.214  0.0437 -0.3443  0.1179
26943W        W42074   9.578  17.412   9.429  0.3061 -0.0276 -0.0580
26944W        W42075   2.265   0.941  11.998 -0.0363  0.2476 -0.2672
26945W        W42076   5.242  18.095  15.137  0.1137  0.0574 -0.1404
26946W        W42077  13.748  11.032  15.029 -0.0128 -0.1309 -0.1627
26947W        W42078   5.906   5.775  12.741  0.0811 -0.0027 -0.1780
26948W        W42079  16.697  10.332   2.615  0.0800  0.0342 -0.0207
26949W        W42080   8.781   4.419   5.530 -0.0220 -0.1056 -0.1625
26950W        W42081  10.926   5.886   4.959 -0.0124 -0.0231 -0.2253
26951W        W42082  10.352  11.764   3.415 -0.1045  0.1692  0.2508
26952W        W42083  17.410   1.932   1.943 -0.2270 -0.1743  0.1571
26953W        W42084  17.809   7.773  12.895  0.4435 -0.0594  0.1686
26954W        W42085  13.450  12.552   4.427  0.2468  0.2359 -0.0562
26955W        W42086   5.420   9.345  12.538 -0.2186 -0.2401  0.0790
26956W        W42087   5.676   4.116   1.754 -0.0316 -0.1047  0.0770
26957W        W42088   3.255  13.331   2.868 -0.0128 -0.1224 -0.2173
26958W        W42089  14.321   9.463  14.629 -0.2399 -0.0988 -0.4284
26959W        W42090   9.878   6.516  10.627  0.1396  0.1005 -0.0897
26960W        W42091  16.106  10.941   2.221  0.2353  0.0196  0.0817
26961W        W42092   7.407  11.112  14.690  0.1491 -0.2977 -0.2229
26962W        W42093  12.597   1.730  12.659 -0.0547  0.1325  0.1573
26963W        W42094  15.969  15.130  15.514 -0.0849  0.2276 -0.1986
26964W        W42095  13.879   6.332  15.593 -0.0019 -0.1130  0.0160
26965W        W42096  15.950  16.489  11.642 -0.0094 -0.3335  0.3620
26966W        W42097  11.135  17.689  10.939  0.1618  0.3939 -0.1807
26967W        W42098  18.070  11.681   1.659 -0.1114 -0.0455  0.0738
26968W        W42099   0.221   4.287  11.876  0.0812  0.3463  0.0233
26969W        W42100  11.241   4.321   1.093  0.3788  0.0254  0.2509
26970W        W42101   2.055   2.270   3.244  0.0592 -0.1328  0.0645
26971W        W42102   3.897   0.099  14.366 -0.0656 -0.0064 -0.0706
26972W        W42103  13.071  13.378   2.008 -0.1031  0.2276 -0.0162
26973W        W42104   2.714  12.670   5.011 -0.0820 -0.1675  0.2618
26974W        W42105  13.642  12.709   4.965  0.0288 -0.0414 -0.0148
26975W        W42106  17.421   5.930   1.383 -0.1100 -0.0171 -0.1488
26976W        W42107   8.849   1.241   0.644  0.2885  0.1854 -0.1589
26977W        W42108   0.304  11.519   2.943 -0.4846 -0.2490  0.3931
26978W        W42109   6.777   3.675   2.188 -0.3791 -0.1797 -0.0366
26979W        W42110   1.920   8.362  11.007 -0.0844 -0.1535  0.1516
26980W        W42111   7.246  13.680   1.672 -0.2960  0.0608  0.5021
26981W        W42112  12.300  10.994   1.614 -0.0782 -0.1406 -0.0157
26982W        W42113   5.698   3.966   4.039 -0.1484 -0.1813 -0.0282
26983W        W42114   9.092  13.728  13.769  0.0200 -0.1096  0.1302
26984W        W42115   7.930   7.411   5.391 -0.0301  0.2306  0.0411
26985W        W42116   3.393   7.015  14.064  0.0860 -0.0716 -0.0914
26986W        W42117  16.518  14.394   1.593  0.2244  0.4906  0.0335
26987W        W42118   2.351  10.865  10.887  0.1261  0.0012  0.0918
26988W        W42119   2.021   6.146  13.815  0.1564  0.0808  0.2960
26989W        W42120  17.220   5.969  11.591 -0.3045  0.1472  0.2097
26990W        W42121   8.812  15.105  10.307 -0.1779  0.2437 -0.1453
26991W        W42122   1.146   9.828   1.327 -0.0848 -0.2430  0.0430
26992W        W42123   8.021   0.847   0.486  0.4222  0.2453  0.0250
26993W        W42124   1.643  10.056   2.436 -0.2851 -0.1985 -0.4520
26994W        W42125  15.250   3.113   1.030  0.3115 -0.1323 -0.0550
26995W        W42126   1.161   9.220   0.747  0.3585 -0.0550  0.1601
26996W        W42127   5.361   4.204   5.510 -0.3765 -0.2457  0.1795
26997W        W42128   9.430   4.823  15.205 -0.3702  0.1956  0.0015
26998W        W42129  15.412   5.724   0.111  0.0214 -0.0146  0.3101
26999W        W42130   5.307   2.009  11.579  0.0775  0.2171 -0.0010
27000W        W42131   9.797  17.189   1.213  0.0672 -0.1047  0.1508
27001W        W42132   3.828  10.665   1.045  0.1579 -0.2688  0.0390
27002W        W42133   6.212  16.240   0.414  0.2766 -0.5190 -0.2509
27003W        W42134  17.971   1.111   1.572 -0.0665  0.1069 -0.1405
27004W        W42135   7.642   6.882   1.347  0.1632  0.0070  0.1169
27005W        W42136   7.110  17.012  15.824 -0.0770  0.0015  0.2079
27006W        W42137  11.373  16.726   5.615 -0.1225  0.3605 -0.1379
27007W        W42138  16.224  12.277  12.085 -0.0109  0.2173  0.0507
27008W        W42139  18.519   7.646   2.866  0.0684  0.0530 -0.0693
27009W        W42140  10.553   8.613  14.549  0.0855 -0.1861  0.1002
27010W        W42141   2.352   8.537  11.729 -0.1228 -0.0921  0.0411
27011W        W42142  14.626   0.959   1.903 -0.0714 -0.0442  0.0418
27012W        W42143  13.988  18.138   3.104 -0.0393 -0.1484  0.3790
27013W        W42144  16.126  16.773  15.580  0.0284  0.4014  0.0416
27014W        W42145   7.079  11.392  12.980 -0.2445  0.0190  0.1564
27015W        W42146   7.815  10.559   5.725 -0.2866  0.0982 -0.0475
27016W        W42147  10.591   9.302  15.189 -0.5160 -0.2842 -0.0061
27017W        W42148   8.784   7.341   2.839  0.0682 -0.1066  0.2397
27018W        W42149  18.490   9.777  14.588 -0.1907 -0.2292  0.0322
27019W        W42150  15.688   7.103  15.838  0.0574  0.0377  0.0619
27020W        W42151  15.658   7.503   5.736  0.0278  0.0111  0.0038
27021W        W42152   9.062   4.415  14.936  0.1762 -0.0549  0.1603
27022W        W42153  13.350   6.843   1.565 -0.1832 -0.3641 -0.1757
27023W        W42154   0.671  14.813  12.464 -0.1426  0.1894 -0.3796
27024W        W42155   0.038  15.212  13.739 -0.2072  0.1707 -0.1298
27025W        W42156  16.174   5.897  10.335  0.2082 -0.1541  0.1480
27026W        W42157   6.238  12.226  11.698  0.1511  0.0153 -0.1639
27027W        W42158   6.317   8.587  15.577  0.2227  0.0731  0.0286
27028W        W42159  17.980   6.107   3.724 -0.1078  0.0155  0.3925
27029W        W42160  18.015  10.497   0.357 -0.4093  0.0078 -0.1425
27030W        W42161   7.065   9.207   2.847  0.0082 -0.0807 -0.0205
27031W        W42162   2.358   5.585  14.799  0.0660  0.1857  0.2763
27032W        W42163  14.276   8.296   6.303 -0.1445 -0.4570  0.0399
27033W        W42164   7.438  15.108   2.234 -0.0437  0.3391 -0.1843
27034W        W42165   2.899  17.472   2.941 -0.0845 -0.0548  0.0110
27035W        W42166   2.784   5.385  11.802 -0.2653 -0.1759 -0.4535
27036W        W42167  15.202  16.145   2.922 -0.1302 -0.1758 -0.0609
27037W        W42168  11.637   5.294   4.534 -0.1113 -0.0915  0.3570
27038W        W42169   5.446   6.973   3.548 -0.2624  0.1002 -0.2649
27039W        W42170   3.917  15.779   4.312  0.3824  0.2273 -0.0393
27040W        W42171  15.833  16.181  12.132 -0.1184 -0.1267  0.0407
27041W        W42172  15.791   0.852  11.384 -0.2699  0.0895  0.0053
27042W        W42173  13.525  16.858  10.862  0.4221 -0.0549  0.0266
27043W        W42174  14.792   3.418   1.154 -0.0215 -0.0058  0.0122
27044W        W42175   7.955   0.684  12.090  0.3411  0.1803 -0.1767
27045W        W42176  12.964  14.343   4.760 -0.1672  0.2516 -0.0367
27046W        W42177   1.705  10.853   1.987  0.3282 -0.1156 -0.2051
27047W        W42178  14.896   2.601   3.612 -0.3177 -0.0050 -0.1360
27048W        W42179  13.322  15.861  12.440 -0.0363  0.0116 -0.0443
27049W        W42180  13.073   3.506  14.097  0.2333  0.1070 -0.1825
27050W        W42181   9.580  18.383   0.457 -0.2833 -0.0846 -0.1138
27051W        W42182   0.870  13.268   4.410  0.1565  0.2261  0.1962
27052W        W42183   5.128   5.875   5.630 -0.0083 -0.1226 -0.1919
27053W        W42184  17.211   1.630   5.511 -0.0334  0.1830  0.3533
27054W        W42185   5.732  10.868   2.908  0.0004  0.0316  0.0271
27055W        W42186   8.761  15.926   1.816  0.0635  0.0491  0.0680
27056W        W42187   6.325  15.680  14.534  0.0763 -0.0639  0.2312
27057W        W42188   2.418   8.289   2.304 -0.1541  0.1023  0.0960
27058W        W42189   9.805   4.046  11.896 -0.3824 -0.0841  0.1722
27059W        W42190  11.429  12.092  14.989  0.2712 -0.0255  0.2303
27060W        W42191   2.641   2.102  11.646  0.1855 -0.3379 -0.2753
27061W        W42192   7.964   6.933   2.743  0.0263 -0.6256  0.0940
27062W        W42193  16.993   2.671  15.200  0.0954 -0.0099  0.1042
27063W        W42194   7.059  16.508   1.539  0.0094 -0.0260 -0.1294
27064W        W42195  16.181   5.531   3.986  0.1057  0.1369  0.2423
27065W        W42196   9.688   7.143   2.171 -0.3921 -0.1996  0.3591
27066W        W42197  16.056   9.288   4.508  0.0642  0.1209  0.2721
27067W        W42198   1.146  11.141   4.664 -0.1090  0.0297  0.0850
27068W        W42199  16.224  13.165   1.386 -0.2769  0.2289  0.0176
27069W        W42200   1.776   7.974  15.840 -0.2518 -0.1569  0.0289
27070W        W42201   6.341  13.299   1.130  0.0288 -0.1437  0.2039
27071W        W42202   1.062  15.934  13.382 -0.1054 -0.2271  0.1746
27072W        W42203   7.626   2.072   2.579  0.0010 -0.1489 -0.1317
27073W        W42204  10.703   7.265  15.517 -0.1893 -0.5663 -0.3212
27074W        W42205  18.004   6.860   1.289 -0.0701  0.2076 -0.1273
27075W        W42206  16.405   2.908  11.753 -0.2272  0.0913  0.1337
27076W        W42207   6.506   3.208   5.366  0.0613 -0.0108  0.1921
27077W        W42208   0.987   6.194   3.728  0.0067 -0.1427 -0.2964
27078W        W42209  17.840   1.524  12.295  0.3203 -0.0232 -0.3271
27079W        W42210  14.764  15.128   1.043 -0.1129  0.0229  0.0326
27080W        W42211  17.808   4.942   4.550 -0.2617 -0.2500  0.1292
27081W        W42212   0.420   9.767   5.884 -0.2063  0.0909  0.1948
27082W        W42213  11.660  12.367  12.787  0.0044 -0.0235 -0.1155
27083W        W42214  17.391   2.968   5.414 -0.1432  0.2054  0.0853
27084W        W42215  17.648   2.489  11.366 -0.0511  0.1968 -0.1151
27085W        W42216   2.292  15.523  14.341 -0.1814 -0.0179  0.1912
27086W        W42217   7.938   6.284   4.579  0.1242 -0.0879  0.0695
27087W        W42218   0.619  12.111   0.245  0.2651 -0.0164 -0.1558
27088W        W42219  10.343  13.492   9.668 -0.1091 -0.1030  0.1041
27089W        W42220  18.345  14.540   9.826 -0.0893  0.3806  0.1835
27090W        W42221  17.511   1.397  14.671  0.2466  0.1480 -0.1197
27091W        W42222  16.064  12.486  10.273 -0.1199 -0.1331  0.2605
27092W        W42223   7.753  16.822  12.878 -0.2159  0.0012 -0.3319
27093W        W42224  14.056   1.494   3.781  0.0881  0.2469 -0.0387
27094W        W42225   5.020  12.810   4.792 -0.0952 -0.1097  0.2859
27095W        W42226  12.057   8.445  14.839  0.0642 -0.0211 -0.1422
27096W        W42227   0.900   9.832  11.792 -0.5409 -0.1084 -0.0849
27097W        W42228   8.630  10.276   4.914 -0.3633 -0.1595 -0.2282
27098W        W42229   1.194   4.722  11.901  0.2035  0.0401 -0.3381
27099W        W42230  10.464   9.498   1.652  0.1310 -0.0067  0.2595
27100W        W42231   2.855  15.509  12.881 -0.2748  0.2284 -0.2010
27101W        W42232  17.227   9.486   3.999  0.0058  0.0510 -0.1187
27102W        W42233   7.122   4.493   4.582  0.3160  0.2050  0.0403
27103W        W42234  15.057   7.048   2.131 -0.1727  0.0498  0.1653
27104W        W42235  14.822  13.380  13.806 -0.2414  0.0322 -0.2718
27105W        W42236  11.728  16.545   2.571 -0.1815 -0.0236 -0.4932
27106W        W42237   1.868  14.946  13.716  0.1039 -0.1156  0.1395
27107W        W42238   5.717  12.554  13.189 -0.1764 -0.0219 -0.0636
27108W        W42239  16.036   1.473  14.142 -0.6200  0.0551 -0.3751
27109W        W42240   8.049   1.900  12.900 -0.1204 -0.1923 -0.0937
27110W        W42241   1.295  16.653  13.629 -0.2645  0.2523  0.0949
27111W        W42242   7.414  14.938   3.032 -0.0328 -0.0729 -0.1773
27112W        W42243   5.120   9.998  11.351  0.0003  0.4181 -0.0835
27113W        W42244   4.558   7.761   0.570  0.1039 -0.0445 -0.0493
27114W        W42245  16.847   5.082   0.260  0.0388  0.2547  0.2301
27115W        W42246   0.170  12.480  11.112  0.2450  0.1404 -0.1466
27116W        W42247   3.346  16.232   1.510  0.1588  0.1507 -0.0249
27117W        W42248   6.199   0.840   4.469 -0.0826 -0.1303 -0.0732
27118W        W42249  16.513  18.502  13.910 -0.1408 -0.0116  0.2692
27119W        W42250   2.938  16.373  14.202 -0.0525  0.1304 -0.3378
27120W        W42251   6.979   1.506   0.448 -0.3640 -0.0283 -0.0170
27121W        W42252   3.081   5.270   2.547  0.0571  0.1699  0.1238
27122W        W42253  17.996   6.516  13.023  0.0319 -0.1974  0.0420
27123W        W42254   4.849  18.236  15.385 -0.1605  0.4207  0.2824
27124W        W42255  10.853   0.025   1.537 -0.1585 -0.0423 -0.0097
27125W        W42256  13.994  15.081  15.660 -0.1950 -0.3798 -0.1759
27126W        W42257   7.546   3.810  10.782  0.1648  0.0205 -0.0809
27127W        W42258   9.002  12.710   3.988 -0.1955 -0.5123  0.1213
27128W        W42259   2.147   9.771  13.499 -0.0879 -0.0167  0.0959
27129W        W42260  17.369   7.984  15.276 -0.1417 -0.0096 -0.1759
27130W        W42261   5.738  12.988  14.299 -0.0290  0.0764 -0.1195
27131W        W42262  11.074   0.514   2.678  0.0652 -0.1562  0.0806
27132W        W42263   3.757   7.737   3.689  0.0973 -0.9229 -0.0544
27133W        W42264   6.218   8.324   1.473 -0.1429  0.1490 -0.0866
27134W        W42265   0.901   9.909   5.774 -0.1694  0.0678 -0.1065
27135W        W42266  17.995   1.888   0.425 -0.0831  0.0739 -0.1669
27136W        W42267  15.534   3.351   1.467 -0.2343  0.2332  0.1891
27137W        W42268   3.486   0.192   3.898 -0.2188  0.0863 -0.1293
27138W        W42269  11.171   8.824  12.471  0.1574 -0.0612  0.1937
27139W        W42270  10.928   1.529  10.446  0.1047  0.1868 -0.3571
27140W        W42271   3.164   2.818  11.728  0.2937  0.0782 -0.0344
27141W        W42272   6.337   9.112  14.142  0.1819  0.1628 -0.1227
27142W        W42273  14.876  18.394  10.830  0.0570 -0.0395  0.0624
27143W        W42274   6.055   3.945   0.468  0.0151 -0.2099  0.0768
27144W        W42275   2.531  15.558   3.282 -0.1639 -0.0286 -0.0931
27145W        W42276  11.380   5.381   3.322 -0.0548 -0.2711  0.1853
27146W        W42277  10.781  11.410  14.018 -0.0181  0.2074  0.0412
27147W        W42278  11.864   5.585   0.195  0.3754 -0.4255  0.1515
27148W        W42279  14.329   7.275  13.383  0.2144  0.1941 -0.0206
27149W        W42280  14.212   4.587  12.738 -0.1512 -0.0703  0.2029
27150W        W42281  14.291  15.410  14.346  0.1606  0.1885  0.0647
27151W        W42282  11.316   2.871  10.376 -0.1451  0.0566  0.0042
27152W        W42283   6.048  18.240  11.288  0.0875  0.1781 -0.2553
27153W        W42284   2.342  12.377   2.510  0.3396  0.0960 -0.0371
27154W        W42285   3.870  11.883  13.044  0.1911 -0.2140  0.1086
27155W        W42286   6.166   3.131  14.310 -0.0223 -0.2172  0.0525
27156W        W42287  13.581   4.120  13.708  0.0715  0.0844 -0.2121
27157W        W42288   2.198   6.884   2.897 -0.0224  0.0916  0.0758
27158W        W42289   3.510  13.183   1.909  0.0833  0.0381  0.2712
27159W        W42290   9.309   1.650   4.650  0.1279 -0.1680  0.1597
27160W        W42291   2.735   1.428  13.059  0.0254  0.2803  0.0485
27161W        W42292   8.438   5.367   1.780  0.0079  0.3947 -0.1109
27162W        W42293  18.125  16.446  15.796 -0.0931 -0.0461 -0.0980
27163W        W42294   4.077   5.798  15.617 -0.0058 -0.0860  0.0546
27164W        W42295   7.128  14.406   4.024  0.2135  0.1405 -0.1754
27165W        W42296   4.756  17.842  10.441 -0.1802  0.1779  0.0849
27166W        W42297  11.611   9.891   3.025  0.1853 -0.1253  0.3135
27167W        W42298  12.314  13.902   0.823  0.0331 -0.1035 -0.0933
27168W        W42299  13.179   0.714  15.474 -0.3712 -0.0162 -0.2851
27169W        W42300   6.659   8.232  11.966  0.1494  0.2031 -0.1879
27170W        W42301  14.044  11.733  12.445  0.0132 -0.0362  0.2627
27171W        W42302  11.342   9.841   3.426 -0.0376 -0.3187  0.0210
27172W        W42303  12.406   1.690  14.663  0.2181  0.2571  0.2917
27173W        W42304   2.507   8.997  11.778  0.0386 -0.3782  0.1977
27174W        W42305  10.600   0.755  12.045  0.0986 -0.0965  0.0312
27175W        W42306   8.744  15.853  15.802  0.1200  0.1096 -0.1708
27176W        W42307  11.005  15.290   0.024 -0.1400  0.1454 -0.0736
27177W        W42308   2.120  16.548   0.005  0.1151  0.1060  0.0682
27178W        W42309  10.142   8.529   3.987  0.1580 -0.0669  0.1379
27179W        W42310   0.903  10.350  10.939  0.1634 -0.0646  0.0028
27180W        W42311   3.217  17.560  10.781  0.1176  0.4994  0.2040
27181W        W42312  13.768  12.257   2.324  0.1152 -0.1595 -0.0336
27182W        W42313   6.208  16.101   3.009  0.0823  0.3160  0.2342
27183W        W42314  16.599  17.064   3.350  0.1902  0.1614 -0.0246
27184W        W42315  11.949   5.555  13.280  0.0884 -0.2096 -0.0204
27185W        W42316  13.079  17.083   0.392 -0.3769  0.1468 -0.0917
27186W        W42317  14.744  18.129   2.022 -0.2182 -0.3899  0.0382
27187W        W42318   4.322  18.303  10.385  0.2700 -0.0310 -0.1204
27188W        W42319   7.486   0.255   0.898  0.2118 -0.0630 -0.2283
27189W        W42320   1.977   1.321  15.687  0.0375  0.0224  0.1907
27190W        W42321  13.794   0.087  15.909  0.0374 -0.1612 -0.1028
27191W        W42322  14.589   0.809   3.896  0.2025  0.0203 -0.1916
27192W        W42323   8.367   5.562   3.114 -0.0717 -0.1419 -0.0093
27193W        W42324  12.171  10.018   4.717  0.2910 -0.3370  0.0018
27194W        W42325  15.427  11.940   4.591  0.0117  0.0961  0.0426
27195W        W42326  12.418  16.330   3.747 -0.2125 -0.0075  0.1848
27196W        W42327  17.431   6.747  14.862  0.1417 -0.1267 -0.0938
27197W        W42328   2.130  15.886  13.539  0.3103  0.1133  0.0890
27198W        W42329   5.493   8.359   4.951  0.0905  0.1577 -0.0990
27199W        W42330   9.246  15.546   2.447  0.1996  0.1648 -0.0516
27200W        W42331   2.045  13.990  13.956  0.0580  0.4738  0.2435
27201W        W42332   7.418   0.889  14.830 -0.0989 -0.1801  0.2411
27202W        W42333  13.757  10.479   3.897  0.1468  0.1561 -0.1713
27203W        W42334  15.482  15.762  11.206  0.1966  0.0485  0.2206
27204W        W42335   1.196  13.266   2.119 -0.2082 -0.0958 -0.0740
27205W        W42336   5.667  17.561   9.716 -0.1374 -0.0263 -0.1747
27206W        W42337  18.308   6.899   1.685 -0.4988 -0.1690  0.1635
27207W        W42338   8.918   1.174  12.955 -0.2391  0.1234  0.0353
27208W        W42339   6.787  10.477  12.420  0.1590  0.1838  0.1737
27209W        W42340   1.282  12.807   2.335 -0.0680  0.0332 -0.0578
27210W        W42341   5.346   9.922  15.264 -0.3161 -0.0090 -0.0702
27211W        W42342  16.083   5.694   5.031 -0.1669 -0.0476  0.0173
27212W        W42343   3.597   5.066  14.375  0.1744  0.1088  0.2662
27213W        W42344  13.999   8.802   2.401 -0.0219 -0.2069  0.2535
27214W        W42345   7.759   1.252  12.249  0.1695 -0.0711  0.1699
27215W        W42346   8.294   0.210  13.932  0.0235  0.0108 -0.0027
27216W        W42347   4.954   2.879  12.034 -0.0905  0.0849 -0.1953
27217W        W42348  17.647   8.378  15.290 -0.1861 -0.5212 -0.1694
27218W        W42349  17.294  14.335  14.656 -0.3752  0.0274  0.2213
27219W        W42350   3.766   1.084   5.840 -0.0788 -0.1894  0.0163
27220W        W42351   2.920  15.354  15.017 -0.0587  0.0615  0.0453
27221W        W42352  14.320   2.115   4.660  0.1636 -0.0597 -0.1014
27222W        W42353   1.583   7.950   3.440  0.2087 -0.1245 -0.2377
27223W        W42354  10.462   8.403   3.582  0.0863 -0.0191  0.2187
27224W        W42355  10.866   4.451  14.854 -0.0121  0.1805 -0.2003
27225W        W42356   7.477   9.831  15.269 -0.2166  0.2933 -0.2250
27226W        W42357  18.543  17.586   5.505 -0.2107  0.3998 -0.1042
27227W        W42358   3.449  11.268  14.059 -0.1033 -0.2735 -0.0332
27228W        W42359  10.867   8.443  12.017  0.3059  0.1881  0.0211
27229W        W42360   5.831   4.375   0.306 -0.1860  0.1875  0.2041
27230W        W42361  15.637  15.510  13.191 -0.0940 -0.0574 -0.1660
27231W        W42362  18.185  13.940  10.034 -0.0645 -0.0714 -0.2191
27232W        W42363  11.622   4.317  12.554 -0.2034  0.2903 -0.0445
27233W        W42364   3.120  17.890  11.782 -0.2776  0.2586  0.1413
27234W        W42365  17.200   3.347   4.026  0.3546  0.0499  0.3788
27235W        W42366   3.055  13.558   2.491  0.1905  0.0596 -0.2280
27236W        W42367   5.700  17.256  14.382  0.0943 -0.0618 -0.2375
27237W        W42368   4.388   9.473  11.083 -0.0065  0.1145 -0.2398
27238W        W42369   5.201  17.897  14.597 -0.0921  0.0650 -0.2331
27239W        W42370  17.776  13.171   0.597 -0.4621 -0.0591 -0.1501
27240W        W42371   2.796   9.794  15.536  0.1307  0.0118 -0.0039
27241W        W42372   1.978  10.769  11.414  0.1320  0.0324 -0.2246
27242W        W42373  14.528  13.138  15.102  0.2056  0.4394  0.2056
27243W        W42374   8.468  18.249  11.739 -0.5936 -0.2922 -0.3119
27244W        W42375  11.828  15.415  13.483  0.3430  0.1089  0.1900
27245W        W42376  13.549   4.885   3.066  0.2373  0.0464 -0.0605
27246W        W42377   9.051   3.448  15.601 -0.4729  0.1249 -0.1046
27247W        W42378   7.690  11.880  14.189 -0.0928  0.2220  0.1745
27248W        W42379  14.309   3.471   5.361 -0.1828 -0.0906 -0.1483
27249W        W42380  10.062  13.208   3.961 -0.4364 -0.1459  0.1854
27250W        W42381   8.618   5.908  14.620 -0.1995 -0.1006  0.0653
27251W        W42382  12.029  14.864   0.086  0.4725  0.1176  0.1883
27252W        W42383  16.662   7.022  12.833  0.3122 -0.2173  0.0647
27253W        W42384  13.153   9.789   1.458  0.2158 -0.1284  0.0298
27254W        W42385   6.818   3.135   4.917 -0.3684 -0.1743  0.0955
27255W        W42386   3.672  16.303   0.929 -0.0378 -0.0055 -0.0265
27256W        W42387   4.219   8.606   1.278 -0.1828 -0.0510 -0.2888
27257W        W42388  13.156   2.113   0.201  0.1804  0.2048  0.2430
27258W        W42389   3.371  13.994  14.743 -0.0334 -0.0267 -0.2141
27259W        W42390  16.327   4.970  13.714 -0.0668 -0.0235 -0.3949
27260W        W42391   7.109  11.440   1.108 -0.3901 -0.3810  0.0794
27261W        W42392   0.360  18.321  12.562  0.0165  0.1163  0.0345
27262W        W42393  17.627  10.727  13.882 -0.1712 -0.0885  0.0223
27263W        W42394   7.450  11.903   4.110  0.1809 -0.0222 -0.0664
27264W        W42395   8.844  11.821  15.237 -0.3564  0.1065  0.1700
27265W        W42396  10.113   3.416  12.715 -0.0724 -0.0978  0.2519
27266W        W42397  10.413  17.208   3.457 -0.1921  0.1356 -0.1457
27267W        W42398  17.845   3.626   1.855  0.1334  0.2040  0.0951
27268W        W42399  12.886   5.236  12.064 -0.1734  0.3897 -0.1929
27269W        W42400  12.665   4.005  14.255  0.1793 -0.1226 -0.2159
27270W        W42401   0.790  15.933   3.187  0.1482 -0.2851  0.0100
27271W        W42402  17.951   6.605   5.814 -0.1380  0.1428  0.1051
27272W        W42403   6.136   6.716   4.761 -0.1776  0.1170  0.3168
27273W        W42404  12.230  12.489   2.353 -0.0236 -0.0500  0.0742
27274W        W42405  15.895   5.256   1.296  0.1719 -0.1802  0.2864
27275W        W42406   8.922   1.631   0.198 -0.0011 -0.3244 -0.1437
27276W        W42407  17.886  14.399   1.162 -0.3555  0.3247  0.2421
27277W        W42408  16.515   3.669   6.252  0.2582 -0.0612  0.2577
27278W        W42409   5.670   1.528  15.928  0.0376 -0.0688  0.0687
27279W        W42410   8.629   1.755  12.207 -0.1749 -0.3492  0.2027
27280W        W42411   5.032  17.495  11.254 -0.0080 -0.4341 -0.2944
27281W        W42412  18.254  13.880  15.009  0.1395  0.2115 -0.1310
27282W        W42413   7.871   4.097  15.554  0.0189 -0.1254 -0.0483
27283W        W42414   6.714   2.204  10.415  0.1902  0.1382 -0.0337
27284W        W42415  18.359   4.778   0.684  0.2486 -0.0680  0.2917
27285W        W42416  12.115  14.180  12.251  0.0200 -0.2846  0.1857
27286W        W42417   6.793  16.730  12.003 -0.1687 -0.3114 -0.0493
27287W        W42418  15.641  13.705   3.279  0.2120  0.0144  0.0139
27288W        W42419   4.558  17.282   3.989 -0.0711  0.0053  0.2155
27289W        W42420   6.144  11.200   3.710  0.0858  0.0911  0.2995
27290W        W42421   6.687   8.484   1.746  0.0246  0.0382  0.0325
27291W        W42422   0.631  12.888   4.175 -0.1040  0.4005 -0.0654
27292W        W42423   3.874   4.655  12.479 -0.1368  0.0906  0.2501
27293W        W42424   2.515  11.030   3.299 -0.2802 -0.1612  0.3090
27294W        W42425   7.265   5.616  13.935 -0.3139  0.0048  0.0571
27295W        W42426   2.682  13.932  13.643 -0.0343  0.0819  0.0339
27296W        W42427   1.064  15.839  14.332 -0.2372 -0.1746 -0.1297
27297W        W42428  11.332   0.382   4.224 -0.0732 -0.1384  0.0932
27298W        W42429  11.791  12.480  15.089  0.2250 -0.1928 -0.0665
27299W        W42430  11.533   7.107  15.043  0.0211 -0.2073  0.2071
27300W        W42431  18.433   9.798  10.937  0.0360  0.0322  0.0880
27301W        W42432   5.662  17.268  10.168 -0.1383 -0.2967 -0.1878
27302W        W42433  13.339   1.616   2.110 -0.2101 -0.3270  0.0785
27303W        W42434   2.819   4.841   9.729  0.2349 -0.0429  0.2570
27304W        W42435   2.678   0.836   3.773 -0.0457 -0.2496  0.1775
27305W        W42436  12.724  14.259  14.274 -0.0766 -0.0351 -0.1044
27306W        W42437   7.681   7.475  11.176 -0.2235  0.0347 -0.1378
27307W        W42438  10.108  12.272   4.535 -0.2092  0.0270 -0.0003
27308W        W42439   1.335  10.951  15.406  0.1300  0.0830  0.0952
27309W        W42440   4.205   0.553   3.189  0.0401 -0.1473  0.0253
27310W        W42441  14.303   3.216   0.372  0.0794  0.1944 -0.1146
27311W        W42442   1.463   9.733   3.256  0.0687  0.1526 -0.0773
27312W        W42443   4.962   9.247  13.504  0.1566 -0.0367  0.0801
27313W        W42444  17.722  15.371   1.678  0.1115  0.3519  0.1297
27314W        W42445  11.070   8.313  12.497 -0.2309 -0.1702  0.4793
27315W        W42446  15.293  12.989   2.625 -0.1102 -0.1326 -0.3565
27316W        W42447   1.406   0.062   0.742  0.1576 -0.1221  0.3017
27317W        W42448  18.041  15.564   0.979 -0.2092 -0.1102 -0.0696
27318W        W42449   9.679  10.963  13.257 -0.0329  0.0728  0.2641
27319W        W42450  10.933   7.974  15.282 -0.0198 -0.0953  0.0286
27320W        W42451  11.916   3.947  11.721  0.2159  0.4768 -0.1525
27321W        W42452  17.433   8.984   3.817 -0.0213 -0.0970  0.0351
27322W        W42453  10.365  13.348   2.147 -0.5430 -0.1070  0.0469
27323W        W42454  14.275   9.855   1.247 -0.2141 -0.1409  0.1531
27324W        W42455   6.483   3.359   1.167 -0.0719  0.1110  0.0527
27325W        W42456  15.368   4.714   0.145  0.1725 -0.0606 -0.0027
27326W        W42457   9.669   9.739   1.195  0.0243 -0.0939 -0.1533
27327W        W42458  17.865   1.302  15.054 -0.0953  0.0217  0.2228
27328W        W42459  13.550  12.388  10.986 -0.1720  0.2405  0.2728
27329W        W42460   9.243  18.251  13.864  0.3917 -0.0122 -0.0967
27330W        W42461  15.728   7.953   5.984 -0.0609  0.1009 -0.3247
27331W        W42462  15.615   9.307  12.944  0.2376  0.2100 -0.0820
27332W        W42463   4.172  16.826  12.060 -0.0297 -0.2369 -0.0484
27333W        W42464  13.236   0.272  11.388 -0.0592 -0.0101  0.0781
27334W        W42465   9.832   9.910  12.420 -0.0843  0.0094 -0.1181
27335W        W42466  17.534  16.543  13.651 -0.0113 -0.1198  0.2183
27336W        W42467   5.975   5.100   3.028  0.1377 -0.1347 -0.1670
27337W        W42468   5.842   9.328   4.901 -0.1104 -0.2590  0.2057
27338W        W42469   0.240   8.140   6.192  0.0808 -0.0553 -0.1062
27339W        W42470  17.156  15.718   2.042 -0.0438  0.0049  0.1112
27340W        W42471  10.751  12.811  11.248 -0.1831 -0.0660 -0.2204
27341W        W42472   7.080  13.000  14.334 -0.0926  0.1145 -0.1631
27342W        W42473  15.485  12.279   3.863  0.2309 -0.0384 -0.1530
27343W        W42474   9.248  14.333   3.535  0.2173  0.0289  0.0479
27344W        W42475   7.292  15.607  15.782 -0.1080 -0.0828 -0.3313
27345W        W42476   0.736  10.878   4.386  0.3741  0.2593 -0.1058
27346W        W42477   2.117  10.288   2.270  0.3482  0.1000 -0.0514
27347W        W42478   3.851   6.229  13.429  0.1769  0.0747  0.2148
27348W        W42479   2.826   0.149   5.179 -0.0143  0.4875 -0.0534
27349W        W42480   8.480   2.711  15.717 -0.0699  0.1588  0.0743
27350W        W42481   7.882  14.452  11.730 -0.0331 -0.4000 -0.2537
27351W        W42482   3.348  15.168  14.357  0.2931  0.0206 -0.2375
27352W        W42483   0.553   7.704  14.342  0.1867  0.1604  0.1054
27353W        W42484   6.843   9.966   0.719 -0.0404  0.2509 -0.0867
27354W        W42485  12.132  17.706  14.365  0.1199  0.0799  0.1694
27355W        W42486  13.570  12.481  13.369 -0.2084  0.5470 -0.2084
27356W        W42487  10.200   2.609  11.440  0.2575 -0.3821 -0.1005
27357W        W42488   0.335   5.514   0.484  0.1142  0.1779  0.1926
27358W        W42489  14.974   1.261  11.769  0.0869  0.4065  0.0757
27359W        W42490   1.643   3.071  15.701 -0.2593  0.0430  0.0486
27360W        W42491  15.126   8.659  13.988 -0.0352 -0.1214 -0.5034
27361W        W42492   0.003  15.877  14.903 -0.1782 -0.2251 -0.0722
27362W        W42493  11.299   9.870  15.475  0.3802  0.0051  0.0496
27363W        W42494  10.622   3.060  15.622  0.1695 -0.0354  0.1985
27364W        W42495  15.557   6.528  15.370 -0.1042  0.1135  0.1043
27365W        W42496   8.266  11.303   0.425  0.0849  0.0041 -0.0274
27366W        W42497  12.724   4.288  12.528  0.1401 -0.2856  0.1339
27367W        W42498   7.399  13.923  12.488  0.2829 -0.1441  0.2146
27368W        W42499  15.539   1.564   4.732  0.0986  0.0192  0.0673
27369W        W42500   1.266  16.948  15.757 -0.3271 -0.3671 -0.1351
27370W        W42501  10.929   6.362  13.286 -0.2942  0.0338 -0.1261
27371W        W42502   3.122   0.955   0.986  0.0461  0.1928 -0.2965
27372W        W42503  15.315   3.333  11.212  0.0228 -0.0112  0.0673
27373W        W42504  10.772   2.701  11.976 -0.2159 -0.0195 -0.0800
27374W        W42505   1.542  17.600  11.262 -0.0395 -0.3161 -0.0472
27375W        W42506  11.092  12.822  10.762  0.0812 -0.0364 -0.2229
27376W        W42507   5.710  16.958  12.631  0.1624  0.2870 -0.2010
27377W        W42508  12.396   7.039   1.635  0.2924 -0.2664 -0.4005
27378W        W42509   5.550   7.168  14.460  0.2637 -0.0390  0.1155
27379W        W42510  11.826  10.415  11.811 -0.2034  0.3074 -0.2826
27380W        W42511  10.968  13.270  13.535 -0.1520 -0.0429  0.1631
27381W        W42512   3.585   3.175  11.900  0.4104  0.2975 -0.0437
27382W        W42513  16.349   2.266   5.752 -0.1572 -0.2346 -0.2000
27383W        W42514   2.490  16.055  11.729  0.2800 -0.1670 -0.1563
27384W        W42515   2.154   7.232  15.806  0.0369  0.1054  0.2153
27385W        W42516   9.261   4.266   9.941 -0.1869 -0.1735  0.3733
27386W        W42517   1.670   2.556   2.276 -0.2596 -0.0173 -0.2924
27387W        W42518   3.738  10.088  13.924  0.4152 -0.3560  0.0821
27388W        W42519   1.556   4.946  12.824  0.0563 -0.0807 -0.3522
27389W        W42520   9.220  10.960  14.163 -0.2812 -0.1115  0.0916
27390W        W42521   4.808  14.407   0.689 -0.2838 -0.1154  0.1493
27391W        W42522   8.502   6.851  11.201  0.0581  0.0644 -0.0439
27392W        W42523   2.791  13.878  11.610 -0.0038  0.3367  0.0181
27393W        W42524  10.031  10.040  13.273  0.1379  0.1390 -0.2017
27394W        W42525  16.841   6.905  12.350 -0.3227  0.0327  0.0056
27395W        W42526   2.708   3.956   3.020  0.2385  0.2129  0.0833
27396W        W42527  14.929   5.803  12.241 -0.1755 -0.3555 -0.1445
27397W        W42528   2.429  12.292   2.989 -0.0659 -0.0618 -0.0220
27398W        W42529   9.525  10.686   4.639  0.0694 -0.4485  0.2577
27399W        W42530  10.892   6.686   2.211 -0.1389 -0.2989 -0.1737
27400W        W42531  13.327  17.469   2.153  0.0794  0.0298  0.2162
27401W        W42532  12.007  10.557  15.184 -0.1576 -0.1108 -0.0576
27402W        W42533  17.686  13.701  12.930  0.0886 -0.0483 -0.0806
27403W        W42534  10.062  15.412  10.452  0.0029 -0.1788 -0.1729
27404W        W42535   1.515  16.276   4.179 -0.2422 -0.4953 -0.2424
27405W        W42536  14.338   7.233  11.698  0.0165 -0.1155  0.0446
27406W        W42537  12.533  17.638  12.963  0.1898  0.3919 -0.0004
27407W        W42538   1.501   7.654  13.139 -0.2183  0.2735 -0.0065
27408W        W42539  13.047  17.711  14.986 -0.2375  0.1756 -0.3298
27409W        W42540  16.181  13.963   0.670  0.1792  0.0205 -0.2536
27410W        W42541  13.993   8.843  15.486 -0.1537  0.0350 -0.0066
27411W        W42542  17.502  12.794   0.376 -0.2287 -0.0252 -0.4043
27412W        W42543   8.609   2.380  13.145 -0.1093 -0.1221 -0.1984
27413W        W42544  15.819   7.540   2.632  0.0370 -0.3384  0.0543
27414W        W42545   3.512   2.293   0.652 -0.1601 -0.0073  0.2380
27415W        W42546  15.293   6.348  13.159 -0.2263  0.2306  0.0484
27416W        W42547   8.531  12.414   3.988  0.3602 -0.1144 -0.1956
27417W        W42548  10.546   7.719  15.662 -0.2562 -0.0095  0.3605
27418W        W42549  14.920   1.964   0.646  0.0157  0.4284 -0.2432
27419W        W42550   9.049   2.015  11.846 -0.1176 -0.1739 -0.0075
27420W        W42551  15.274   8.884  12.931 -0.1736 -0.0220  0.1382
27421W        W42552   3.060   5.371   3.064 -0.0210 -0.0624  0.1335
27422W        W42553  17.008  16.434   4.915 -0.1092  0.2110  0.0001
27423W        W42554  17.878  15.176   4.326 -0.0942 -0.0265 -0.0765
27424W        W42555   4.040  17.116  15.013 -0.1196  0.1833 -0.0478
27425W        W42556   0.293  11.466  11.098  0.1744 -0.4445 -0.1866
27426W        W42557   6.356  13.766  15.922  0.0832 -0.3119 -0.1816
27427W        W42558   6.985  12.819  11.193 -0.0618  0.1343 -0.3073
27428W        W42559   3.312   0.696  11.136 -0.2893 -0.3021  0.1866
27429W        W42560   6.470   4.639   1.778 -0.1120  0.0720  0.3577
27430W        W42561  18.004  17.372   4.849 -0.0698  0.0217 -0.3271
27431W        W42562   6.656   8.604   4.586  0.0522  0.1406  0.3214
27432W        W42563   3.547  10.338   3.821  0.1543 -0.0620  0.2947
27433W        W42564   3.838   1.777  13.835  0.1434  0.0685 -0.0210
27434W        W42565   1.772  10.732  15.659 -0.0909  0.2132  0.0855
27435W        W42566   1.041   7.493   1.777  0.0594 -0.1720 -0.1142
27436W        W42567   5.004  10.919   0.400  0.0992  0.2061 -0.0627
27437W        W42568  11.057   7.777   0.311 -0.1382  0.5290  0.2089
27438W        W42569  11.372  16.676   2.923 -0.2596 -0.0175 -0.1435
27439W        W42570   8.545   3.894  13.631  0.2277  0.1756 -0.1273
27440W        W42571  16.448   9.870  12.635 -0.0870  0.2272 -0.3967
27441W        W42572   5.857   7.278  13.674  0.1255 -0.1060 -0.1440
27442W        W42573  11.290  14.149  11.496  0.1795 -0.0379 -0.2170
27443W        W42574  17.433   1.047  15.300  0.0025  0.3646  0.2964
27444W        W42575   1.420   5.369   1.452  0.3866 -0.3644 -0.3144
27445W        W42576   0.729  10.783  14.205 -0.0004 -0.0096 -0.1278
27446W        W42577  13.269  12.245   0.213  0.1066 -0.3167 -0.0452
27447W        W42578  11.511  14.812   4.128  0.4032 -0.1156 -0.1280
27448W        W42579   5.385  10.815   1.204 -0.0872 -0.1824  0.2325
27449W        W42580   1.431  15.752  11.650  0.1062 -0.0112 -0.2440
27450W        W42581   6.189   0.653  10.727 -0.2377 -0.4212 -0.0341
27451W        W42582  12.912   3.761   5.095 -0.1395 -0.0998  0.1574
27452W        W42583   6.085  10.445  10.535  0.2591  0.2139 -0.0024
27453W        W42584   5.806  17.733   2.179  0.1337  0.0178 -0.2610
27454W        W42585  14.192  12.073   1.595 -0.0491  0.0063 -0.2064
27455W        W42586   7.319   6.491  11.890 -0.0843 -0.1609  0.1341
27456W        W42587   1.263   1.831   2.094 -0.1726 -0.3239 -0.1446
27457W        W42588  15.559  15.536  13.696  0.0237 -0.1050  0.1614
27458W        W42589   1.069  12.817   5.380  0.0195  0.3197 -0.0273
27459W        W42590   6.988  18.285   0.064 -0.0507 -0.0886 -0.0008
27460W        W42591   4.560   1.302   4.740  0.1807  0.3494  0.1381
27461W        W42592   4.031   8.232   1.662  0.0782 -0.2430 -0.0015
27462W        W42593   4.574  13.928   0.072  0.1010 -0.1962  0.1054
27463W        W42594   9.399   8.174   4.481 -0.2359  0.0315  0.4613
27464W        W42595  18.422   1.117   0.146  0.0079 -0.1192  0.0338
27465W        W42596  17.343   9.104   5.779 -0.0064 -0.3102 -0.2130
27466W        W42597  17.584   1.333   0.227  0.1202  0.1410  0.2334
27467W        W42598   9.729  15.400   2.521  0.0904  0.0434  0.0870
27468W        W42599   2.756  11.861   3.231 -0.1216  0.2480  0.1894
27469W        W42600  13.417   8.771   3.549  0.1418  0.2037  0.0178
27470W        W42601   9.363  14.846   3.787  0.1396 -0.0175 -0.1357
27471W        W42602  18.445   9.918  12.969  0.0612  0.0753  0.0312
27472W        W42603   3.514  18.428  13.991  0.0193 -0.0345  0.3717
27473W        W42604   6.436   9.914  10.036  0.2113  0.3291 -0.1347
27474W        W42605  14.914   3.795  13.251 -0.1357  0.0727 -0.1882
27475W        W42606  12.604  16.095   4.327  0.0347 -0.0995  0.0698
27476W        W42607  15.320  11.397   1.870 -0.3815 -0.0389  0.1933
27477W        W42608  16.382  18.420  12.776 -0.2166  0.0610  0.0897
27478W        W42609  12.195  12.921  15.810 -0.0213  0.5217 -0.0750
27479W        W42610  12.355   8.062   1.182  0.1367  0.0021 -0.6667
27480W        W42611   6.953  18.080  15.489  0.0973  0.1699 -0.2886
27481W        W42612   5.605  15.209   3.522 -0.0422  0.3117  0.3200
27482W        W42613   6.805   0.396  12.007  0.2769 -0.0458  0.1831
27483W        W42614   6.517   6.062  15.412  0.1261 -0.0790 -0.0670
27484W        W42615  12.159  18.090   0.269 -0.1432 -0.1061 -0.0252
27485W        W42616   6.363  11.076  13.413  0.0030 -0.0619  0.1568
27486W        W42617   8.692   5.964   3.996 -0.4081 -0.0813  0.0671
27487W        W42618   4.369   1.368   1.252  0.0372 -0.0081  0.1197
27488W        W42619   2.404  11.565  11.931 -0.2297 -0.0403  0.1187
27489W        W42620   9.653  18.418  11.790  0.2452  0.3151 -0.2310
27490W        W42621   8.220  12.890   2.371  0.3544 -0.0693  0.0503
27491W        W42622   1.460  18.038   1.370  0.1634 -0.0736 -0.0262
27492W        W42623  18.553   9.355  11.474 -0.0188  0.0371 -0.1505
27493W        W42624   3.652  18.491   2.049  0.3432  0.1821  0.2604
27494W        W42625  13.652   2.111  13.968  0.4280 -0.0558 -0.1904
27495W        W42626   7.011   5.034   2.208  0.0678  0.4043 -0.2364
27496W        W42627   0.337   6.293   5.162  0.1983 -0.0401  0.0159
27497W        W42628   0.949  17.897   4.599 -0.0502 -0.1656 -0.2744
27498W        W42629  16.268  11.912   2.057  0.0939  0.4604 -0.1919
27499W        W42630  13.282  12.064  12.981 -0.3274 -0.0501  0.0249
27500W        W42631   3.793  14.527  14.059 -0.1586  0.0345 -0.2526
27501W        W42632   8.822   9.707  12.834 -0.1218 -0.1019 -0.1565
27502W        W42633  11.414   8.322  14.038  0.3677  0.2381 -0.0857
27503W        W42634  18.193   7.726  15.541  0.1858  0.0093 -0.1124
27504W        W42635  15.659  17.935   5.696 -0.2598 -0.1739  0.0473
27505W        W42636   5.547   2.730   0.810 -0.0166  0.0155 -0.5176
27506W        W42637   9.440   7.692   3.040  0.0302  0.2509 -0.4918
27507W        W42638  16.907  13.904  12.994 -0.0428 -0.0999 -0.2446
27508W        W42639  17.267   0.410   2.797 -0.0904  0.0816 -0.3715
27509W        W42640   1.273  13.830   2.028  0.5555 -0.0604  0.1200
27510W        W42641  15.167  18.239   4.709  0.0776 -0.1160 -0.0519
27511W        W42642  10.279   8.621   2.270  0.3079  0.3179 -0.1853
27512W        W42643  16.352  13.491   0.984  0.0737  0.0061 -0.1758
27513W        W42644  10.713   6.308   0.273  0.1799  0.1142 -0.1014
27514W        W42645  16.764  16.157   0.580  0.2006 -0.0898 -0.2563
27515W        W42646   0.452   2.687   2.690  0.0055  0.0493 -0.2972
27516W        W42647   1.719   1.066   2.305  0.0401  0.2848 -0.0790
27517W        W42648   0.505  11.410  12.510  0.2157 -0.2161  0.0646
27518W        W42649  16.741   6.251  12.248 -0.0026  0.1032  0.4071
27519W        W42650   7.795  12.151  10.158  0.1731 -0.5372 -0.0350
27520W        W42651   4.593  14.892   1.050  0.0323  0.2975 -0.2951
27521W        W42652  17.895   0.012  14.210  0.0723 -0.0176  0.1096
27522W        W42653  11.433  12.497   1.861 -0.1157 -0.1333 -0.1178
27523W        W42654   3.765  13.450  12.389 -0.1935  0.1925 -0.1768
27524W        W42655  16.277   6.947   5.473  0.1337 -0.0691  0.2110
27525W        W42656   3.817   7.937   1.989  0.0992  0.0744 -0.2954
27526W        W42657   5.180   4.941  11.850  0.1900 -0.0164  0.3031
27527W        W42658   0.855   2.491  15.512 -0.0105  0.2908 -0.1038
27528W        W42659   7.750  17.694  15.226  0.1289 -0.2645 -0.1956
27529W        W42660   8.208   5.812  15.002 -0.0940  0.1924 -0.2606
27530W        W42661   7.111   4.443  14.499  0.4229 -0.1785  0.0295
27531W        W42662  13.162  15.827  13.328  0.3893 -0.2728 -0.0156
27532W        W42663  11.280   3.890  12.596 -0.3345 -0.0148 -0.2525
27533W        W42664   0.848  16.032   4.547  0.0898 -0.2911 -0.2680
27534W        W42665  13.232  18.340   3.442  0.0917 -0.4151  0.0252
27535W        W42666   6.102  11.764  12.739  0.3616 -0.1066  0.0379
27536W        W42667  17.268   9.504  12.264  0.0093 -0.1195  0.1695
27537W        W42668   9.186  18.207   4.867  0.0050  0.4743  0.0584
27538W        W42669   4.087  16.168  11.024  0.1514 -0.1128 -0.1194
27539W        W42670   6.169  10.491   0.572 -0.3881 -0.0781 -0.2477
27540W        W42671   5.189  14.634   4.514 -0.1359 -0.0136 -0.1984
27541W        W42672   7.353   5.055   0.926 -0.0828 -0.1849  0.3100
27542W        W42673  11.625   6.809   3.120  0.4423  0.1570  0.1219
27543W        W42674   2.472  12.000   2.243  0.1879 -0.2550  0.1247
27544W        W42675   6.958   2.166   2.119  0.0419  0.0545 -0.1975
27545W        W42676   3.008  12.394   3.012 -0.1480 -0.3238 -0.0247
27546W        W42677   6.188  12.265  13.951 -0.0536  0.1606 -0.1098
27547W        W42678  13.057  12.544   2.830  0.2249  0.2243  0.2113
27548W        W42679   2.286  10.768   2.423  0.3214  0.0969  0.2029
27549W        W42680  14.183  16.910   5.155  0.0968 -0.1875  0.0077
27550W        W42681   1.613  10.961   0.984 -0.0621  0.0056 -0.0034
27551W        W42682  17.129   8.784  14.007 -0.0720 -0.0627 -0.1921
27552W        W42683   0.842   8.781   4.078  0.1922 -0.2121 -0.2220
27553W        W42684  10.677   4.675  10.729 -0.0057 -0.1751 -0.1844
27554W        W42685   8.177   5.665   0.473  0.1999  0.2312  0.0033
27555W        W42686  10.748  12.326  13.790 -0.2469 -0.1612 -0.2692
27556W        W42687   4.181   4.671  12.124 -0.2553 -0.0303  0.1539
27557W        W42688  10.946   5.049  13.070  0.1835  0.1359  0.2634
27558W        W42689   4.298  17.672  12.519  0.1213  0.1121 -0.1048
27559W        W42690  14.155  11.638   2.847 -0.1414  0.0692  0.3020
27560W        W42691   0.336   9.272   5.427  0.3134  0.1410  0.3144
27561W        W42692  10.703   1.815  10.954  0.0049 -0.0757 -0.2524
27562W        W42693  16.886  16.805   3.626  0.2910  0.1241  0.1931
27563W        W42694  15.759   8.173  12.967 -0.0388 -0.1029 -0.0321
27564W        W42695   4.109   6.320   0.589  0.0438  0.4781 -0.1337
27565W        W42696   0.248   8.042  13.371 -0.3275 -0.0787 -0.2693
27566W        W42697   6.082  14.936   9.907  0.0409  0.2246  0.0040
27567W        W42698   6.039  12.095   3.679  0.0823 -0.1701 -0.1315
27568W        W42699  15.451  13.339  11.822  0.2859 -0.2748  0.1502
27569W        W42700  17.794  16.614  15.401  0.2759 -0.1170  0.2205
27570W        W42701   1.618  12.437  14.178  0.0029 -0.0740 -0.0883
27571W        W42702   2.795  10.519  10.066 -0.0726 -0.0924 -0.2804
27572W        W42703  12.257   6.881   5.753 -0.2436 -0.5609  0.0083
27573W        W42704  17.519   0.622  11.542  0.0008  0.0274 -0.4310
27574W        W42705   8.806  12.186  15.633  0.2708  0.2292 -0.1402
27575W        W42706  10.826  14.246  12.941 -0.1056  0.1694 -0.1475
27576W        W42707  12.904   1.832  14.422  0.0269 -0.3130 -0.2440
27577W        W42708   0.311   5.640   6.419  0.2420  0.0989 -0.3086
27578W        W42709   6.337  12.975   2.510 -0.0390  0.2778  0.0310
27579W        W42710  13.620  16.542  12.131 -0.0873 -0.2448 -0.0697
27580W        W42711   5.304  14.352  14.372 -0.3847  0.1371 -0.1003
27581W        W42712  13.262   5.060  12.460  0.3128  0.2804 -0.2047
27582W        W42713   0.738   7.365   3.791 -0.0676  0.1397  0.0904
27583W        W42714   9.961   0.110  12.575 -0.0526 -0.1463 -0.1951
27584W        W42715  14.701   6.842   4.934 -0.1553  0.0396 -0.2707
27585W        W42716   5.913  16.558  11.304  0.0062  0.0916  0.3911
27586W        W42717  14.869  13.886   1.063  0.0322  0.0427  0.0314
27587W        W42718  12.176   1.187   2.464 -0.2737  0.2196  0.0344
27588W        W42719   3.151   5.699  12.042  0.0595  0.0500 -0.1016
27589W        W42720  12.692  16.301   0.732  0.4089  0.2219 -0.0648
27590W        W42721  10.629   0.203   2.926  0.0062 -0.2510  0.1088
27591W        W42722   7.036   5.590  13.496  0.0264  0.3628 -0.1613
27592W        W42723  17.213  14.107   1.369 -0.0695 -0.0451 -0.3127
27593W        W42724   2.433  14.988   4.033 -0.0750 -0.1065  0.4233
27594W        W42725   0.347  10.569   4.425  0.2069 -0.0640 -0.0064
27595W        W42726  16.849  11.246   3.703 -0.0156  0.0069 -0.0779
27596W        W42727  13.910   7.286  12.726 -0.0801 -0.1985  0.0518
27597W        W42728  18.082   7.846   2.048 -0.1054  0.1055  0.1321
27598W        W42729   5.493   5.622  14.396  0.1194 -0.0109  0.0881
27599W        W42730   0.486   4.421   1.087  0.2771  0.1252 -0.2690
27600W        W42731   8.871  11.910  14.710  0.4768  0.0818  0.0164
27601W        W42732  18.496   2.965  15.438 -0.0627 -0.2104  0.1624
27602W        W42733  14.973  11.399   3.343  0.2013 -0.0449  0.1436
27603W        W42734   9.560   0.891  11.155  0.0666 -0.0918  0.0939
27604W        W42735   9.974  13.933  15.780  0.0531  0.6570  0.0780
27605W        W42736   5.697   6.933  15.522  0.1505 -0.0032  0.1048
27606W        W42737   4.317  15.688  13.372  0.1391  0.0891 -0.1664
27607W        W42738   6.445   4.867   1.352  0.2173  0.0792 -0.2375
27608W        W42739  14.920  16.112   5.938 -0.2907 -0.2451 -0.0372
27609W        W42740   4.297  12.327  15.726  0.0080 -0.0952 -0.0041
27610W        W42741  15.681   5.887   1.737 -0.1798  0.2039 -0.1799
27611W        W42742  14.801   7.627  12.605  0.2799 -0.1425 -0.4035
27612W        W42743   2.282   6.799  13.178  0.5778 -0.1873  0.2529
27613W        W42744   1.073   7.245   1.335 -0.2657 -0.0595 -0.1147
27614W        W42745   4.938  13.912   5.074 -0.0213  0.3792 -0.1140
27615W        W42746  13.772   4.997  11.986  0.1225 -0.1148  0.0201
27616W        W42747   4.796   8.474   2.658 -0.2545 -0.4088 -0.1217
27617W        W42748   3.231   0.480   9.834  0.1450  0.1200 -0.1357
27618W        W42749  16.280  11.917  13.681 -0.0256 -0.0751 -0.1238
27619W        W42750  13.030  15.580  13.751  0.0274  0.0088  0.2655
27620W        W42751   3.756   8.947   2.990 -0.0839 -0.1102  0.0161
27621W        W42752   7.142   8.855  14.939  0.0035  0.0369  0.0875
27622W        W42753   9.287   3.430  13.244 -0.1142  0.0870  0.1431
27623W        W42754  13.674   4.946  15.060 -0.0538 -0.2262 -0.0004
27624W        W42755   4.394   5.805  12.892 -0.0556 -0.0186 -0.0561
27625W        W42756  18.534  11.092  11.863 -0.0546 -0.0187  0.1651
27626W        W42757  11.083  10.659   3.164 -0.1583 -0.2940 -0.3067
27627W        W42758  15.542   6.568   5.193 -0.3248 -0.1255 -0.0886
27628W        W42759   7.552  15.371  13.315  0.0915  0.1649  0.1137
27629W        W42760   3.154   5.109   5.954 -0.1787 -0.0444  0.0799
27630W        W42761   7.425  13.393   3.290  0.3690  0.0073  0.0549
27631W        W42762  16.713  13.166  13.144 -0.0178 -0.2056  0.1375
27632W        W42763   9.731   3.763  11.525 -0.0570  0.0281  0.3521
27633W        W42764   2.297   6.618  11.472 -0.1209 -0.0249 -0.0357
27634W        W42765  13.774  15.183  10.417  0.2304 -0.1085 -0.0028
27635W        W42766   1.648   0.867  12.090 -0.1972  0.0535 -0.0835
27636W        W42767  10.044   5.705   4.402 -0.0723  0.0283 -0.1364
27637W        W42768   8.010   3.056  14.809 -0.0436 -0.1963  0.1063
27638W        W42769   6.156  14.664  13.894 -0.2512  0.0231  0.2137
27639W        W42770   6.287  13.384   3.711  0.3646 -0.2139  0.1835
27640W        W42771  15.906  11.502   0.832  0.1795  0.3962 -0.0326
27641W        W42772   2.753   2.267  15.623 -0.1138 -0.1837  0.0280
27642W        W42773   7.744  16.619   1.841 -0.0763 -0.2106  0.1625
27643W        W42774   5.956  18.455   3.406  0.1119 -0.1680 -0.0523
27644W        W42775   0.763   3.451   2.209 -0.0907 -0.0745  0.2572
27645W        W42776   4.358   8.493   3.655 -0.2695  0.2160  0.3628
27646W        W42777  17.705  16.066  14.021  0.0175 -0.1367  0.0365
27647W        W42778   9.167  10.467   3.717 -0.0509  0.0076 -0.0604
27648W        W42779   5.238  17.009   4.449 -0.2137  0.1216  0.1421
27649W        W42780   0.966  14.836   5.480  0.0485 -0.0058 -0.0494
27650W        W42781   9.196  13.971  14.189  0.3809  0.0410  0.3377
27651W        W42782  14.152   4.962   1.677  0.3026 -0.2220 -0.0383
27652W        W42783  17.360   1.823  14.062  0.1133  0.0149 -0.0315
27653W        W42784   0.656   0.257  11.755  0.4342 -0.0744 -0.0191
27654W        W42785   8.828  14.868   9.374  0.1944  0.1196  0.2022
27655W        W42786  18.081   2.971  13.754  0.0721 -0.2795  0.2063
27656W        W42787   3.626  17.986  11.966  0.1099  0.0035 -0.0313
27657W        W42788  13.534   3.076   2.516  0.0700  0.0108  0.0679
27658W        W42789  11.783  13.593   2.537  0.0625  0.1912  0.1588
27659W        W42790  15.598  14.505   0.830 -0.0157 -0.0012 -0.0761
27660W        W42791  13.608  10.991  10.999  0.0899  0.0912 -0.1948
27661W        W42792   0.229   5.781  13.374  0.0160  0.0140  0.0157
27662W        W42793  15.092  10.189  13.459 -0.1707  0.0666  0.1313
27663W        W42794   8.643  17.507  10.419  0.1542  0.2822  0.1050
27664W        W42795  12.882   2.924   4.366  0.3053  0.1507  0.1292
27665W        W42796   9.743   2.163   0.349  0.6811 -0.1724 -0.0161
27666W        W42797   2.721   1.158  13.901  0.0174 -0.2731 -0.2869
27667W        W42798  11.610  12.738   0.891 -0.2833  0.0274  0.0150
27668W        W42799  17.286  18.329   1.254  0.0299 -0.0849 -0.1477
27669W        W42800   0.359  16.170  11.337 -0.2934 -0.2386  0.0134
27670W        W42801  17.150  11.333   0.677 -0.1093 -0.0771 -0.2557
27671W        W42802   5.979  15.456  15.333  0.1303  0.1179  0.0932
27672W        W42803   5.405   1.702   4.657 -0.0419  0.1091 -0.1594
27673W        W42804   9.595   7.145   1.660 -0.0612 -0.0289  0.0787
27674W        W42805  10.029  16.752   4.223  0.1550  0.1209  0.2182
27675W        W42806   3.568   3.636  13.086  0.1705 -0.0961 -0.2375
27676W        W42807  17.890  15.499   3.672  0.3375 -0.1005  0.2707
27677W        W42808   2.609  17.799   3.177 -0.1949  0.1956 -0.1197
27678W        W42809   4.979   9.998  14.536 -0.1071  0.3942 -0.1549
27679W        W42810   9.055   7.793   4.845 -0.0772 -0.2193  0.0728
27680W        W42811  14.277   9.888   4.499  0.3364 -0.2055 -0.1874
27681W        W42812   7.678  16.602  11.984 -0.2157  0.1249  0.0138
27682W        W42813   7.642  16.424  11.426  0.1508  0.0299  0.0911
27683W        W42814  14.071   1.714   4.296  0.0226  0.0403  0.0372
27684W        W42815  16.738   2.809   2.281 -0.0380 -0.2228 -0.2724
27685W        W42816   5.568   3.393  14.826 -0.0353 -0.0445 -0.1279
27686W        W42817  13.698   6.598   3.223  0.0785  0.0410 -0.2617
27687W        W42818  13.604  10.326   6.025 -0.1552 -0.0449 -0.1281
27688W        W42819  17.764  14.048  13.272 -0.2131  0.2946  0.0585
27689W        W42820  15.078   4.853  11.798  0.1183  0.2206 -0.1248
27690W        W42821   6.804   9.304  13.545 -0.0307  0.0031  0.1071
27691W        W42822   6.365  10.881  12.431 -0.0034  0.1203  0.0475
27692W        W42823  14.653   2.383  10.248 -0.0163 -0.1853  0.2669
27693W        W42824  13.062   0.671   1.027  0.1400 -0.1192 -0.1543
27694W        W42825   4.158   3.065   4.668  0.0066  0.2114  0.1461
27695W        W42826   1.825  16.799   9.892 -0.0272  0.0683 -0.3624
27696W        W42827  11.619  11.446  12.687  0.1111 -0.2258  0.0816
27697W        W42828   2.053   2.870   4.562  0.3172 -0.1157  0.3846
27698W        W42829  18.569   4.887  13.823 -0.1061 -0.1227 -0.0550
27699W        W42830   5.573  13.859   2.281 -0.4129 -0.3097 -0.2878
27700W        W42831   9.332   8.601   0.488  0.0351 -0.0011 -0.1927
27701W        W42832  14.838   8.262   4.821  0.2425  0.0205 -0.1529
27702W        W42833   4.311   9.689   3.828  0.0870  0.0977 -0.0927
27703W        W42834  17.281  13.110   3.510 -0.0921 -0.5545  0.2664
27704W        W42835   5.983   7.772  12.791  0.1101  0.2283  0.2432
27705W        W42836  10.518   5.585   4.945 -0.2440  0.0608  0.0104
27706W        W42837  14.972   8.493  13.100  0.1403 -0.2538 -0.1548
27707W        W42838  11.731   0.226  13.277 -0.0406 -0.0444 -0.2439
27708W        W42839   2.980  18.401  12.656  0.2513 -0.0374  0.1753
27709W        W42840   8.021  16.527  10.644 -0.2988 -0.1634 -0.3420
27710W        W42841   5.728  12.782   1.430  0.1629 -0.1455  0.2775
27711W        W42842  14.007   7.722   1.157  0.1310 -0.3131  0.0648
27712W        W42843  17.061   9.369  13.478 -0.1915 -0.1442 -0.1121
27713W        W42844   3.692   9.986  15.417 -0.3805  0.2602  0.1101
27714W        W42845  16.129   5.260  15.753  0.0063  0.0376  0.0501
27715W        W42846   9.952   9.276   4.537 -0.0188 -0.0827  0.2005
27716W        W42847   6.745  14.269   0.781 -0.0565  0.1728  0.1090
27717W        W42848   4.692  14.418   3.798  0.0958 -0.1695  0.5282
27718W        W42849   3.026   5.876  13.216  0.4030  0.0476  0.0549
27719W        W42850   6.052   8.717   3.139  0.1116 -0.1178  0.0717
27720W        W42851  13.510   6.125   3.432  0.0383 -0.1723 -0.0109
27721W        W42852  12.770  15.412   0.327  0.1678 -0.1320  0.0700
27722W        W42853   5.888  10.428   3.097 -0.1707  0.1132  0.2491
27723W        W42854   8.896   3.564   1.946  0.1854  0.1605  0.0132
27724W        W42855  15.311   4.488   2.534  0.1824 -0.1281 -0.0938
27725W        W42856  17.652   6.399   1.605 -0.0159  0.2778  0.1706
27726W        W42857   3.073   8.488   0.051 -0.2544  0.2168  0.1216
27727W        W42858  13.640   3.935   2.485 -0.2000  0.1119 -0.4058
27728W        W42859   8.569  12.371   2.265  0.0549 -0.1755 -0.1070
27729W        W42860   1.041  17.047   1.767 -0.2301 -0.2272 -0.2524
27730W        W42861  14.214  12.794   4.792  0.1977  0.2158 -0.4165
27731W        W42862  15.075   2.419  15.683  0.0771 -0.0792  0.0328
27732W        W42863  14.547   1.866  13.721  0.0259  0.1284 -0.1707
27733W        W42864  11.325   7.381   0.166  0.1287  0.2978 -0.1045
27734W        W42865   6.463   7.700  15.218 -0.3150 -0.2504 -0.1772
27735W        W42866  12.657   9.241   3.696  0.0287 -0.3025 -0.2523
27736W        W42867   0.796  10.876   0.439 -0.3246  0.1600 -0.0805
27737W        W42868  12.869  10.663   4.813  0.4786  0.2959 -0.0979
27738W        W42869   0.968   8.077  11.168  0.2290  0.1531  0.1073
27739W        W42870  15.851   3.226   3.945  0.4528  0.0459  0.0469
27740W        W42871  18.342  18.029   1.901  0.0290 -0.0452 -0.0482
27741W        W42872   6.260  15.545   1.641 -0.0779  0.0964 -0.0599
27742W        W42873  14.064  16.481  13.452 -0.1602 -0.1211  0.0308
27743W        W42874   8.275   1.775   2.602 -0.1373 -0.4955  0.2066
27744W        W42875   1.849  13.624   1.275  0.2034 -0.2039  0.3271
27745W        W42876   1.516   0.997  14.624  0.0566 -0.1487 -0.3155
27746W        W42877   1.999   8.973   4.993  0.0271 -0.0490 -0.2257
27747W        W42878   0.065   8.117  15.604 -0.0500 -0.2543  0.1264
27748W        W42879  11.798  16.443   3.061 -0.0651  0.1592 -0.1046
27749W        W42880   3.435   6.372  12.509  0.2855  0.1938  0.0640
27750W        W42881   9.649   1.273   0.829 -0.5073  0.1134 -0.4275
27751W        W42882  14.328   7.559  14.991 -0.1645 -0.3625  0.0105
27752W        W42883  13.165  16.132   0.998  0.0041 -0.1535 -0.1677
27753W        W42884  12.239   4.139  11.360  0.0218  0.0175  0.1155
27754W        W42885  16.382   0.490  12.361 -0.2912  0.6029  0.0939
27755W        W42886   3.038   4.004   3.391  0.1269  0.0661  0.0367
27756W        W42887  10.295   6.742  11.086  0.0279 -0.1059 -0.1081
27757W        W42888   4.597  17.254   1.121  0.2599  0.2689 -0.1694
27758W        W42889  12.203   7.311   4.931  0.3200 -0.1163 -0.1867
27759W        W42890   9.549  16.529  15.923 -0.0685 -0.1187 -0.2998
27760W        W42891   8.060  14.991  14.495  0.0078 -0.1048 -0.2449
27761W        W42892  11.731  11.070  15.149 -0.0823  0.0131  0.1290
27762W        W42893  14.297  11.213   4.069  0.0813 -0.0657  0.1430
27763W        W42894  16.053   9.063   2.844  0.0086 -0.3902  0.1127
27764W        W42895   3.036   0.664  12.049  0.2053  0.0213 -0.2803
27765W        W42896  13.127  17.620   2.941 -0.0819  0.0178  0.2100
27766W        W42897  14.810  12.290   3.250 -0.3490  0.0416  0.1918
27767W        W42898  13.539   6.724   2.047 -0.0099 -0.0012  0.1155
27768W        W42899   0.627   4.019  11.834 -0.2081 -0.1057 -0.2308
27769W        W42900   4.480   8.867   2.345  0.3512 -0.1534 -0.2193
27770W        W42901  16.644  15.563   2.101  0.0587  0.0515  0.0181
27771W        W42902   0.901   2.511   5.537 -0.1241 -0.1228 -0.0971
27772W        W42903   4.810  15.252  14.798  0.0198 -0.1063  0.1802
27773W        W42904  11.546  11.237  11.472  0.1563  0.1045  0.2168
27774W        W42905   9.907   4.093  15.137  0.2674 -0.2539 -0.3511
27775W        W42906  11.476  14.280   4.193  0.4357  0.1213  0.2268
27776W        W42907  10.806  15.540  10.920 -0.2104 -0.3721  0.2146
27777W        W42908  12.438  12.487  13.778 -0.0228  0.1145 -0.0008
27778W        W42909   8.888   7.873   2.894  0.0636 -0.2560 -0.0114
27779W        W42910  17.639   1.967  12.542 -0.2002  0.0031  0.3364
27780W        W42911   6.143   4.781   3.362  0.0534  0.2891 -0.0163
27781W        W42912   8.473   3.082   0.353  0.0188 -0.0188 -0.1026
27782W        W42913   7.266   4.562  15.929  0.1435 -0.1032 -0.1340
27783W        W42914  10.050  15.246  15.106  0.0260 -0.2593 -0.0009
27784W        W42915   1.691   4.759  11.748  0.4627 -0.0081 -0.0231
27785W        W42916   2.123   0.968  10.801  0.0141 -0.0925 -0.2362
27786W        W42917  16.382   2.057   5.331 -0.0691  0.4197  0.2242
27787W        W42918   1.619   7.179  13.932 -0.1462 -0.1668 -0.2637
27788W        W42919   0.745   5.849   1.991  0.1758  0.0374  0.0006
27789W        W42920   8.300  12.045   1.935 -0.2119 -0.1184 -0.1873
27790W        W42921  11.545   2.600   0.298  0.2988 -0.2259 -0.2923
27791W        W42922   6.471  16.880  13.337 -0.0761 -0.0319  0.3908
27792W        W42923   6.857   7.374  11.044 -0.1320 -0.0332  0.1731
27793W        W42924  13.806   3.794  12.409  0.0743  0.0473 -0.0594
27794W        W42925  18.079  16.155  14.424  0.1195  0.0170  0.1506
27795W        W42926  15.963   8.090   5.579  0.2753  0.0767 -0.0122
27796W        W42927   4.943   1.894  14.215  0.0480 -0.2293  0.0545
27797W        W42928   7.250  16.620  11.666 -0.1665  0.1715 -0.0572
27798W        W42929  14.345  15.977   4.715 -0.2216 -0.1460  0.0497
27799W        W42930  11.360  13.575   0.587 -0.1321  0.1180 -0.1072
27800W        W42931  12.807  13.218   9.820 -0.1540 -0.1840  0.1034
27801W        W42932   8.733  17.942  15.181 -0.0040 -0.0802  0.0972
27802W        W42933   4.270  17.017   1.454 -0.0922 -0.0236 -0.3445
27803W        W42934   6.373  15.132   4.598  0.2115 -0.1126 -0.3086
27804W        W42935   8.020   5.728  10.961 -0.0579  0.1553 -0.2124
27805W        W42936   4.933  15.539  11.657  0.0016 -0.0696  0.0161
27806W        W42937   3.107   2.778  14.406 -0.1513 -0.0817 -0.3330
27807W        W42938   6.417   5.247  11.224  0.0577 -0.0566 -0.0575
27808W        W42939  17.071  17.273   1.057 -0.1376  0.2127  0.0089
27809W        W42940  15.238   0.096   6.088 -0.2192 -0.0041  0.5002
27810W        W42941   6.325   4.291   0.089 -0.0998  0.3202 -0.1936
27811W        W42942   4.090  13.783  13.732 -0.1506  0.2202  0.1546
27812W        W42943  10.387   0.065   0.317  0.0822 -0.0962  0.2226
27813W        W42944   6.844   4.935   2.981 -0.1536 -0.1120  0.0139
27814W        W42945   2.188   9.651  12.914  0.1333  0.3234  0.1803
27815W        W42946  11.612   1.926   2.133 -0.2282 -0.3047 -0.0036
27816W        W42947   1.831   1.725  15.255 -0.0202  0.2098  0.1969
27817W        W42948  10.063  11.076   1.773  0.2148 -0.0258  0.0797
27818W        W42949  12.669   4.097   2.213  0.4419 -0.0426  0.1653
27819W        W42950   9.522  18.117  14.916 -0.0593  0.1552 -0.1045
27820W        W42951   9.314  16.247   5.085  0.0270  0.2261  0.2132
27821W        W42952   7.651   6.933  12.512 -0.1606  0.2981 -0.2232
27822W        W42953   7.363   4.449  14.091  0.0161 -0.1129  0.2805
27823W        W42954  14.814  10.581   5.642 -0.0696  0.0416 -0.0683
27824W        W42955   6.701  10.469   4.403 -0.1202 -0.1841 -0.2019
27825W        W42956   6.217  17.154  14.296  0.1525 -0.0664  0.0052
27826W        W42957   6.211  10.815  15.422 -0.0303  0.1774 -0.1096
27827W        W42958   6.113  15.133   2.520  0.1593 -0.0061  0.1629
27828W        W42959  14.208  13.535  15.889  0.2355  0.0196  0.0958
27829W        W42960   5.084  17.101   4.955  0.0454 -0.1334  0.0397
27830W        W42961   9.410   8.717  15.145 -0.1345  0.0891  0.3114
27831W        W42962  12.317  17.272  11.485  0.0827 -0.0895 -0.0056
27832W        W42963  10.223   9.835  11.493  0.2257  0.0676 -0.2009
27833W        W42964  14.445  12.763  13.177 -0.1357 -0.2256  0.1091
27834W        W42965  14.757  13.642  12.127 -0.1167  0.3508  0.0852
27835W        W42966  15.141   5.605  13.483 -0.3247  0.0810 -0.0643
27836W        W42967   5.160  15.608  10.644  0.3760 -0.3821  0.3761
27837W        W42968  13.498   9.013   3.146 -0.3016 -0.0709 -0.0867
27838W        W42969  16.880   9.612  11.588 -0.0999 -0.1347 -0.2477
27839W        W42970   8.023  16.702   4.466 -0.1142 -0.1524 -0.3358
27840W        W42971   7.546  17.742   0.246 -0.1612 -0.2325 -0.1580
27841W        W42972   9.632   9.359   5.385 -0.0978  0.0657  0.2374
27842W        W42973  13.676   3.799   4.752 -0.1256  0.0718 -0.0337
27843W        W42974  15.721   5.763   4.690 -0.1768 -0.3541 -0.0198
27844W        W42975  11.273   1.760   1.816  0.3622 -0.2072  0.0407
27845W        W42976   9.135   1.007  11.413  0.0287  0.2127  0.1253
27846W        W42977  13.013  12.260   4.559 -0.1313 -0.1498 -0.2365
27847W        W42978   0.220  16.777   4.401 -0.3856 -0.0667  0.1625
27848W        W42979   7.205   7.001  11.723 -0.2590 -0.1288 -0.1873
27849W        W42980  12.016   8.975  14.481  0.4661 -0.2441 -0.0865
27850W        W42981   4.500   6.538   4.739 -0.2934 -0.0346 -0.4942
27851W        W42982   8.946   8.212   5.067 -0.4089  0.0686  0.4388
27852W        W42983   6.503  14.137  11.101  0.0717  0.0046 -0.0043
27853W        W42984   5.379   9.213  11.481  0.3312  0.4604  0.1392
27854W        W42985  15.231   4.288  15.221 -0.0029 -0.1255  0.0418
27855W        W42986   4.589  10.534   1.095  0.1820  0.3215 -0.1493
27856W        W42987  15.118  14.465   0.863  0.1777 -0.2097 -0.0636
27857W        W42988  10.996  16.937  11.957 -0.2113 -0.1464  0.2661
27858W        W42989  18.168  16.303  15.302 -0.2570  0.4489  0.1542
27859W        W42990  11.805  17.199  15.288 -0.2905  0.5049 -0.3298
27860W        W42991   6.600   1.742  13.023 -0.0399  0.0116  0.0938
27861W        W42992   4.956  16.762  12.248 -0.0915  0.2092 -0.0072
27862W        W42993  16.746   3.601   2.368  0.3003  0.1287  0.1667
27863W        W42994   3.505   6.125  11.659 -0.0462 -0.1679  0.0171
27864W        W42995  16.916   5.730  12.450  0.1389  0.0085 -0.0425
27865W        W42996   0.749  10.273  11.994 -0.0002 -0.1147  0.0991
27866W        W42997   4.335  14.264  12.195  0.0513 -0.2788  0.0996
27867W        W42998   9.431   1.129   0.405  0.1201  0.0073  0.0531
27868W        W42999  11.696   9.318  14.741  0.1659 -0.0932  0.0813
27869W        W43000   6.870  10.284  12.930  0.0469 -0.0313  0.0150
27870W        W43001   0.038  10.713  13.453  0.3739  0.0341 -0.1776
27871W        W43002   2.790   7.022  12.478 -0.0589  0.0365  0.0741
27872W        W43003  15.717   7.737   5.300 -0.0152 -0.0340  0.0563
27873W        W43004   7.280   3.719  13.292  0.2498  0.3811  0.2248
27874W        W43005   4.279   4.860   4.346  0.5298 -0.2782 -0.2036
27875W        W43006   4.528  14.543  12.621 -0.2532  0.2849  0.0662
27876W        W43007   7.416   4.921   1.803  0.2709  0.2462  0.2586
27877W        W43008  16.152  17.509  14.598 -0.3472 -0.2425  0.0435
27878W        W43009  13.446   8.354  11.159 -0.1936 -0.0965  0.1322
27879W        W43010   8.981  13.376   3.647 -0.1359 -0.4100 -0.3374
27880W        W43011   4.669  12.368  13.317 -0.0918  0.1457  0.0367
27881W        W43012   4.913   6.409   3.502 -0.0245 -0.2929 -0.3860
27882W        W43013   4.029  18.370   0.350 -0.0834 -0.1091 -0.0160
27883W        W43014  14.070  12.335  15.734 -0.0848 -0.1354  0.2762
27884W        W43015  12.180  16.135   1.338 -0.2897  0.1418 -0.0851
27885W        W43016  18.125  16.245   2.109 -0.3189  0.1052  0.2578
27886W        W43017   7.359   7.684  10.823 -0.0560 -0.0581  0.6193
27887W        W43018   9.363  17.518   0.165 -0.1686  0.0522  0.1755
27888W        W43019  18.312  14.283   1.701  0.1927  0.1182 -0.0258
27889W        W43020  11.451   9.415   4.339 -0.2104  0.0830 -0.0515
27890W        W43021   3.414   5.582  14.266 -0.1683 -0.0072  0.0580
27891W        W43022   0.642  13.786  13.907  0.0792  0.0253  0.1749
27892W        W43023   9.699  10.366  12.261  0.1035 -0.0291  0.4325
27893W        W43024   6.041   3.880  12.933 -0.2870  0.2566  0.2604
27894W        W43025  11.124  14.641   4.399 -0.3992  0.1366 -0.1006
27895W        W43026   8.536   2.189   2.434 -0.0161  0.0464 -0.1218
27896W        W43027  10.932  17.125  11.480 -0.2790 -0.1515  0.2095
27897W        W43028   6.349  11.317  11.439 -0.4069 -0.1613 -0.0633
27898W        W43029  11.195   2.918   4.519 -0.0129  0.2448 -0.0813
27899W        W43030  15.476   3.009  11.800 -0.2755  0.0458 -0.0579
27900W        W43031   0.806   4.265   1.681 -0.0825 -0.1178  0.4142
27901W        W43032  10.183  10.139  12.162 -0.0704  0.1732  0.2099
27902W        W43033   5.266   5.063   5.535 -0.1591  0.1067  0.0583
27903W        W43034   1.609   0.656   2.597  0.2584 -0.0651  0.1038
27904W        W43035  15.066  13.613   2.025 -0.0203  0.1557 -0.2277
27905W        W43036   1.537   4.032  13.890 -0.0041 -0.1592 -0.1025
27906W        W43037   9.322  10.506   5.858  0.1093  0.1922  0.1268
27907W        W43038  12.840  15.639   5.159 -0.1453  0.1968  0.2296
27908W        W43039  14.971  11.868   5.078 -0.1816  0.1863 -0.1287
27909W        W43040   9.883  12.675  13.833 -0.0188  0.0988 -0.0740
27910W        W43041  15.796   7.442  12.549  0.1034  0.1931  0.2351
27911W        W43042  17.166  15.492   0.710 -0.0365 -0.1828  0.3538
27912W        W43043   4.725   3.667  13.654  0.0173 -0.0464 -0.0238
27913W        W43044   7.671  11.761  15.304  0.2181  0.1710  0.2175
27914W        W43045  16.707  18.126   4.197  0.3246 -0.0690 -0.4021
27915W        W43046   5.541   3.345  15.441  0.2204 -0.1149 -0.0914
27916W        W43047  13.959   1.579   0.706  0.0081  0.0931  0.0588
27917W        W43048  13.650   1.991   2.009 -0.1200 -0.0342 -0.1095
27918W        W43049   9.694   2.358   4.400 -0.3111  0.1262  0.1494
27919W        W43050  14.549   0.519  11.307  0.2404  0.0076 -0.0348
27920W        W43051  10.026   7.712  13.127  0.2350 -0.1241 -0.1189
27921W        W43052  12.200  12.165   0.276 -0.1027  0.3009 -0.2874
27922W        W43053   7.732   6.481  12.902 -0.1588 -0.0971 -0.0272
27923W        W43054  15.997  10.378  12.096  0.0947 -0.1467  0.1254
27924W        W43055  14.897   5.790  15.214  0.0079 -0.0037  0.2597
27925W        W43056   1.063  11.900   4.049  0.2691  0.2931 -0.1543
27926W        W43057  16.618   7.370   4.035  0.2421  0.0500  0.2061
27927W        W43058   9.782  11.218   3.134  0.2395 -0.1501  0.0172
27928W        W43059  16.236   7.406  15.590 -0.3690  0.0011  0.4066
27929W        W43060   9.419   2.987   0.200 -0.1854 -0.2177  0.0387
27930W        W43061   8.242   3.777   5.303  0.0728 -0.0112  0.1916
27931W        W43062   1.903   7.741   3.030 -0.2304  0.3034  0.2651
27932W        W43063   6.250   4.983   5.107 -0.0411  0.0419  0.1926
27933W        W43064   2.803  11.646   4.102 -0.0195  0.0771  0.0373
27934W        W43065   8.883   1.516  14.336  0.1021  0.0523  0.2837
27935W        W43066   4.294  10.737  11.118 -0.0309  0.0878  0.2074
27936W        W43067  17.442  15.104   5.141 -0.0240 -0.1210 -0.1621
27937W        W43068  16.086   5.513   0.237  0.0730  0.1523  0.1938
27938W        W43069   6.777   0.651  14.361 -0.1775  0.1334  0.1658
27939W        W43070  16.125   3.098   4.464 -0.0069 -0.0939  0.0360
27940W        W43071   3.323  17.715  12.262  0.2615  0.1317  0.1112
27941W        W43072   8.998  15.361   2.009 -0.0357  0.0893  0.0920
27942W        W43073   7.507   0.168   2.025  0.4700 -0.1618 -0.0869
27943W        W43074  18.484  15.384  11.795 -0.1736  0.3490  0.0562
27944W        W43075  15.728  18.352  14.309  0.2020  0.1508 -0.2576
27945W        W43076   9.801   0.877   1.126 -0.1833 -0.1193  0.2298
27946W        W43077   7.371  12.105   5.137  0.0776 -0.0889  0.1668
27947W        W43078   6.327  16.554  12.230 -0.2833 -0.2970 -0.0129
27948W        W43079   9.785  11.503  13.215  0.0814  0.3476  0.0894
27949W        W43080  13.735  17.044  13.843 -0.3313 -0.2575  0.3619
27950W        W43081   3.681   3.629   0.272 -0.0618  0.1132 -0.3309
27951W        W43082   1.585   3.726   4.487 -0.2213 -0.0731 -0.0016
27952W        W43083   8.707  10.103  11.070  0.0437 -0.1118 -0.3486
27953W        W43084  13.880   2.709   2.430  0.0952 -0.1368 -0.0113
27954W        W43085  14.869  11.267  14.785  0.1382  0.2485  0.1320
27955W        W43086   3.150   9.709  11.530  0.1357 -0.0279  0.1559
27956W        W43087   8.774  12.033   0.347 -0.2886  0.0241  0.0083
27957W        W43088   7.274   2.733   2.792 -0.4007  0.0947  0.1077
27958W        W43089   8.293  13.442   2.843  0.0778 -0.2826 -0.1387
27959W        W43090  17.766   5.532   1.879 -0.2537  0.0833 -0.0113
27960W        W43091   5.079   9.401   2.673  0.1739  0.0179 -0.0524
27961W        W43092  13.723   0.718  14.480  0.1587 -0.0423  0.1577
27962W        W43093   5.930   5.257  12.295 -0.0106  0.4283  0.0364
27963W        W43094   0.812   4.484  11.699  0.1111 -0.0985 -0.0357
27964W        W43095   4.043  16.613   4.562 -0.2221  0.0175 -0.5195
27965W        W43096   4.417   6.845   0.541 -0.1030 -0.0143  0.1462
27966W        W43097   7.987   0.809  10.760 -0.0791 -0.0206 -0.0938
27967W        W43098   6.793  18.341   3.300 -0.1446  0.1865 -0.1957
27968W        W43099   0.049  13.872   2.493 -0.0848 -0.0644  0.3038
27969W        W43100   6.620   9.382   2.464  0.0574  0.1109  0.0089
27970W        W43101  17.651  14.522   6.472 -0.2433  0.2270  0.1415
27971W        W43102  10.331   1.380  10.847 -0.2553 -0.1670 -0.1595
27972W        W43103   0.871  11.072  15.294 -0.0859  0.0257 -0.1548
27973W        W43104   7.073   5.126  12.391  0.2596  0.2910  0.1095
27974W        W43105   6.294  10.198   5.255  0.2724 -0.0196 -0.2194
27975W        W43106   2.476  14.021   1.805 -0.2095 -0.3123 -0.4135
27976W        W43107   0.200  15.306  14.191  0.0486 -0.3074 -0.0044
27977W        W43108  11.152  13.180  11.092 -0.0189  0.0570  0.0796
27978W        W43109   7.314   9.165  13.916  0.0692 -0.2007 -0.0232
27979W        W43110  17.245   9.319   6.216  0.0627  0.2259  0.0067
27980W        W43111  15.745   6.199  13.246 -0.0394 -0.0128 -0.0040
27981W        W43112   3.906   8.637   5.490  0.2008 -0.2110  0.2700
27982W        W43113   7.731  13.916  11.032  0.1119 -0.0325 -0.1357
27983W        W43114   8.989   1.664  13.069  0.1324 -0.1367 -0.0034
27984W        W43115  14.566  14.323  15.790 -0.2952  0.0087 -0.0939
27985W        W43116  14.273   4.462  13.655 -0.3359 -0.2101  0.0065
27986W        W43117  17.698   8.065  15.740  0.4457 -0.0428  0.0857
27987W        W43118   5.694   4.610   4.812  0.3679 -0.1227  0.1434
27988W        W43119  13.096   1.384  15.824 -0.1291 -0.1308 -0.0766
27989W        W43120  18.098  11.057  13.730 -0.0243 -0.0235 -0.1180
27990W        W43121  10.470   3.093   0.658  0.2926 -0.3100  0.0901
27991W        W43122  12.131  17.270  12.589 -0.4145  0.0820  0.0729
27992W        W43123   0.275  14.146  11.222 -0.1217 -0.2671  0.0456
27993W        W43124  17.022  14.418  15.779 -0.0504 -0.0457 -0.0768
27994W        W43125  18.357   0.654  14.750  0.2808 -0.2414 -0.3037
27995W        W43126  15.678  18.463   2.173  0.0580 -0.0281 -0.2566
27996W        W43127   4.170  16.095   1.796 -0.0129 -0.2201  0.2290
27997W        W43128   0.495  17.736   3.583 -0.2809  0.0030  0.1684
27998W        W43129   2.851   1.573   5.430 -0.3255  0.1042 -0.1365
27999W        W43130   6.721   5.690   0.615 -0.0412 -0.2210 -0.0666
28000W        W43131   4.936  10.510  12.883  0.1692  0.0030 -0.0065
28001W        W43132   2.229   1.107  13.603  0.0334  0.2975  0.5009
28002W        W43133  12.370  10.762   5.045 -0.0629 -0.1053  0.0717
28003W        W43134  17.015  10.672   2.251  0.3619 -0.0866 -0.3312
28004W        W43135  13.413  11.196   5.047  0.1992 -0.1993 -0.0102
28005W        W43136   2.992   9.808  12.937  0.2408 -0.0977  0.3547
28006W        W43137  10.284  15.580   2.544  0.1321  0.0245 -0.1577
28007W        W43138  18.166  17.149  13.849  0.2471  0.0643  0.1895
28008W        W43139  14.589   4.315  10.218 -0.2198 -0.0101 -0.1697
28009W        W43140   0.104   8.750   1.256  0.2140 -0.1847 -0.1137
28010W        W43141   1.437   6.660  15.655 -0.3150  0.1005 -0.1339
28011W        W43142  16.103  14.632   0.184  0.3048  0.1426  0.0888
28012W        W43143   0.605   1.922  10.413 -0.2556 -0.0747 -0.3417
28013W        W43144  13.987   3.291   3.199  0.1974  0.0107 -0.0540
28014W        W43145  13.547   8.549  15.762 -0.1666 -0.1187 -0.3354
28015W        W43146  17.958  18.034   4.984  0.1374 -0.3610 -0.0508
28016W        W43147  11.473  10.767  11.725  0.2683 -0.1134 -0.1309
28017W        W43148   2.821   2.986   3.163  0.0042 -0.1143  0.3260
28018W        W43149   1.740  18.070  10.689 -0.3740 -0.0634 -0.1981
28019W        W43150  11.840  15.146  13.891  0.0892  0.1358 -0.1280
28020W        W43151   0.847  17.854   0.051  0.1669 -0.0507  0.0407
28021W        W43152   9.039   7.041   1.831 -0.1909  0.1616 -0.1854
28022W        W43153  15.645   3.153  14.463 -0.0530 -0.0601 -0.0178
28023W        W43154  17.159   0.869  12.313  0.0157 -0.2003  0.1184
28024W        W43155  15.687  11.505  10.664  0.0204 -0.1054 -0.1600
28025W        W43156   2.438  14.726   1.656  0.0141 -0.1348  0.0110
28026W        W43157   8.432   2.590  14.159  0.1103 -0.0892  0.4465
28027W        W43158   4.864  15.285  12.714 -0.1064  0.2151  0.0788
28028W        W43159  18.233   8.455   3.759 -0.1226  0.2572  0.1227
28029W        W43160  16.300  18.244   1.608  0.1040  0.0835 -0.0217
28030W        W43161   8.324   1.173   0.100 -0.0047  0.1790  0.0067
28031W        W43162  17.406  13.841   2.316 -0.2653  0.3213  0.3085
28032W        W43163  18.079   7.484  15.077 -0.0458  0.2950 -0.1427
28033W        W43164   9.440   8.396   1.619  0.2883  0.0485 -0.0578
28034W        W43165   6.671   3.659  11.915 -0.2854 -0.1557  0.0906
28035W        W43166   5.002   0.953   4.783  0.2588  0.1499 -0.0584
28036W        W43167  17.456   5.201   0.997 -0.1961  0.1075 -0.0586
28037W        W43168  17.198  12.711   3.172  0.0322 -0.0568  0.3642
28038W        W43169  10.625   8.335   2.999  0.2106  0.3446 -0.0853
28039W        W43170  18.177   6.795  14.148 -0.0800 -0.3827 -0.3391
28040W        W43171  15.714   2.836   2.174  0.1194 -0.1372  0.2158
28041W        W43172  10.432  11.507  10.817 -0.1949  0.2858  0.0358
28042W        W43173  12.798   0.377  14.215 -0.3431 -0.0031  0.0764
28043W        W43174   7.711   6.716   0.898 -0.2481 -0.0558 -0.3849
28044W        W43175  18.514   3.971   5.148  0.0864 -0.4434 -0.0818
28045W        W43176  13.199   4.558  12.528 -0.0448 -0.2146  0.3217
28046W        W43177  13.681  11.840  12.760 -0.1715  0.0775 -0.1065
28047W        W43178  17.883   8.999  12.058  0.2008  0.1990 -0.0322
28048W        W43179   0.087   1.474  15.806  0.4266  0.0627 -0.1206
28049W        W43180  12.902  14.053   0.103 -0.1546  0.3733  0.1624
28050W        W43181  16.081   9.519   3.117  0.2949 -0.4024  0.3329
28051W        W43182  18.388   7.552   3.862 -0.1086 -0.0829  0.0106
28052W        W43183  15.902  16.399   0.456 -0.0170  0.1959 -0.2441
28053W        W43184   5.764   2.638  14.965  0.2325  0.4688 -0.2244
28054W        W43185  11.304   8.031  12.118 -0.0738 -0.2063 -0.2412
28055W        W43186  10.987  14.574   2.765 -0.1704  0.0320  0.1163
28056W        W43187   0.451   6.122   0.601 -0.0626 -0.4847 -0.3023
28057W        W43188   5.648  10.787   3.379 -0.0739 -0.0262 -0.1260
28058W        W43189   0.843   7.098  12.723  0.1104  0.0739 -0.2548
28059W        W43190  10.030   7.815  15.461 -0.1568  0.0614 -0.1082
28060W        W43191   0.436   1.196  15.520  0.2838  0.1003  0.0136
28061W        W43192  18.426  18.537   0.297 -0.2383 -0.2697 -0.2082
28062W        W43193   0.689   8.400  13.414  0.1725  0.3080 -0.0095
28063W        W43194   3.454  11.988  11.873 -0.0523 -0.0017 -0.3202
28064W        W43195   9.014   3.139  13.596 -0.0749  0.2586  0.0877
28065W        W43196  17.384   3.229   0.346  0.1704  0.0257 -0.0225
28066W        W43197   4.072  15.833  11.348 -0.0241  0.2978 -0.2985
28067W        W43198   4.620   8.501   4.738 -0.1536 -0.1138  0.3783
28068W        W43199   4.691   4.715   0.909 -0.2404 -0.3470  0.0317
28069W        W43200   7.038   1.565   9.905 -0.0154  0.0259 -0.1632
28070W        W43201   1.530   1.336  15.432 -0.2080 -0.2025  0.1497
28071W        W43202  14.640   7.539   4.491  0.0709 -0.0768  0.4309
28072W        W43203  12.450   2.153  11.350  0.2213 -0.2750 -0.1971
28073W        W43204  11.639  18.054   1.714 -0.0616  0.0642 -0.3312
28074W        W43205   5.651   1.309   3.132  0.1058  0.2169 -0.1408
28075W        W43206  10.143  13.926   0.814 -0.0333 -0.0650  0.0556
28076W        W43207  10.245  17.780   0.313  0.0879 -0.0328  0.2176
28077W        W43208  12.222   4.173  14.902 -0.1227 -0.0507 -0.3108
28078W        W43209   1.684  15.387  12.905  0.1515  0.1145  0.3631
28079W        W43210   8.756   5.525  11.668  0.3563 -0.1176  0.0520
28080W        W43211  15.917   2.540  12.610  0.1432  0.0580  0.1998
28081W        W43212   2.003   6.929   3.402 -0.0547 -0.1135 -0.2165
28082W        W43213  17.562  10.051   2.912 -0.1133  0.0524  0.2306
28083W        W43214   3.862   6.779  14.780  0.3184 -0.0223  0.1309
28084W        W43215  16.702  12.983  15.180 -0.0123 -0.0512  0.2898
28085W        W43216  10.012  18.511   0.852  0.3234 -0.2551  0.1414
28086W        W43217   6.556   9.221   2.966  0.0858 -0.0370 -0.1097
28087W        W43218  10.263  10.815  15.716  0.0433  0.0836  0.1034
28088W        W43219  12.950   8.130   3.017  0.2756 -0.1033  0.1054
28089W        W43220   9.607   0.219   3.065  0.1887  0.0556  0.0644
28090W        W43221  13.654   6.883   1.203  0.2509 -0.2621 -0.2513
28091W        W43222  14.475  17.253   1.557 -0.2846 -0.0494  0.0482
28092W        W43223  17.038  14.963   4.736 -0.5130  0.1588  0.1427
28093W        W43224  11.974   2.719   0.515 -0.2763 -0.0249 -0.0078
28094W        W43225   9.755  16.636   3.814 -0.1737  0.3047 -0.2019
28095W        W43226   0.904   1.836   1.088 -0.0604 -0.2452 -0.0167
28096W        W43227   0.017  15.983  11.687 -0.2064  0.2102 -0.1385
28097W        W43228   3.434  18.352   5.792 -0.0884 -0.0460 -0.0802
28098W        W43229   7.397   5.265   1.351 -0.4111  0.2543 -0.1090
28099W        W43230   4.964  17.482   1.443  0.1724 -0.0448 -0.2044
28100W        W43231   8.410   8.667  12.944 -0.0871  0.2995 -0.2352
28101W        W43232   0.037   6.648  15.744  0.1645  0.4452 -0.0433
28102W        W43233  11.099  13.764   3.357  0.0891 -0.1805  0.2568
28103W        W43234   5.422   1.479   4.180  0.0526  0.2972 -0.2615
28104W        W43235   6.264   4.641   2.858 -0.1804 -0.1609  0.0569
28105W        W43236   4.770   9.025   2.919  0.0968  0.0423 -0.0624
28106W        W43237   9.767   0.477  12.826  0.0600  0.0092  0.0113
28107W        W43238   6.159  17.199   1.118 -0.1316 -0.2749 -0.0186
28108W        W43239   3.174   2.356  14.134 -0.0917 -0.1610  0.1041
28109W        W43240   2.107   0.333  13.611 -0.1294 -0.1723 -0.1683
28110W        W43241  18.141  14.381   3.941  0.0768 -0.1222  0.0205
28111W        W43242   0.371   2.947   0.268  0.0745 -0.2743 -0.2599
28112W        W43243   2.149  17.524   0.710 -0.1682 -0.0535  0.2695
28113W        W43244  16.040  10.542  15.829  0.1257 -0.3720  0.0311
28114W        W43245   6.720   9.974   3.353  0.1321 -0.2605  0.1619
28115W        W43246  17.048   7.497  14.159  0.0715  0.0083  0.0721
28116W        W43247  10.248   7.842  13.689  0.0254 -0.1303  0.1271
28117W        W43248   4.815   1.026   2.717 -0.2849 -0.2331 -0.1820
28118W        W43249   0.351   4.740  11.394 -0.2293 -0.1388 -0.3845
28119W        W43250   4.606  14.976  12.405 -0.0620 -0.0120 -0.0227
28120W        W43251  13.612   4.231  12.493  0.2749 -0.0331 -0.1575
28121W        W43252  18.305  13.563  10.351  0.0331 -0.0368 -0.0710
28122W        W43253   2.444   5.992   0.964  0.1758  0.0301 -0.0602
28123W        W43254   6.754   5.140  13.484 -0.0482 -0.3300 -0.2120
28124W        W43255   7.309   7.119   4.945  0.1546  0.0872 -0.0364
28125W        W43256  12.293   2.295   2.657  0.1417  0.0877  0.0832
28126W        W43257   7.357   7.943  15.153  0.2181 -0.1648 -0.1724
28127W        W43258   1.277   6.131  14.216  0.0187  0.0657  0.0708
28128W        W43259  14.394   8.806   3.737  0.1134 -0.1518 -0.0693
28129W        W43260   3.330   7.589   2.349 -0.1594 -0.0636  0.2974
28130W        W43261   7.216   5.857   1.683 -0.3038 -0.5295 -0.3474
28131W        W43262   9.612   5.574  11.159 -0.3935 -0.1078 -0.0199
28132W        W43263  16.227   4.034  12.543 -0.1593  0.2830  0.1422
28133W        W43264  15.395   1.990   5.452 -0.0076 -0.0060 -0.2796
28134W        W43265  13.996   3.646  14.249  0.0360 -0.1482 -0.1944
28135W        W43266   6.367   8.479   2.313 -0.0045 -0.2053 -0.2919
28136W        W43267   6.624  15.471  14.114  0.0311  0.0427 -0.1551
28137W        W43268   9.930  15.354  13.918 -0.0024 -0.1962 -0.1952
28138W        W43269   5.811  10.694  12.801  0.0906  0.1492  0.1741
28139W        W43270   6.552  16.444   1.797 -0.0609 -0.0745  0.0900
28140W        W43271  17.811  11.167  10.056  0.0644  0.2683  0.4389
28141W        W43272  17.283  15.007   1.021 -0.0068 -0.3066  0.4071
28142W        W43273  10.097  17.954  13.694  0.0412  0.3502  0.2229
28143W        W43274  18.530   0.725  12.283 -0.0491 -0.0206 -0.2002
28144W        W43275   2.485   3.101   0.034 -0.2046 -0.1676 -0.3622
28145W        W43276   3.201  11.983  10.938  0.2360 -0.4289  0.2878
28146W        W43277   5.170  12.589  15.934  0.0488  0.1178  0.2893
28147W        W43278  13.984  16.654   0.732 -0.1019 -0.0243  0.0949
28148W        W43279  13.974   1.735   4.897  0.0644 -0.2692 -0.4956
28149W        W43280  15.533  16.147   0.180 -0.2418  0.3331  0.1889
28150W        W43281  18.255   8.513  13.977 -0.0005  0.0342  0.0052
28151W        W43282  16.584   8.712   2.369  0.0457 -0.0502  0.0386
28152W        W43283   4.978  12.643  10.524  0.2329  0.1652  0.0620
28153W        W43284  13.155   5.093  15.547  0.0162  0.1413 -0.2077
28154W        W43285  16.360  14.049   1.187  0.0972 -0.1607  0.1262
28155W        W43286  14.974  15.619   3.126 -0.2157 -0.0047  0.3083
28156W        W43287  11.526   7.254   1.594 -0.0618  0.1614  0.0402
28157W        W43288  10.114   7.381  13.503 -0.1592 -0.2402 -0.0491
28158W        W43289  15.634  15.488   9.694  0.0126  0.0283 -0.2562
28159W        W43290  13.017  16.450  11.677  0.0243 -0.0854  0.1296
28160W        W43291   2.675   6.550   5.474  0.1009  0.1098  0.3610
28161W        W43292  13.287   2.073   3.059  0.0282 -0.1565 -0.0655
28162W        W43293   4.525   0.241  10.536 -0.0036  0.2150 -0.1836
28163W        W43294   9.935   3.199   4.477  0.1326 -0.0184 -0.1603
28164W        W43295  12.928   7.778  15.271 -0.3145  0.0267 -0.1679
28165W        W43296   9.849   6.203   3.488  0.4808  0.1082  0.1250
28166W        W43297   5.094   5.609  12.420 -0.1477  0.1039  0.0233
28167W        W43298   3.104  13.970   0.045 -0.0402 -0.0917  0.0416
28168W        W43299   0.552  11.493   2.361 -0.0394 -0.2711  0.1055
28169W        W43300   4.245   7.561   1.043 -0.0846 -0.1030  0.0600
28170W        W43301  10.632  12.497  15.536 -0.0458 -0.1616  0.4217
28171W        W43302  17.348  17.707   2.132  0.1210  0.1793 -0.1235
28172W        W43303  10.974  16.038  13.656  0.1195  0.1627  0.0992
28173W        W43304   6.097   2.657  13.510  0.1647  0.0234  0.0633
28174W        W43305   7.170   3.300   2.953 -0.3305 -0.0015  0.3609
28175W        W43306   8.344   5.935  11.349 -0.1029  0.0446  0.0532
28176W        W43307   5.761   2.978   5.068 -0.0462 -0.0641 -0.3472
28177W        W43308   5.533  13.248   0.000  0.0700 -0.4465  0.1778
28178W        W43309   5.989   9.610   4.516 -0.1576  0.0632  0.0403
28179W        W43310   5.352  12.666   0.413  0.1663  0.3168 -0.1733
28180W        W43311  17.818   4.305  14.885  0.1820  0.1815 -0.1648
28181W        W43312   7.898  17.156   0.945 -0.1011  0.0532  0.1989
28182W        W43313   9.460   4.297   4.471  0.1010 -0.3785  0.1349
28183W        W43314   3.178  12.932   0.307  0.0186 -0.1987 -0.0726
28184W        W43315  16.650   0.835   6.008 -0.0943  0.2776  0.1159
28185W        W43316   6.025  16.961  11.897 -0.2063 -0.0787  0.0214
28186W        W43317  16.176   7.258   1.397 -0.1145 -0.0521  0.3133
28187W        W43318   3.558   7.369   1.224 -0.0013 -0.0664  0.2398
28188W        W43319   2.047   4.930   0.142  0.1602  0.2237 -0.0570
28189W        W43320   7.438   7.313   1.268  0.2511 -0.0931 -0.2950
28190W        W43321   1.281   1.416   6.333  0.2259  0.2504  0.0304
28191W        W43322   5.576   5.448   1.313 -0.0843 -0.1235 -0.0282
28192W        W43323  17.657   5.890   3.344 -0.0812 -0.1373  0.1154
28193W        W43324   0.653  17.293  15.867 -0.2961 -0.0306 -0.2112
28194W        W43325  14.265   2.407  12.760  0.1058 -0.0610  0.3258
28195W        W43326   3.567   1.421  15.590  0.2394  0.1860  0.0800
28196W        W43327   7.541   7.536   2.266 -0.0066 -0.2701 -0.2108
28197W        W43328  15.086   9.666  13.584  0.0459 -0.1793 -0.1078
28198W        W43329  10.406   8.786  13.781 -0.0856  0.2580 -0.0636
28199W        W43330   8.754  11.083   0.542  0.0327  0.1186 -0.0854
28200W        W43331   5.159   4.278   3.217  0.0507  0.1075  0.0759
28201W        W43332  12.302   9.071  15.271 -0.1921 -0.1965  0.0827
28202W        W43333   4.015  14.428  11.007  0.0273 -0.1951  0.0403
28203W        W43334   9.370   0.689   0.053  0.1681  0.0879 -0.2112
28204W        W43335   4.566  10.234   0.066 -0.0174  0.0532 -0.1870
28205W        W43336   8.962   6.649  10.681  0.0293 -0.2565 -0.0204
28206W        W43337  10.450  16.951   2.452 -0.0066  0.0317  0.1591
28207W        W43338   6.612  17.939  15.833 -0.1768 -0.0812 -0.2379
28208W        W43339  15.714  10.895  14.770 -0.0137 -0.2159 -0.3085
28209W        W43340  13.400  16.986  14.656 -0.0790 -0.3648  0.2346
28210W        W43341  18.274   6.752   4.849 -0.1568 -0.1360 -0.1886
28211W        W43342  18.098   4.439   3.850  0.1165  0.0818  0.0247
28212W        W43343  11.006   1.734   1.361  0.1913  0.0714  0.3436
28213W        W43344  13.106   5.876   1.901  0.3357 -0.2643 -0.2336
28214W        W43345   9.398  15.680  15.859  0.1335  0.0213  0.1352
28215W        W43346  14.362   8.497  13.822  0.0036 -0.1092  0.5400
28216W        W43347   2.824   4.929   3.036 -0.3573  0.1411  0.1358
28217W        W43348  11.234  13.188  15.755 -0.2463 -0.0979  0.1079
28218W        W43349   2.488   3.505   1.282 -0.0002  0.3361  0.0302
28219W        W43350   6.601   7.036  14.007 -0.0946 -0.0469 -0.0299
28220W        W43351   8.990  17.752  11.779 -0.1287 -0.1146 -0.0011
28221W        W43352  15.400   1.800  11.097  0.2761 -0.1797 -0.3395
28222W        W43353  10.982  17.152   0.299 -0.0402 -0.0393  0.1364
28223W        W43354  13.027   6.022  14.145 -0.1976 -0.0384 -0.4526
28224W        W43355   7.066   8.219   4.490  0.3444 -0.3098  0.2597
28225W        W43356   3.150  13.704  13.562  0.0433 -0.1723 -0.0240
28226W        W43357   0.252   0.635   5.756  0.1310  0.0530 -0.0104
28227W        W43358   9.621  14.897   5.123  0.1513 -0.2076 -0.0731
28228W        W43359  15.643   5.240  15.303 -0.2211 -0.1903 -0.3131
28229W        W43360   7.460  11.454  11.824 -0.1125  0.1335  0.1430
28230W        W43361  18.064   7.685  14.612 -0.0021  0.3920  0.2099
28231W        W43362   1.860   7.950   4.302 -0.1494 -0.0437  0.0790
28232W        W43363   6.542   7.517   1.539  0.4761  0.1701  0.3413
28233W        W43364  14.176   5.318   2.424  0.1406 -0.2535  0.1697
28234W        W43365   2.731  17.641  10.906  0.1101 -0.0342  0.1103
28235W        W43366   3.546   7.687  12.622  0.1082 -0.0238 -0.1610
28236W        W43367   6.027  14.870   4.896  0.2042  0.0228 -0.1294
28237W        W43368   4.728   6.634   5.675  0.1234 -0.1751  0.1059
28238W        W43369  13.121  10.192   4.652 -0.2710  0.1245  0.3300
28239W        W43370  10.146  16.309   4.429 -0.3479 -0.3858 -0.1170
28240W        W43371   8.989  15.886   0.372  0.1964  0.0469  0.0835
28241W        W43372   5.064  10.742   3.049 -0.2715  0.3407 -0.0913
28242W        W43373  10.440   3.177   3.178  0.1922  0.3392 -0.0843
28243W        W43374  15.225  16.793  15.598  0.0133  0.2034  0.1282
28244W        W43375   5.918   5.874   4.291  0.3799  0.0075 -0.0986
28245W        W43376   6.913  14.817  13.089 -0.1503 -0.2345 -0.2566
28246W        W43377  16.117   7.855  15.829 -0.3725  0.3045 -0.0476
28247W        W43378  10.499  11.933  14.928 -0.0042  0.1473  0.0181
28248W        W43379  13.921   1.292  13.040 -0.1567  0.1551 -0.0503
28249W        W43380  18.366  12.742  10.838 -0.0203 -0.1133  0.2147
28250W        W43381   0.871  10.299   5.379  0.5545 -0.5494  0.1328
28251W        W43382   0.928   3.429   5.221  0.2634  0.2699 -0.2426
28252W        W43383  14.647   1.309   4.896 -0.2809 -0.3499  0.4269
28253W        W43384  17.638   1.964   3.822  0.4717 -0.2994  0.1266
28254W        W43385  14.963   9.333   2.908 -0.0644 -0.2097 -0.1980
28255W        W43386  13.763  11.114  13.441  0.1459  0.3619 -0.0827
28256W        W43387  11.947  18.220   3.525  0.3290  0.1680  0.0524
28257W        W43388  17.529   4.465  11.257 -0.0614  0.2269  0.1570
28258W        W43389   0.881   1.069  13.982  0.0733  0.2865  0.2143
28259W        W43390   3.294   9.172   2.651  0.0341 -0.3771  0.1532
28260W        W43391  16.910  14.482  11.713  0.1665 -0.0523  0.0858
28261W        W43392   4.714   7.142  12.997 -0.1459 -0.1671 -0.2767
28262W        W43393   3.830   3.232   5.379  0.2083  0.0679  0.2489
28263W        W43394   7.000  14.681   1.004  0.1536 -0.3326 -0.2322
28264W        W43395  12.329  16.698  13.713 -0.0578 -0.0340 -0.2111
28265W        W43396  10.293  14.929   0.383  0.2786 -0.1217  0.1402
28266W        W43397   3.084  10.801  12.856  0.3548  0.0376 -0.3647
28267W        W43398  13.700   1.936   2.738 -0.2314  0.2403 -0.1838
28268W        W43399   9.717  12.166   5.324  0.0938 -0.2476  0.2362
28269W        W43400  12.585   6.100   2.045 -0.2702 -0.0850 -0.0985
28270W        W43401  17.586   6.249   2.978  0.0043  0.1280  0.1007
28271W        W43402  12.243  17.427   2.044 -0.2654  0.0331 -0.1432
28272W        W43403  16.583  16.947   0.114 -0.0524  0.1685 -0.0085
28273W        W43404   4.185   8.602   5.038 -0.1262  0.1533 -0.2823
28274W        W43405  14.689   0.904   0.737 -0.0344 -0.0988 -0.2742
28275W        W43406  10.216   0.970   0.051  0.0252  0.1504 -0.0264
28276W        W43407   4.184   2.307  15.607 -0.4327 -0.0403  0.4593
28277W        W43408  18.505   3.037  15.945  0.0121  0.0006 -0.1736
28278W        W43409   6.101  10.459  12.448  0.2173 -0.3256  0.3417
28279W        W43410   3.285  16.670   0.109  0.0539  0.0079 -0.0037
28280W        W43411  10.750  13.211   5.327  0.6732 -0.0276 -0.0426
28281W        W43412  10.230   0.776  12.937 -0.1037  0.0246 -0.2903
28282W        W43413   9.776  12.536   1.076  0.0749 -0.2373  0.0382
28283W        W43414  13.283  13.885   4.559 -0.2186 -0.2273  0.0746
28284W        W43415   8.931  17.997   1.511 -0.0687  0.0559 -0.1995
28285W        W43416   1.224   3.251  14.197  0.1192  0.4191  0.0415
28286W        W43417   0.496  13.634   2.568 -0.4736 -0.0534  0.4340
28287W        W43418   7.647   7.610  12.511 -0.1217  0.2665  0.0864
28288W        W43419  15.845  14.376   1.924  0.3273  0.0279 -0.1771
28289W        W43420   9.339  18.010  10.637 -0.1044 -0.2128  0.0038
28290W        W43421   0.991   9.613   3.647 -0.3939  0.3803 -0.1728
28291W        W43422  15.518  10.442   1.706 -0.1349  0.1543 -0.1296
28292W        W43423   2.524   6.478   3.756  0.1684  0.0394  0.2305
28293W        W43424  14.096   6.865  12.885 -0.2164  0.4116  0.0793
28294W        W43425   1.145  16.652  14.605  0.0564  0.1220 -0.0505
28295W        W43426  15.387   2.516   1.930 -0.2417 -0.0588 -0.3043
28296W        W43427   5.325  10.274  14.353  0.1240 -0.1047  0.0158
28297W        W43428   0.084   7.947   3.980 -0.0526  0.3089  0.0394
28298W        W43429  15.441   0.571  15.243  0.1700 -0.2052 -0.1227
28299W        W43430  12.789  14.456  13.721 -0.1506  0.1402 -0.2714
28300W        W43431   8.426  14.841  10.120  0.1351  0.0576 -0.2311
28301W        W43432  13.524  16.011   0.034 -0.1348 -0.0530  0.1150
28302W        W43433  17.325   2.184   5.492  0.1156  0.0106  0.2983
28303W        W43434  10.780   3.439   2.406 -0.0341  0.1203 -0.2481
28304W        W43435   3.020   3.329   2.213  0.3065  0.1789  0.1281
28305W        W43436   9.135   5.562  12.341 -0.2016 -0.1135 -0.0346
28306W        W43437   3.115   6.777  14.374  0.1917 -0.0022  0.1462
28307W        W43438   9.890  12.031   1.181  0.1088  0.1618  0.3506
28308W        W43439   7.991   5.177   1.924 -0.1842  0.2161  0.2328
28309W        W43440   3.633  17.168  10.872 -0.2474 -0.3921 -0.1542
28310W        W43441  15.463   6.021   0.883  0.1457  0.2574 -0.1814
28311W        W43442  13.076   4.897   5.299  0.0634 -0.1267  0.0715
28312W        W43443   7.913  16.061  10.673 -0.0602 -0.0483  0.1698
28313W        W43444   3.509  14.839  12.851  0.1007  0.3538 -0.0729
28314W        W43445   2.686  13.205   1.364  0.0052  0.4289  0.0079
28315W        W43446   3.222   1.765   1.825 -0.0202  0.2189  0.4265
28316W        W43447   1.736  11.468   0.617 -0.0197  0.2044 -0.0155
28317W        W43448  13.062  11.679  13.853 -0.1533  0.0689  0.0741
28318W        W43449   0.217   2.586   3.660 -0.0877 -0.0344 -0.5182
28319W        W43450   7.816  10.105   2.293 -0.4142 -0.0369 -0.0517
28320W        W43451   4.076  11.028   3.824  0.1992 -0.1274  0.2072
28321W        W43452  14.320   9.812  15.332  0.1002 -0.0891  0.0981
28322W        W43453  15.338  10.442  14.826  0.0129 -0.0615 -0.1509
28323W        W43454  10.329   1.223   1.860 -0.2449  0.3277 -0.1635
28324W        W43455  15.010   6.701  14.607  0.3023  0.2154 -0.0861
28325W        W43456  14.674   1.199   0.220 -0.3139  0.1057  0.2035
28326W        W43457   5.233  16.014   0.316  0.4005 -0.0241  0.0072
28327W        W43458   3.204  11.516   0.330  0.2271  0.2435 -0.0539
28328W        W43459   6.066  11.401   0.879  0.1522 -0.1755 -0.0546
28329W        W43460   4.352   6.615   3.893  0.2858  0.1339 -0.0242
28330W        W43461   2.343   3.811   0.890 -0.1522  0.1990 -0.0246
28331W        W43462   1.434  13.532  13.029 -0.3879  0.2395 -0.0579
28332W        W43463   5.896   6.448   5.404  0.2720 -0.0859 -0.1277
28333W        W43464   9.217  12.155  12.694 -0.2567 -0.0446 -0.2677
28334W        W43465  14.153  18.050   2.633 -0.0847 -0.0621  0.2669
28335W        W43466   8.618  16.926  12.756  0.2065  0.3279 -0.1987
28336W        W43467   3.612  16.351  10.875  0.0269 -0.2181  0.0340
28337W        W43468  14.009  11.410   5.271  0.4088 -0.0387 -0.3335
28338W        W43469   0.661  16.951   5.337 -0.1675 -0.1542  0.0427
28339W        W43470   6.548  10.370  10.885 -0.1659  0.0573 -0.0908
28340W        W43471  12.866   5.764   5.400  0.0724 -0.0432 -0.0430
28341W        W43472  11.398   8.970   4.762  0.0695  0.1058  0.4417
28342W        W43473  12.951   7.146   3.389  0.1337  0.1178 -0.0546
28343W        W43474   2.583   6.976  15.882 -0.1070 -0.0898 -0.1076
28344W        W43475  15.323   5.239   2.336 -0.0846  0.1799 -0.0419
28345W        W43476   8.476  12.579  15.610 -0.3512 -0.2684  0.1525
28346W        W43477  14.546   0.774  13.972 -0.0384  0.2541  0.0524
28347W        W43478   8.129  10.472   0.212 -0.2495  0.0990  0.2115
28348W        W43479   4.833  10.088   5.543  0.0452 -0.0966 -0.0400
28349W        W43480  16.210   5.112   0.908  0.2314  0.0939 -0.0728
28350W        W43481   4.558   7.706   1.890 -0.0292 -0.4321  0.0324
28351W        W43482   7.596  10.052   1.728 -0.1367 -0.0965 -0.0679
28352W        W43483   6.077   9.393  15.753 -0.0661  0.3222  0.0975
28353W        W43484   2.841   2.791  15.641 -0.0509  0.1378 -0.1446
28354W        W43485  12.204   3.457  15.452  0.0540  0.5384 -0.1006
28355W        W43486   1.247  17.337   5.000  0.2424  0.3572 -0.1294
28356W        W43487  14.654   7.645   3.820  0.3486 -0.0949 -0.1289
28357W        W43488   2.013  18.425  10.060 -0.3406  0.1348  0.1099
28358W        W43489   9.095   4.098   5.706 -0.1595 -0.2386 -0.0931
28359W        W43490  10.223   0.810   4.176 -0.3137 -0.0822  0.0130
28360W        W43491   1.611  15.317  13.444 -0.0421  0.1890  0.0414
28361W        W43492   2.451   9.086  14.346 -0.0744 -0.0895  0.0482
28362W        W43493  15.748   6.336   5.604  0.2159  0.0821 -0.2905
28363W        W43494  18.392   2.015   4.942 -0.2087  0.2853  0.0834
28364W        W43495  15.609  11.702   4.032  0.2451 -0.0409  0.0020
28365W        W43496  14.705  10.914   0.525  0.4008 -0.0470 -0.0145
28366W        W43497   6.731   3.029  14.175  0.0796 -0.0993 -0.0376
28367W        W43498  10.118  18.291  10.728 -0.1367 -0.0393 -0.2363
28368W        W43499  10.645  18.394  13.526  0.1537 -0.1015  0.3350
28369W        W43500   2.352   3.012   2.808  0.3232  0.0380  0.1905
28370W        W43501   7.399  13.660  15.780  0.1778  0.1026  0.0002
28371W        W43502  18.280   3.372  14.028  0.3324  0.0477  0.1744
28372W        W43503   0.737  10.863  11.352  0.1666  0.2231 -0.1200
28373W        W43504  12.488   0.787   0.163  0.3268  0.1212  0.4464
28374W        W43505   2.744   4.581   5.303  0.2677 -0.0251  0.1638
28375W        W43506  13.106  10.000   1.964 -0.1539  0.2226 -0.1307
28376W        W43507   7.253   1.568  13.696  0.2136 -0.1414  0.1974
28377W        W43508   3.418  10.686   3.240  0.0913  0.1838  0.0707
28378W        W43509   2.227   5.339  15.313 -0.2625 -0.1400  0.0086
28379W        W43510   9.186   3.698  12.347 -0.2209 -0.0034 -0.2786
28380W        W43511   7.299   5.753   0.662 -0.1272 -0.2154  0.0472
28381W        W43512  14.443  16.026   5.615 -0.0729 -0.1483  0.1420
28382W        W43513   3.143   8.106   0.507  0.5208  0.3567  0.4476
28383W        W43514  16.834  14.481   3.295 -0.1379 -0.0043  0.0084
28384W        W43515  12.873  16.617  14.881 -0.0742  0.0481 -0.2500
28385W        W43516  15.655   9.079  11.815  0.1720 -0.2062 -0.0905
28386W        W43517  13.200  15.833   5.431  0.0807 -0.4093 -0.0320
28387W        W43518   6.802  12.554   2.342  0.3429  0.0782  0.0071
28388W        W43519   0.210   3.772   5.530 -0.0058  0.5291  0.0731
28389W        W43520   2.623  10.235  11.833 -0.0287  0.2858  0.4665
28390W        W43521   2.660  15.257  14.095  0.0404 -0.1520 -0.0567
28391W        W43522  15.501  11.272  15.590 -0.3271 -0.1657 -0.1011
28392W        W43523  13.546   4.880   1.530  0.1846  0.3378  0.1632
28393W        W43524  17.287  13.243   0.426 -0.1169  0.0161 -0.0244
28394W        W43525   7.157   7.597   4.996 -0.2808  0.0645  0.1371
28395W        W43526   5.840  11.640   3.743  0.0218 -0.0062  0.0703
28396W        W43527   7.309   9.692   4.174  0.3576  0.1042  0.1358
28397W        W43528   6.339   8.693   3.545  0.0576  0.3537 -0.0627
28398W        W43529   9.744  16.689   0.984  0.0255 -0.1778  0.2081
28399W        W43530  16.363   7.720  13.638  0.0625 -0.3340  0.1515
28400W        W43531   7.418  15.400   0.276  0.3205 -0.1772  0.2207
28401W        W43532  13.367   2.649  11.348 -0.2118  0.0300 -0.1580
28402W        W43533   9.128  11.538  12.673  0.2272 -0.1617 -0.0472
28403W        W43534  16.502   7.263   0.966  0.2298  0.0123  0.3749
28404W        W43535   2.700   6.127  14.415  0.0919 -0.3038 -0.0874
28405W        W43536  12.425   7.622  13.915  0.0455 -0.0601  0.1979
28406W        W43537   8.637   3.405  13.827 -0.1140  0.0937 -0.0493
28407W        W43538   1.844   7.089   5.883  0.0706  0.0244  0.2345
28408W        W43539  16.160  13.702   1.521 -0.2647 -0.1854  0.1483
28409W        W43540   4.476   7.261  11.548 -0.0795 -0.1735  0.0578
28410W        W43541  13.745  10.242  14.731 -0.1861  0.1636 -0.2931
28411W        W43542   6.522   1.251  15.003  0.1297  0.3011  0.2366
28412W        W43543   1.692  11.499  15.331  0.1266  0.2049  0.0527
28413W        W43544   7.540   0.698  12.514 -0.3894 -0.0163  0.1585
28414W        W43545   6.818   2.597  12.484 -0.0091  0.2987  0.2249
28415W        W43546  17.148   6.736  14.387 -0.0019 -0.0573  0.1033
28416W        W43547   7.214  15.475  15.261 -0.0286  0.2069  0.1497
28417W        W43548   7.856  15.627  11.866  0.1132  0.1193  0.0063
28418W        W43549  10.376   9.964   3.581 -0.1262 -0.0911 -0.0559
28419W        W43550  16.756   6.976   4.871  0.0590 -0.0486  0.0343
28420W        W43551   2.661   5.021   5.850 -0.2657  0.3438  0.0822
28421W        W43552  11.083   6.285  12.158  0.0791 -0.2375 -0.0705
28422W        W43553  13.931  10.147   2.847 -0.1728  0.1010 -0.0385
28423W        W43554   2.625   9.503   0.187 -0.1892 -0.0959  0.0831
28424W        W43555   5.291   0.670  10.183  0.3942 -0.0444 -0.5655
28425W        W43556   8.947   0.013   2.395 -0.2212  0.1881 -0.0762
28426W        W43557   9.655   7.797   3.976  0.0733 -0.0507 -0.1756
28427W        W43558   2.594   5.323   0.737  0.0580 -0.2326 -0.1095
28428W        W43559  16.211  16.314   1.390  0.1283 -0.0639  0.1492
28429W        W43560  10.781   3.034   3.904 -0.0127 -0.3258  0.0654
28430W        W43561  14.868   5.243  13.635 -0.0733  0.4153  0.0616
28431W        W43562   7.900  15.796   5.260 -0.0859  0.0420 -0.0587
28432W        W43563  15.356  14.129  12.107  0.1360  0.0599 -0.0179
28433W        W43564  16.319   4.586  11.912  0.1500 -0.1345 -0.2576
28434W        W43565  10.121  13.098   2.941 -0.0611  0.0297 -0.0936
28435W        W43566   2.118  16.912   3.962 -0.0776 -0.1750 -0.1719
28436W        W43567   9.107   9.429  15.377 -0.0093 -0.0962  0.0843
28437W        W43568  14.658  14.613  12.959 -0.2891 -0.0685  0.0576
28438W        W43569   0.045  12.366  14.811  0.1398  0.1541  0.0854
28439W        W43570  14.324   2.935   0.797  0.1497 -0.0244 -0.4368
28440W        W43571   4.723   4.303  11.231  0.4504 -0.0075  0.1207
28441W        W43572   3.093  10.369  11.890  0.3647  0.0114 -0.0490
28442W        W43573   0.562  11.181  13.446 -0.1239  0.0890 -0.0828
28443W        W43574  15.062   2.395   2.596 -0.1104 -0.4047 -0.1081
28444W        W43575   5.206  12.771   1.424 -0.1836 -0.0518 -0.0340
28445W        W43576  16.974   3.038  10.560 -0.1009 -0.2300 -0.1372
28446W        W43577  12.284  16.069   0.852  0.0634 -0.0995 -0.0247
28447W        W43578   5.572  11.988   4.088  0.0302  0.0016 -0.3191
28448W        W43579  15.742  16.404   5.012  0.0106  0.0497  0.3626
28449W        W43580   1.628   2.274  14.325  0.0751  0.0354 -0.1483
28450W        W43581  10.240   4.906  15.534  0.2180  0.0066  0.1791
28451W        W43582   1.500   7.503  12.354 -0.2401  0.2029 -0.0929
28452W        W43583   1.923   5.017   1.716 -0.3702  0.0436 -0.1027
28453W        W43584   9.668  15.610  14.371  0.2152  0.1357  0.1640
28454W        W43585  10.059   2.597  13.281 -0.1133 -0.0869 -0.0864
28455W        W43586   8.047   3.116   4.265 -0.1569  0.0114  0.1114
28456W        W43587   9.095  10.705   5.410 -0.2639 -0.1041  0.1772
28457W        W43588  17.727   3.559   2.303  0.0897  0.0999  0.2155
28458W        W43589   7.128   8.110  12.168 -0.3634  0.0531  0.0004
28459W        W43590  15.886  15.367  12.066  0.1196 -0.0895 -0.3221
28460W        W43591   4.218   1.878   5.390  0.1400 -0.4795  0.0291
28461W        W43592  16.140   5.165  12.866 -0.1008  0.0023 -0.1153
28462W        W43593   5.364   9.931  13.741  0.2060  0.1318 -0.2109
28463W        W43594  18.036  17.836  14.084 -0.1154 -0.0024  0.2456
28464W        W43595  14.430   5.906  14.865 -0.2082 -0.0191 -0.1369
28465W        W43596   1.287   9.451   5.520  0.1502  0.1428  0.0302
28466W        W43597   3.936  17.113  14.516  0.1136  0.0228 -0.1007
28467W        W43598   1.123   6.631  11.546  0.3742  0.1684  0.2895
28468W        W43599  15.486  17.579  15.875 -0.0401  0.0002 -0.1310
28469W        W43600  12.238   1.139   5.016 -0.2428  0.1096 -0.0058
28470W        W43601   1.938  13.517  15.670  0.3073  0.1509 -0.0203
28471W        W43602   6.598  15.426   3.285  0.0993  0.0654  0.2975
28472W        W43603  12.742   2.281  13.546 -0.1139 -0.2220 -0.1105
28473W        W43604   9.079   4.269  13.196  0.2087 -0.1970 -0.1624
28474W        W43605   4.651   6.278  11.488 -0.1935  0.0773 -0.0144
28475W        W43606   4.771   9.992   2.151 -0.0182 -0.0973  0.4531
28476W        W43607  15.804  15.752  12.393 -0.0989  0.0222 -0.2007
28477W        W43608   6.357  12.917   4.010  0.0564 -0.1677 -0.0460
28478W        W43609  16.759  17.928   5.227 -0.2734 -0.1286  0.1188
28479W        W43610   1.770   3.333  12.800  0.0389  0.4899  0.1286
28480W        W43611  17.198   6.511  12.364  0.3192 -0.2101 -0.2320
28481W        W43612   4.280   1.051   3.978 -0.1012 -0.1642  0.0207
28482W        W43613   0.930   7.393   2.899  0.1415  0.1486  0.0257
28483W        W43614   4.306   6.113  11.131 -0.1672  0.3163 -0.0206
28484W        W43615  15.171  15.401  14.606  0.0224  0.3783  0.2041
28485W        W43616  15.696   9.902  15.223  0.1477 -0.1371 -0.0660
28486W        W43617   1.096   5.267  14.549  0.3906 -0.0450 -0.1718
28487W        W43618  15.870   7.024   4.399 -0.1162  0.3132  0.0875
28488W        W43619  16.881  16.159  15.187 -0.0941  0.1557  0.0980
28489W        W43620   9.334   3.066   5.102 -0.2393  0.2148  0.0872
28490W        W43621   9.242   0.287  10.438  0.1247 -0.2976  0.0435
28491W        W43622   1.026   2.913   5.127  0.0764  0.1305 -0.2679
28492W        W43623  11.884  11.601  10.417 -0.1800 -0.2039  0.3071
28493W        W43624   3.123   8.783  14.966  0.2346 -0.0358  0.3434
28494W        W43625   5.656  16.201  12.558 -0.2378 -0.0132  0.0663
28495W        W43626  12.577  17.307  10.171  0.3185 -0.1177 -0.0953
28496W        W43627  11.284   3.301   1.471  0.2043  0.3155  0.0286
28497W        W43628  13.250   6.574   5.020 -0.0118 -0.0352 -0.0855
28498W        W43629   7.932   0.978  15.595  0.3450 -0.2843 -0.0885
28499W        W43630  16.042   1.760  15.741 -0.0008  0.0517  0.1997
28500W        W43631   9.241  14.478   2.010 -0.1101  0.0148 -0.0593
28501W        W43632   1.658   3.760   0.876 -0.1312  0.0704 -0.2707
28502W        W43633  11.260  14.516   9.455 -0.0962 -0.1510 -0.2259
28503W        W43634   6.756   4.614  15.811  0.3085 -0.3930  0.1830
28504W        W43635  15.008  15.509  11.267  0.0655 -0.0167 -0.1570
28505W        W43636  15.696  17.058  15.888  0.1415 -0.0575 -0.0784
28506W        W43637   1.237  14.124  13.315  0.0809 -0.1143  0.1332
28507W        W43638   1.053   1.937   4.906  0.0162 -0.0445  0.1184
28508W        W43639  12.159   0.078   4.009 -0.0930 -0.4379  0.0901
28509W        W43640   8.662   7.978   4.613  0.3857 -0.0054 -0.0447
28510W        W43641   8.280  18.070  12.315 -0.0272  0.1676 -0.3783
28511W        W43642  17.636  15.910  14.508 -0.0812  0.0251  0.0759
28512W        W43643   4.562   0.321  13.096 -0.0601 -0.1243  0.0507
28513W        W43644   1.722   0.152  15.756  0.0796 -0.1336  0.3436
28514W        W43645  15.951  18.410  15.897 -0.0337 -0.4951 -0.0850
28515W        W43646  12.310  17.535   4.616 -0.3100 -0.0779 -0.1167
28516W        W43647   1.834   1.448  13.974  0.2648  0.1231 -0.0243
28517W        W43648   8.660   4.634   3.075 -0.1490  0.4350 -0.3414
28518W        W43649  18.407   7.574   4.944 -0.0418 -0.1296 -0.0483
28519W        W43650  10.431  15.539  13.997  0.0125  0.2533 -0.0897
28520W        W43651   0.187  13.482   4.902 -0.4349 -0.2418 -0.2083
28521W        W43652   5.957   6.030   0.501  0.0244  0.2107 -0.1188
28522W        W43653   8.738   1.915   4.625  0.0908 -0.2443  0.1968
28523W        W43654   5.674  11.617  11.720  0.1378 -0.1323  0.3151
28524W        W43655   2.370   6.333   4.189  0.2928 -0.1719  0.2477
28525W        W43656  10.866   1.800  11.705 -0.1501  0.1945 -0.1497
28526W        W43657   0.818  14.595  12.911 -0.1304 -0.3079 -0.3726
28527W        W43658  17.868   2.777   3.527  0.2288 -0.0100 -0.4696
28528W        W43659   6.501   2.702   3.655 -0.4872  0.3778  0.0479
28529W        W43660  14.531   6.509   1.453  0.3087 -0.1679  0.0334
28530W        W43661  13.952  13.026   1.036 -0.0821 -0.1784 -0.1056
28531W        W43662  13.392  10.162  10.156  0.0058  0.3523  0.1374
28532W        W43663   8.676   8.716  15.800 -0.0504 -0.0732  0.2364
28533W        W43664  16.052   4.227   0.499  0.0203  0.1068  0.1436
28534W        W43665  11.989   0.960   0.108  0.0137  0.2729  0.0650
28535W        W43666   5.244   0.983   3.094  0.0876 -0.0443 -0.0090
28536W        W43667  18.432   7.346   2.439  0.4491  0.0169  0.1306
28537W        W43668   3.377   5.697   3.696 -0.2839  0.1373 -0.3389
28538W        W43669   8.141   7.348   2.952  0.4160  0.1759  0.0796
28539W        W43670   1.546   7.929   5.160 -0.0562  0.2312 -0.0801
28540W        W43671  14.382   0.976  13.493  0.0047 -0.1610  0.2098
28541W        W43672   1.272   1.934  12.129 -0.2126 -0.1744  0.0100
28542W        W43673   3.145   1.169   5.420  0.0450  0.2442 -0.3151
28543W        W43674   1.638  16.082   3.663 -0.1549  0.1603 -0.0092
28544W        W43675  17.284   0.920  13.783  0.2909  0.3359  0.1928
28545W        W43676   9.224  12.893  10.904  0.0107 -0.1350 -0.0676
28546W        W43677   0.616   7.972   3.665  0.2637  0.4295 -0.0647
28547W        W43678  14.171   2.133   1.162  0.1661 -0.0879 -0.1207
28548W        W43679  18.013  18.117   4.037 -0.0652  0.1796 -0.0165
28549W        W43680   0.815  18.458  12.510 -0.0275 -0.0968  0.2927
28550W        W43681   8.023   0.394   3.828 -0.0649 -0.0040  0.0213
28551W        W43682   6.562   7.418   3.734  0.2795 -0.1726  0.0318
28552W        W43683   4.527  17.776   1.094 -0.0089  0.0066  0.2284
28553W        W43684  17.547   6.949  13.506 -0.0384  0.0568  0.0068
28554W        W43685   4.854   9.148  14.840  0.1261 -0.2523 -0.0460
28555W        W43686  18.375  13.639   0.523  0.1174 -0.1480  0.4341
28556W        W43687  11.119  16.268  15.014 -0.1694  0.1527  0.0198
28557W        W43688   0.468   8.171  12.358 -0.0553 -0.1114  0.4520
28558W        W43689   7.987   1.177   9.893  0.3139  0.0584  0.2190
28559W        W43690   5.735   4.310  14.328  0.3140  0.1141  0.2834
28560W        W43691  13.748  16.732  15.442  0.2444  0.2183  0.0214
28561W        W43692  11.084   9.364  12.092 -0.4150 -0.0292 -0.0825
28562W        W43693  16.571   4.216   0.597  0.0341  0.0933  0.0379
28563W        W43694   5.182   3.876   4.142 -0.3716 -0.2434 -0.0337
28564W        W43695   6.481   6.581   0.908 -0.1166  0.2197 -0.0788
28565W        W43696  16.672  15.323   3.484 -0.0662 -0.0115  0.0922
28566W        W43697  15.990   9.598  11.523 -0.2341  0.0036 -0.0180
28567W        W43698  11.532  17.235   5.082 -0.1147  0.0906  0.1821
28568W        W43699  12.632  16.110  15.443  0.0171 -0.2143  0.1371
28569W        W43700   6.898   1.616   1.426  0.3385  0.1869  0.0650
28570W        W43701  17.130   3.133  11.001 -0.1597 -0.1493  0.1195
28571W        W43702   8.419   2.033   2.964  0.1355  0.2809 -0.0796
28572W        W43703  15.015   2.981  15.652 -0.1491 -0.1791  0.0076
28573W        W43704   3.333  13.619  11.041  0.1913 -0.4177 -0.0621
28574W        W43705   2.664   9.342  12.489  0.1354 -0.0180 -0.0246
28575W        W43706   3.749  17.745  13.502 -0.3345 -0.1042 -0.1013
28576W        W43707   4.156   3.492   4.485 -0.0655 -0.3064  0.2984
28577W        W43708   1.580   2.317   1.848  0.2199  0.1052 -0.2649
28578W        W43709  16.258  12.714  10.664  0.2663 -0.1114  0.2432
28579W        W43710   8.468  11.545  10.634 -0.0084  0.1239 -0.1757
28580W        W43711  12.248   3.645  14.607 -0.0623 -0.1261  0.2377
28581W        W43712  13.842   1.498  15.688 -0.1936 -0.1137  0.3479
28582W        W43713   3.713   4.217  14.028  0.3413  0.0549 -0.1274
28583W        W43714  12.516   1.720  11.576  0.0704  0.3132 -0.1847
28584W        W43715  12.929   2.759  11.050  0.2050 -0.3282  0.1816
28585W        W43716  16.880   1.776  13.738 -0.1247  0.0038  0.2092
28586W        W43717   5.756  15.577   1.606 -0.2091  0.2857  0.1480
28587W        W43718  11.785   1.988   3.373  0.3012 -0.2950 -0.2645
28588W        W43719  11.733   5.404  15.572  0.1339 -0.3820 -0.1676
28589W        W43720  10.481  16.606   3.205  0.0882  0.0791 -0.0734
28590W        W43721   8.378   0.719  15.182  0.2469 -0.4290 -0.0358
28591W        W43722   5.442  14.382  10.386  0.0154  0.2903  0.0982
28592W        W43723   9.620   3.990  12.353 -0.2150 -0.1301 -0.0539
28593W        W43724   7.421   6.900   0.012  0.2415  0.1261 -0.1120
28594W        W43725   1.602   6.050  12.211 -0.0967 -0.1871 -0.1781
28595W        W43726  17.738  13.344   2.229  0.1360 -0.2476 -0.2417
28596W        W43727   5.094   0.834  14.683  0.0424 -0.3288 -0.1028
28597W        W43728  14.439  15.827  13.005 -0.0023 -0.0420 -0.1477
28598W        W43729  17.296   6.283  14.556  0.2336 -0.1039  0.1550
28599W        W43730   1.570  18.319  15.937 -0.2830  0.0136  0.1948
28600W        W43731   6.427   2.489   4.516 -0.1364  0.2828 -0.1216
28601W        W43732   2.404   0.845   0.820  0.0091 -0.3010 -0.0595
28602W        W43733  10.384   0.856   3.147 -0.2392 -0.0466 -0.0667
28603W        W43734   8.559   6.176   2.322 -0.4602 -0.2582  0.0206
28604W        W43735   4.337  11.385   4.885  0.2897 -0.1740 -0.3524
28605W        W43736  17.089   6.845   3.243  0.0513  0.1239 -0.0946
28606W        W43737   9.818  15.908  10.679 -0.2845  0.3158 -0.1697
28607W        W43738   8.730  18.078  10.547  0.0160 -0.1502  0.1170
28608W        W43739   4.058  14.139   2.089 -0.2035 -0.0821 -0.1931
28609W        W43740  16.834  10.222   6.038 -0.1861  0.0648  0.2654
28610W        W43741  15.926   0.498  13.958 -0.2107  0.2622 -0.2558
28611W        W43742  17.903   4.443  13.489 -0.0442  0.1700  0.0547
28612W        W43743   3.912   1.430   0.023 -0.1541  0.1633  0.0466
28613W        W43744   4.855   4.995  12.438 -0.4246  0.3161 -0.3303
28614W        W43745  15.392  13.324   0.490  0.1065  0.1513 -0.0745
28615W        W43746  13.248  13.002  12.695 -0.1287  0.0384  0.1268
28616W        W43747   6.996   3.619  12.874 -0.0146 -0.1289 -0.5438
28617W        W43748   7.776  14.946   2.582 -0.2357 -0.0671  0.3215
28618W        W43749   6.226   2.834  15.112  0.2737  0.1054 -0.0884
28619W        W43750  14.502  10.386  14.728  0.2687  0.1083 -0.0924
28620W        W43751   4.049   1.344   4.353 -0.0433  0.0717  0.0694
28621W        W43752   2.040   9.642  15.140 -0.0402 -0.0018 -0.0703
28622W        W43753   6.862  13.876  13.400 -0.1228 -0.1325  0.3786
28623W        W43754   4.074   0.695  12.378  0.0102 -0.3263 -0.0084
28624W        W43755  13.235   2.817   5.690  0.1075  0.1569  0.0176
28625W        W43756   6.602  12.573  14.252  0.4408  0.0518 -0.0441
28626W        W43757   3.048   5.859   3.285 -0.0675 -0.3560 -0.0222
28627W        W43758   4.221  10.422   4.306 -0.0249  0.0825 -0.0275
28628W        W43759   0.952  14.931  13.999 -0.0745 -0.1120  0.2866
28629W        W43760  13.275  14.226   0.447  0.0881 -0.0293  0.1399
28630W        W43761   4.932   0.941  15.700 -0.1468 -0.2497  0.2352
28631W        W43762   5.607  13.790   5.666 -0.2085 -0.4466  0.0726
28632W        W43763  17.698   2.766   2.069 -0.0477 -0.0170  0.0933
28633W        W43764  12.118  11.055   3.077 -0.0815  0.0017 -0.0709
28634W        W43765   0.289  11.019  14.218 -0.1935 -0.0003  0.0967
28635W        W43766   8.379  10.013  14.563  0.1809  0.0085 -0.1120
28636W        W43767   1.296  16.198  14.093 -0.2428  0.2380 -0.0079
28637W        W43768   1.505  16.907   2.563  0.1484  0.1334 -0.1097
28638W        W43769  13.252   3.734   3.760 -0.2708 -0.3156 -0.4793
28639W        W43770   2.830   2.203  13.835  0.2033  0.0397 -0.0145
28640W        W43771  14.060  13.574   2.982  0.1047 -0.0785  0.3574
28641W        W43772   7.275  11.659  14.950  0.1174 -0.2688 -0.0083
28642W        W43773  17.668  10.716  13.297 -0.0136 -0.0242 -0.2045
28643W        W43774   6.407  14.784   2.128  0.0073  0.0153 -0.1680
28644W        W43775  11.745   1.228  11.244 -0.0641 -0.0569  0.4098
28645W        W43776  11.797   1.090   1.499  0.2013 -0.0481  0.2018
28646W        W43777  13.697   8.110   5.966 -0.0837 -0.1127 -0.3368
28647W        W43778  12.824  13.551  13.264 -0.1366  0.0643  0.2101
28648W        W43779   0.381  12.315   2.237 -0.0536 -0.0268  0.0218
28649W        W43780   5.699  17.885   2.670  0.1283 -0.0412  0.3216
28650W        W43781  14.086   4.619  11.789 -0.0029 -0.2254 -0.0801
28651W        W43782   7.509  15.678  14.250  0.2680  0.0133 -0.1325
28652W        W43783  13.397  10.358   1.677 -0.2965 -0.2158  0.3642
28653W        W43784  15.808  12.324   4.288  0.0521  0.0254  0.0332
28654W        W43785  17.738   9.900  13.618 -0.1539 -0.2604  0.4023
28655W        W43786   4.109  14.842   1.720 -0.1926  0.2250  0.2978
28656W        W43787   9.726   7.242  15.331  0.0789 -0.1263  0.2009
28657W        W43788  17.857   0.241  15.505 -0.0483 -0.1313  0.1251
28658W        W43789  15.283   7.986  12.871 -0.1910 -0.4724 -0.1077
28659W        W43790  15.403  14.279   4.927  0.0399 -0.1077 -0.0442
28660W        W43791   6.160  14.649   2.798 -0.3593  0.0433  0.1340
28661W        W43792  17.161   2.091  10.788  0.0939  0.0799 -0.2547
28662W        W43793  12.251   9.102   1.955 -0.1024 -0.1917 -0.2333
28663W        W43794  17.777   8.941   0.192 -0.0374 -0.4157 -0.2915
28664W        W43795  18.204   6.118  11.554  0.1745  0.1862 -0.1125
28665W        W43796   2.155  16.565  10.181 -0.0124 -0.1950 -0.1176
28666W        W43797  15.098  15.056  10.468  0.3309  0.0431  0.0774
28667W        W43798   9.341  16.537  13.496 -0.2853 -0.2646  0.2496
28668W        W43799  16.413   1.758   0.733  0.3623  0.3018  0.1817
28669W        W43800  14.149  12.976  12.815  0.1125  0.1470  0.1018
28670W        W43801  12.027   8.191   0.301  0.0998 -0.2677  0.2597
28671W        W43802  12.253   8.820  14.052  0.0575 -0.2228  0.1911
28672W        W43803   6.912  18.219  13.393 -0.1622  0.1568  0.0186
28673W        W43804  13.476   8.255  14.218  0.1634  0.2287 -0.1267
28674W        W43805  11.352  17.665  12.020 -0.0256  0.1757  0.1685
28675W        W43806  12.592   7.323   5.961  0.2241  0.2033  0.2200
28676W        W43807   1.344  10.487   5.122 -0.1240 -0.2225  0.4596
28677W        W43808   1.654   4.606   0.265 -0.2486  0.1676  0.0768
28678W        W43809  17.372   6.081  11.041 -0.1634 -0.1792 -0.0858
28679W        W43810  18.275  10.110  10.517  0.0125 -0.1267  0.0527
28680W        W43811   2.172   9.142  12.896  0.3239  0.2003  0.0868
28681W        W43812   3.799   9.530  15.150 -0.3510 -0.1199 -0.3312
28682W        W43813   3.118   3.193   0.775  0.1124  0.0568 -0.1666
28683W        W43814  15.731  12.938  15.151 -0.1330  0.1113  0.3611
28684W        W43815  13.313   1.486  12.169 -0.2481 -0.1316  0.0411
28685W        W43816  11.067  15.875  11.697  0.2622 -0.3023  0.0034
28686W        W43817   7.902   3.061  11.114  0.1364  0.0956  0.0032
28687W        W43818  10.431  13.687   2.522  0.2181  0.5384  0.3307
28688W        W43819   3.915  13.284  12.919 -0.2871  0.1642 -0.0906
28689W        W43820   7.028   4.419   4.084  0.3350  0.2958  0.2817
28690W        W43821  13.099   8.782  10.997 -0.0574 -0.2239  0.6069
28691W        W43822  12.772  16.286  13.046 -0.2377  0.3378 -0.0026
28692W        W43823   6.618   9.762  13.456 -0.0863  0.1406  0.1315
28693W        W43824  11.590   8.883   1.566  0.3444  0.2796  0.3148
28694W        W43825  17.693  13.220  15.474  0.1487  0.0070 -0.1438
28695W        W43826  10.455   5.331  13.375 -0.0707 -0.0971 -0.0689
28696W        W43827   5.233  12.318   4.015  0.2741 -0.0308  0.0081
28697W        W43828   1.214  18.124  11.601 -0.2378  0.2545  0.0178
28698W        W43829  12.951  12.640   1.594 -0.0645 -0.1629 -0.0141
28699W        W43830  13.090  16.160  15.734 -0.0939  0.0825  0.3101
28700W        W43831  12.140   7.921   4.287 -0.0174  0.0283 -0.0115
28701W        W43832  13.484  12.891  14.657 -0.3182  0.3711  0.0032
28702W        W43833   0.101  12.219   4.340  0.1682 -0.2526 -0.1439
28703W        W43834   2.251   7.585  14.462 -0.0315  0.3418 -0.0573
28704W        W43835   7.824  17.996   2.807  0.1310 -0.2384  0.3059
28705W        W43836  16.105  10.391   3.927 -0.3347  0.1482  0.0283
28706W        W43837   4.454  18.094  13.703 -0.1701 -0.1531 -0.3888
28707W        W43838   3.957   5.745  13.116  0.0654  0.1012  0.2496
28708W        W43839  11.215   2.138  12.181 -0.0422  0.1844 -0.1671
28709W        W43840  12.161  13.085  11.168  0.1562 -0.1605 -0.2792
28710W        W43841  12.825  16.111  12.549 -0.1556  0.4836 -0.1601
28711W        W43842   9.768   5.952   3.904 -0.3192 -0.1268 -0.1722
28712W        W43843  16.817   2.779   0.309 -0.2258 -0.1221 -0.1640
28713W        W43844   8.887  17.136   2.980  0.0842  0.1882 -0.0971
28714W        W43845   9.875   2.478  12.488  0.0064  0.1080  0.0722
28715W        W43846  13.896   1.805  14.307 -0.1571 -0.4411  0.0691
28716W        W43847   7.818   5.789  15.598  0.0192 -0.0994 -0.1033
28717W        W43848  17.116   1.292  15.661  0.0383  0.3016  0.0297
28718W        W43849  10.535   0.322   4.961 -0.0426  0.4284  0.1709
28719W        W43850  10.995  18.125   2.384  0.0625 -0.0242  0.1410
28720W        W43851   5.165  10.739  14.068 -0.4723  0.3327  0.1847
28721W        W43852  13.856   4.768   1.151  0.0920  0.0533 -0.0305
28722W        W43853   1.756   6.158   0.568 -0.1435  0.3591 -0.2930
28723W        W43854   5.815   5.744   0.968 -0.2696  0.4373  0.0740
28724W        W43855   8.907  12.675  11.853 -0.0292  0.0022  0.2245
28725W        W43856   0.348   3.294   3.934 -0.1061  0.4518  0.5123
28726W        W43857  10.224  10.935  14.767 -0.0904 -0.0335  0.0881
28727W        W43858   6.109  17.864   0.182  0.0820  0.0823  0.2469
28728W        W43859   3.044   7.367  14.805  0.0527  0.2191  0.2100
28729W        W43860   5.600   5.448  13.597  0.1260  0.1423  0.1574
28730W        W43861   4.750  11.094   5.573  0.1034 -0.0981  0.0473
28731W        W43862   6.920   6.559   2.923  0.1760 -0.0733  0.2642
28732W        W43863  16.201   9.332  10.905 -0.1480 -0.0622  0.2040
28733W        W43864  13.785   9.921   5.384 -0.0240 -0.2326  0.0285
28734W        W43865   2.786   5.522   2.213 -0.2776  0.1683  0.0248
28735W        W43866  11.083  11.283   2.030 -0.1004  0.1038 -0.2240
28736W        W43867  11.396   8.949   4.265  0.4129  0.3135  0.1775
28737W        W43868   0.161   5.703  11.402  0.2067  0.1555  0.2530
28738W        W43869   1.440   0.416  13.841 -0.0905 -0.1078  0.2100
28739W        W43870  11.767   9.871   1.553 -0.3148 -0.2302  0.1837
28740W        W43871   1.241  10.053  12.158 -0.3481 -0.0551  0.1993
28741W        W43872  12.794  12.121  13.802 -0.0808 -0.0424 -0.1441
28742W        W43873   2.138   9.712   1.583 -0.2680 -0.1272  0.2620
28743W        W43874   7.350   9.924  15.764  0.2347 -0.4167  0.0013
28744W        W43875  11.925   5.641  12.097  0.0488  0.1666 -0.0558
28745W        W43876   5.176   7.357   5.109  0.0224  0.0307  0.2819
28746W        W43877  13.904  14.131  10.979 -0.0196 -0.0731  0.1755
28747W        W43878   4.513   1.405   2.607  0.0058 -0.2250 -0.3833
28748W        W43879   2.838  10.213   4.897 -0.3270  0.0338  0.0324
28749W        W43880   2.578   9.842  12.652  0.0901 -0.1012  0.0886
28750W        W43881   4.078  12.981   1.021  0.2379 -0.0216 -0.1234
28751W        W43882  18.421   7.743   1.616  0.1288 -0.4348 -0.2661
28752W        W43883  16.798  17.722  13.039  0.0021  0.0175  0.0847
28753W        W43884   1.247  16.435   4.824 -0.1580 -0.0480  0.0248
28754W        W43885  13.676   9.730  12.414 -0.1268 -0.3286  0.1767
28755W        W43886  12.960  13.903   1.312  0.2234  0.1543 -0.2364
28756W        W43887  11.161  10.751  14.771  0.1553 -0.2961  0.1051
28757W        W43888  17.355  14.176   3.928 -0.0984 -0.2390 -0.0306
28758W        W43889   8.656   2.225  11.565 -0.1233  0.0209  0.0604
28759W        W43890   0.788   2.696   0.007  0.2293 -0.0870 -0.0058
28760W        W43891  18.205  17.990  13.334  0.2362  0.0942  0.1973
28761W        W43892  17.977   8.682   2.037  0.0295  0.2151 -0.6187
28762W        W43893   4.517   3.076   4.297  0.2784 -0.1331 -0.1082
28763W        W43894  14.781   8.655   3.105  0.0383 -0.1507  0.0060
28764W        W43895   7.604   4.378  11.878  0.1933 -0.1885  0.1157
28765W        W43896  11.668   6.400  11.637  0.0651  0.0527 -0.1230
28766W        W43897   6.448  16.458   3.397  0.1910  0.0697 -0.1338
28767W        W43898  16.696   6.407  13.019  0.2082 -0.2846  0.1981
28768W        W43899   1.725  15.987   2.031 -0.0802 -0.0716  0.3280
28769W        W43900  15.001   8.120   0.323 -0.0381  0.0536  0.1978
28770W        W43901   1.571   4.681   2.023  0.1068 -0.0215 -0.1646
28771W        W43902  13.408  13.728   0.539  0.1922 -0.0805  0.0688
28772W        W43903   5.458   0.626  13.186  0.1680  0.1504  0.2001
28773W        W43904  14.923   0.450   2.167  0.2973 -0.2773 -0.2532
28774W        W43905  16.669   1.001  12.201  0.1728  0.1917 -0.1141
28775W        W43906  10.626   1.714   0.397 -0.1165  0.4161  0.2238
28776W        W43907  17.429   2.414   3.634 -0.0595  0.1922 -0.1174
28777W        W43908  17.811  15.033   3.781  0.1203  0.2673 -0.1164
28778W        W43909   0.153  13.559   0.948 -0.1063 -0.2449  0.0495
28779W        W43910   4.748   3.568   5.473 -0.0009  0.1532  0.0048
28780W        W43911   0.145  15.012   1.396 -0.0300 -0.2468 -0.3470
28781W        W43912   9.327  18.370  14.535  0.1439 -0.1242 -0.3579
28782W        W43913   5.729   7.187   4.135 -0.1199  0.4491 -0.2177
28783W        W43914   7.472   0.652  11.995 -0.0043  0.0922 -0.0449
28784W        W43915   2.725  13.705  10.266 -0.1542  0.1645 -0.1230
28785W        W43916  12.628   2.376  14.957 -0.1062  0.0744  0.0125
28786W        W43917   0.941   8.599  11.202  0.0594 -0.0239  0.0410
28787W        W43918   2.927  14.943  13.340 -0.3585 -0.3466 -0.0038
28788W        W43919   5.138   8.455   1.047 -0.1169  0.3547  0.1362
28789W        W43920  14.390   5.760   2.287  0.2595 -0.3052  0.1384
28790W        W43921  14.570   0.559   5.518  0.1383  0.0089 -0.0437
28791W        W43922  17.009   0.375   4.164 -0.0280  0.1713  0.1624
28792W        W43923  17.132  10.683  11.601 -0.5011 -0.2359 -0.1258
28793W        W43924   3.952   5.172   0.343 -0.1785  0.0933 -0.2089
28794W        W43925   4.522  10.538   3.087  0.3830  0.0602  0.0064
28795W        W43926  14.419  13.317  13.191 -0.1834  0.2647  0.4165
28796W        W43927  10.496   4.372   5.831  0.1988 -0.5276 -0.0287
28797W        W43928   3.747   4.036   3.790  0.0062  0.0277 -0.0104
28798W        W43929  18.306  18.291  14.198 -0.2458 -0.4902  0.1391
28799W        W43930  16.093   6.923   0.930 -0.0159  0.1830  0.0129
28800W        W43931   0.275   8.150   9.975 -0.1166 -0.1081 -0.0465
28801W        W43932   5.744  11.315  12.769  0.0641  0.0952 -0.1993
28802W        W43933   8.730  11.151   4.174  0.0733  0.0848 -0.0077
28803W        W43934   7.048  15.533   3.452 -0.1812 -0.1478  0.0166
28804W        W43935   5.134  18.531  10.607 -0.0929 -0.0086 -0.0170
28805W        W43936   6.689  12.535  13.223 -0.4462  0.3696 -0.0260
28806W        W43937   5.064  17.712  13.119  0.0515 -0.2587 -0.3591
28807W        W43938   7.041   1.744  14.988  0.2780  0.2466 -0.1581
28808W        W43939   4.953  16.474   1.738 -0.1389  0.1602  0.2928
28809W        W43940   3.882   9.893  13.071  0.4464 -0.2621 -0.2073
28810W        W43941  11.287   6.469  14.240  0.1184 -0.0853 -0.0557
28811W        W43942   8.205   0.348   3.036 -0.4146  0.4196  0.0155
28812W        W43943   9.720   0.099  13.391 -0.0697 -0.1273  0.2966
28813W        W43944  10.940  16.470   0.937 -0.2160  0.0049  0.0015
28814W        W43945  18.487  18.409   5.111 -0.0003 -0.1174  0.0696
28815W        W43946  15.682  14.998   3.505  0.3890  0.0266  0.2626
28816W        W43947  16.276   1.812   4.157  0.0572 -0.0394 -0.0993
28817W        W43948  10.374   6.478   4.619  0.4281 -0.1539  0.0803
28818W        W43949   9.438   5.479  12.818  0.3047 -0.0672  0.0038
28819W        W43950   2.638  13.817   4.689  0.3949 -0.0517  0.0953
28820W        W43951   9.427   0.780  14.580  0.1344 -0.0593 -0.0139
28821W        W43952  10.561  17.865  11.853 -0.0463 -0.0364  0.1879
28822W        W43953   8.921  11.794  10.623 -0.1834  0.0172  0.1993
28823W        W43954   1.229   4.875   2.523  0.2923 -0.1021  0.0514
28824W        W43955   7.508  10.356  11.729  0.1020 -0.2858  0.1921
28825W        W43956  11.500   4.813  13.857 -0.0863  0.3625 -0.1296
28826W        W43957  12.291   6.692   1.192  0.0246  0.0238 -0.0912
28827W        W43958   1.744  15.178   5.929  0.2397  0.2731  0.1046
28828W        W43959   3.826   8.475   3.627  0.0466  0.1527 -0.1653
28829W        W43960  17.293  16.216   5.277  0.1129 -0.2282  0.2563
28830W        W43961   0.930   1.449  14.851 -0.1843  0.0554  0.0063
28831W        W43962  13.743   1.926   1.011 -0.2626  0.1740 -0.2024
28832W        W43963   6.328  15.465  14.973 -0.0662  0.2072 -0.1720
28833W        W43964  14.290   5.005   4.350 -0.2263 -0.0519  0.0276
28834W        W43965  18.002  17.832   0.202 -0.0638  0.0973 -0.0792
28835W        W43966  15.789  10.925  12.180 -0.1236 -0.3448  0.0117
28836W        W43967  15.176   1.929  14.438 -0.0933 -0.1482  0.1812
28837W        W43968  16.133   0.047   1.891 -0.0275 -0.0394  0.2268
28838W        W43969   6.183  14.078  12.843  0.1301  0.0488  0.1432
28839W        W43970   3.463   5.869  15.519  0.1621 -0.1989 -0.1114
28840W        W43971  15.934  18.343   4.225 -0.3167  0.1243  0.4233
28841W        W43972  10.563  14.632  10.520  0.0715 -0.4927  0.1953
28842W        W43973  13.185   6.869  13.177  0.0469  0.0132 -0.2074
28843W        W43974   4.930   1.340  11.132  0.1964  0.2311  0.1586
28844W        W43975  12.704   3.788  13.763 -0.3073  0.1267  0.1957
28845W        W43976  16.422   8.061  15.480  0.2499 -0.0755  0.0858
28846W        W43977   2.314  11.419   1.914 -0.0795 -0.0781  0.1464
28847W        W43978  18.485   8.424  14.608 -0.1076  0.0006  0.2209
28848W        W43979   9.658   2.716  12.955  0.0497  0.1859 -0.1702
28849W        W43980  18.258  12.662  12.013 -0.0145  0.1650 -0.2516
28850W        W43981   2.799  16.905   5.636 -0.1144  0.1954 -0.3154
28851W        W43982   7.090  10.809  15.061  0.0835 -0.4629  0.3103
28852W        W43983  14.320   4.500   1.935 -0.1041  0.1015  0.1274
28853W        W43984   5.236  13.159  10.577 -0.0116 -0.4583  0.2882
28854W        W43985   7.984   0.526   0.910  0.0207  0.0537  0.2336
28855W        W43986   4.319   6.181   3.447 -0.4577  0.1077 -0.2103
28856W        W43987  16.023  11.059   3.266 -0.2519  0.0902 -0.0745
28857W        W43988  17.380  13.869   4.315  0.3606 -0.0983 -0.1073
28858W        W43989  12.064   7.623  14.962 -0.0220 -0.2766  0.0879
28859W        W43990   8.731  11.035  12.278  0.2934  0.0893  0.2497
28860W        W43991   3.977   0.418   1.090  0.2242 -0.0647 -0.0618
28861W        W43992  10.110   2.335   2.496 -0.0750 -0.0037  0.0931
28862W        W43993   4.078  16.558   1.109 -0.0902 -0.0755  0.0128
28863W        W43994  12.754   1.358   2.658  0.2057  0.2221  0.0024
28864W        W43995   4.279   0.983  11.225  0.1092  0.2280  0.4446
28865W        W43996  11.355   2.818   2.217 -0.0280  0.0114 -0.1398
28866W        W43997   5.988   1.451  12.420 -0.0436  0.1674  0.1236
28867W        W43998  11.040   8.676   1.349  0.1126 -0.0424  0.1108
28868W        W43999  18.356   0.363   2.299  0.0965  0.0133  0.1143
28869W        W44000   9.772  15.599  12.154 -0.1059  0.0333  0.1643
28870W        W44001  12.208   3.101  14.519  0.0221  0.0791 -0.1179
28871W        W44002   8.222  17.654  15.044  0.3473  0.0756  0.0146
28872W        W44003  10.524   6.253   1.626  0.1146  0.0419  0.1545
28873W        W44004   5.060   1.977  13.726  0.2613  0.3833 -0.2572
28874W        W44005  17.735  17.105   5.199 -0.1396 -0.0654 -0.0739
28875W        W44006  10.151  17.803   2.169  0.1684 -0.2224  0.0443
28876W        W44007  17.472  13.481  13.997  0.0165  0.2710 -0.0900
28877W        W44008   7.234   4.861  10.831 -0.0966  0.1644 -0.0210
28878W        W44009   5.381   1.518  11.274  0.1597 -0.1791 -0.0945
28879W        W44010   0.253  16.719  14.261 -0.0076  0.0518 -0.3559
28880W        W44011   2.354  12.243   5.590 -0.1588  0.0477 -0.0274
28881W        W44012  13.447  14.524   2.216  0.1550 -0.0076 -0.0156
28882W        W44013   7.859   4.821   1.607 -0.3196  0.2431  0.2350
28883W        W44014  10.409   1.675  11.918 -0.0571 -0.2771 -0.4074
28884W        W44015   2.206   4.777   4.884  0.1407  0.3787  0.0853
28885W        W44016  15.450  14.661   0.324  0.0761  0.1591 -0.0295
28886W        W44017  14.889   5.729  11.354 -0.2131  0.0318 -0.1377
28887W        W44018  16.462   6.595  12.564  0.0035  0.4108 -0.1529
28888W        W44019  10.202  15.680   9.880  0.0882 -0.4101  0.0215
28889W        W44020  10.868   9.376   2.007 -0.1208  0.1412  0.1473
28890W        W44021   0.449   0.436   5.372  0.0111 -0.2364  0.2397
28891W        W44022   1.821  12.435   0.807 -0.1483 -0.1246  0.0172
28892W        W44023  15.350   6.745   1.360  0.0155  0.1863  0.1768
28893W        W44024  10.364  14.402  15.046 -0.0766  0.2780 -0.3986
28894W        W44025   6.979   4.198   3.049 -0.0915 -0.1418  0.2368
28895W        W44026   2.203  11.901   5.193  0.1083  0.0436  0.0612
28896W        W44027   2.618   3.013  12.283 -0.4442  0.1652 -0.0150
28897W        W44028  18.237  13.368   1.106 -0.0089  0.1545 -0.0918
28898W        W44029   2.538  14.661  14.699  0.0305 -0.0122 -0.1647
28899W        W44030  13.916   7.941  11.978 -0.0044  0.1217  0.3841
28900W        W44031  18.168  10.823  13.191 -0.1427 -0.0447 -0.2883
28901W        W44032  18.258   8.236   4.552 -0.0026 -0.1021 -0.3164
28902W        W44033  17.269  12.110   2.383  0.1172  0.0904  0.2763
28903W        W44034   7.121   9.863  10.768  0.0651  0.0707  0.0152
28904W        W44035  13.074  16.814   3.855 -0.1568 -0.3929  0.2026
28905W        W44036  10.223  18.555  15.778 -0.1096 -0.0458 -0.2687
28906W        W44037  16.152  17.833  13.540 -0.2807 -0.3292  0.0516
28907W        W44038   3.966   8.108   1.173 -0.1402  0.0096  0.2087
28908W        W44039  18.530   4.955  15.653  0.3526 -0.1073  0.0832
28909W        W44040   9.622  18.525   2.282 -0.0595 -0.0551 -0.2812
28910W        W44041   3.754   6.570   1.237  0.1253 -0.1240 -0.3252
28911W        W44042  18.506   5.194   1.454 -0.1963 -0.2467  0.2170
28912W        W44043   6.629  13.061  14.048 -0.0134  0.2559  0.0775
28913W        W44044   5.890   7.180   4.636 -0.0946  0.0240 -0.2234
28914W        W44045  14.846  11.441   4.809  0.3239 -0.0410 -0.1867
28915W        W44046   4.121  14.454   3.861 -0.0979  0.1758  0.0477
28916W        W44047  11.365   7.846  11.134 -0.1766 -0.3592  0.1190
28917W        W44048  14.539  11.984   4.207  0.2070  0.0085  0.1927
28918W        W44049  12.742   7.732  14.824 -0.2521 -0.2864 -0.2155
28919W        W44050  14.571  17.695   1.781  0.2620 -0.1613 -0.0353
28920W        W44051   7.132  15.036   0.624 -0.2503 -0.0608  0.0353
28921W        W44052   1.859  17.759  14.005  0.0108  0.1832 -0.1762
28922W        W44053   5.274   0.959   1.467 -0.0627 -0.0300  0.5153
28923W        W44054  17.676  16.652  12.650 -0.2429  0.2242 -0.1745
28924W        W44055  13.514   0.522  12.097 -0.0981  0.2217 -0.0658
28925W        W44056  11.574  13.985   4.626  0.0162 -0.2876  0.0817
28926W        W44057   5.911  11.013  11.479 -0.0367  0.1436 -0.0200
28927W        W44058  14.487   2.424   0.802  0.1564 -0.1304 -0.1650
28928W        W44059   0.844  13.871   0.287  0.2497 -0.1091  0.1575
28929W        W44060  12.353  14.804  10.587 -0.3392  0.3881 -0.0507
28930W        W44061   5.659  10.707   4.594 -0.1038  0.1348 -0.0562
28931W        W44062  11.814  14.943   1.158  0.1805  0.2712  0.2171
28932W        W44063   6.692  15.954  15.733 -0.0741  0.2908 -0.0742
28933W        W44064   2.102  11.963   3.849 -0.0360  0.3230  0.0158
28934W        W44065   1.916   2.092   2.258  0.2801  0.0577 -0.0688
28935W        W44066  12.096   0.006  15.436  0.0569  0.3468  0.0531
28936W        W44067  15.220  15.991   5.028 -0.0968  0.4141 -0.1774
28937W        W44068   7.831  16.334  13.107 -0.2298 -0.2830 -0.0345
28938W        W44069   6.562  17.262  15.206  0.0267 -0.2305  0.0939
28939W        W44070   5.573  13.851  13.625  0.2771 -0.2155  0.0538
28940W        W44071   0.130   7.631  11.794 -0.1387  0.3153  0.0148
28941W        W44072  17.194  15.043  11.061 -0.1665 -0.2574 -0.0792
28942W        W44073   5.551  14.229   3.132  0.1512  0.1556  0.0283
28943W        W44074  12.814  12.706  13.930 -0.0799 -0.0334 -0.0266
28944W        W44075   6.168   3.154   0.830 -0.0389  0.0067  0.2752
28945W        W44076   9.431   3.232  14.072  0.1020 -0.0950  0.0075
28946W        W44077  13.007   8.201   0.563  0.1544  0.1796  0.2148
28947W        W44078   5.434  15.627   3.308 -0.2348  0.2822 -0.1773
28948W        W44079  12.706  10.817   0.013 -0.0353  0.2566 -0.1784
28949W        W44080   9.367   6.276  12.250 -0.3279 -0.1440 -0.2624
28950W        W44081   5.935  12.429   5.290  0.0022  0.1207 -0.0451
28951W        W44082  16.318   3.621   5.784 -0.3625 -0.1869  0.1169
28952W        W44083   7.015   3.061   5.476  0.0682  0.1861 -0.3396
28953W        W44084   1.857  12.143   5.701 -0.2689 -0.0244  0.3435
28954W        W44085   7.157  10.408   1.591  0.1418  0.0451  0.2765
28955W        W44086  16.843   8.958   0.031  0.2240 -0.1499 -0.1918
28956W        W44087   2.802  13.357  11.846  0.3382  0.3394  0.0693
28957W        W44088   2.844  16.437   4.498  0.1209  0.1461 -0.0968
28958W        W44089  16.539  17.810   1.433  0.1986  0.2547  0.6025
28959W        W44090  17.374  10.286   5.996  0.2687 -0.1285  0.2801
28960W        W44091   0.771   6.043   2.469 -0.1570  0.4804 -0.0819
28961W        W44092  17.021  12.913   0.199 -0.0555  0.1781 -0.1406
28962W        W44093  18.515   8.152   3.007 -0.2173  0.1361  0.1749
28963W        W44094   9.068   3.593  13.928 -0.2423  0.1820  0.0625
28964W        W44095  17.314   3.736   4.914 -0.0681  0.1399 -0.0876
28965W        W44096   4.546  18.542  15.624 -0.1507 -0.0775 -0.0825
28966W        W44097  17.551  10.062  14.986 -0.1345  0.2922 -0.1683
28967W        W44098   0.981   2.360   0.521  0.0047 -0.2450 -0.0730
28968W        W44099  10.539   4.718  15.205 -0.1719 -0.2426 -0.1210
28969W        W44100   5.195   5.586   3.435 -0.0386  0.0004  0.4209
28970W        W44101   9.109  12.019   1.529  0.1535  0.1217 -0.0315
28971W        W44102  16.924   8.044   3.897  0.0280 -0.2719 -0.1787
28972W        W44103  18.267   1.398  11.435  0.5238 -0.1998 -0.0697
28973W        W44104   3.614  17.440  13.153 -0.4512  0.2617 -0.0924
28974W        W44105  11.683   5.894  14.176 -0.1401  0.3855 -0.2920
28975W        W44106  17.770  16.126  15.562 -0.0888 -0.1740 -0.0254
28976W        W44107  11.143   5.478   0.186  0.0591 -0.3383  0.2594
28977W        W44108  10.768   9.061   1.595 -0.3476  0.0483  0.1767
28978W        W44109  17.801  12.018   3.092  0.0995 -0.5376 -0.0853
28979W        W44110   9.091   2.531  11.794 -0.2060  0.0548  0.2756
28980W        W44111  16.929   9.157   0.600 -0.2366 -0.1753 -0.1108
28981W        W44112  14.411  12.022  13.727  0.1402  0.0027 -0.0206
28982W        W44113  10.723   0.284  15.741 -0.3272 -0.1004 -0.1581
28983W        W44114   2.267   9.301   1.133  0.0261 -0.2251  0.3122
28984W        W44115   1.471   6.588   2.202  0.4663 -0.0946 -0.3043
28985W        W44116  10.027  15.438   4.009  0.2526 -0.0326  0.0029
28986W        W44117   1.169  18.165   5.392  0.4274 -0.2537  0.0244
28987W        W44118   5.027   6.557   0.904 -0.0219 -0.2610  0.1527
28988W        W44119   1.248  17.204  10.623 -0.3177  0.1032  0.1398
28989W        W44120   6.947   3.760   2.709 -0.1247  0.1447 -0.0430
28990W        W44121   1.680  14.766   0.075 -0.0954 -0.3112 -0.1522
28991W        W44122  16.752   7.149  15.566  0.1714 -0.2261 -0.1681
28992W        W44123   6.834  17.600   4.935  0.2295  0.3619 -0.2033
28993W        W44124  12.570   5.651   0.820 -0.0939 -0.2875 -0.2379
28994W        W44125   5.757  16.270  14.947 -0.2522  0.0481 -0.0685
28995W        W44126   7.728   3.683   5.135  0.2080  0.0565  0.0834
28996W        W44127  10.507   7.252  11.265 -0.4898  0.2699  0.2033
28997W        W44128   9.237  13.282   3.169 -0.2789 -0.0007  0.1047
28998W        W44129  11.377  15.269   1.277  0.2065 -0.0705 -0.3416
28999W        W44130   2.180   1.406   4.210 -0.0632 -0.1807  0.2832
29000W        W44131   5.234   3.668   3.653  0.0597 -0.1026  0.1188
29001W        W44132   6.484   4.660   4.340  0.3060  0.2257  0.1572
29002W        W44133  12.177  11.708   4.705  0.0882  0.2120  0.1758
29003W        W44134   8.210  11.142  10.909 -0.1323 -0.2257 -0.1991
29004W        W44135   4.375   4.434   5.234 -0.0720  0.2416  0.2267
29005W        W44136  13.120  13.556   0.014  0.0236 -0.1398 -0.2025
29006W        W44137   6.765  12.280   4.419 -0.1940 -0.2101 -0.2561
29007W        W44138  12.852  17.283  13.966  0.0472  0.2327 -0.0762
29008W        W44139   1.274  15.232   2.022 -0.0546 -0.3373 -0.1114
29009W        W44140  15.231  15.318   0.520 -0.5802 -0.0020  0.0453
29010W        W44141  16.558   8.898  12.743 -0.1286 -0.1594  0.1706
29011W        W44142  16.816  12.979   3.746  0.3863 -0.3132 -0.2281
29012W        W44143  10.042   5.521   1.414  0.0131 -0.0291 -0.0893
29013W        W44144   7.627  15.896   0.196 -0.0095 -0.0184  0.1871
29014W        W44145  10.706  11.456   1.060  0.1604 -0.1936  0.2233
29015W        W44146  16.780   8.546  13.707 -0.0347 -0.1712 -0.1306
29016W        W44147  13.154  12.359   1.199 -0.3598 -0.0500 -0.0147
29017W        W44148   9.633  11.489   1.648 -0.0941  0.1620  0.2345
29018W        W44149  17.385  12.453   4.653  0.0276  0.0175 -0.1467
29019W        W44150  11.884   7.650  13.666 -0.1470 -0.1735 -0.0677
29020W        W44151   7.919  16.561   9.740 -0.0742 -0.4918 -0.3420
29021W        W44152   4.592  15.733  11.333  0.2499  0.2721 -0.2944
29022W        W44153   2.593  15.508   2.180 -0.0223 -0.2863 -0.0287
29023W        W44154   9.109  15.057  15.813 -0.0998 -0.1593 -0.1943
29024W        W44155  12.929  16.224   3.736  0.0728 -0.2454 -0.0481
29025W        W44156  13.061  16.114  15.124 -0.1064 -0.3240 -0.0334
29026W        W44157  16.998   1.282   5.216  0.1470 -0.0812  0.2171
29027W        W44158   4.650  15.911  10.431  0.1193  0.3456 -0.0884
29028W        W44159  15.687  18.358  11.139 -0.0968  0.1629 -0.1090
29029W        W44160   3.827   2.737  15.533 -0.0653  0.2000 -0.0964
29030W        W44161   9.609  12.955   3.004  0.1030  0.1123 -0.0552
29031W        W44162  11.874   2.271   1.840 -0.0671  0.0593 -0.1227
29032W        W44163   3.956   1.130  13.826  0.2040  0.3103  0.0404
29033W        W44164  11.473  16.276  12.247 -0.5879  0.0196  0.4583
29034W        W44165  10.635  17.814  10.761  0.0346  0.1470  0.0260
29035W        W44166  13.956  11.264  11.401  0.2109 -0.1432  0.1003
29036W        W44167   6.525  13.740   1.593  0.1099  0.3385  0.0588
29037W        W44168   2.482   6.891   3.367  0.1474  0.0201 -0.2244
29038W        W44169   0.562  15.930  13.592 -0.0585  0.3020  0.0797
29039W        W44170  15.702   4.574  12.544 -0.1630 -0.1469 -0.0246
29040W        W44171  18.015   6.686  15.108  0.0696 -0.2134 -0.2577
29041W        W44172  11.682   2.543   1.492 -0.0831  0.0383 -0.0596
29042W        W44173   3.785  14.497  15.932 -0.1301  0.0138  0.0453
29043W        W44174   9.244   0.529  11.391 -0.2121  0.0315 -0.1089
29044W        W44175   9.077  15.089  14.873  0.1683  0.4763  0.1001
29045W        W44176   5.842  15.986  11.321 -0.1659  0.3037 -0.0488
29046W        W44177   7.129   1.264   3.259  0.2337  0.0903  0.1240
29047W        W44178   6.212  12.779  13.196  0.1164 -0.0594  0.1086
29048W        W44179   0.324  17.098  11.022  0.4265  0.1623 -0.3920
29049W        W44180  10.982   6.464   6.205 -0.1344 -0.1518  0.0484
29050W        W44181  13.896   2.774  11.632 -0.5117  0.2211 -0.2769
29051W        W44182  10.143  15.814   5.169  0.1159  0.0077  0.1121
29052W        W44183  12.167  17.301   9.750 -0.3589  0.0188  0.4357
29053W        W44184   6.816   0.775   5.084 -0.1413  0.0689  0.1110
29054W        W44185  13.525  12.310  15.593  0.1953  0.0886  0.0934
29055W        W44186   4.595   6.826  13.514 -0.1210  0.2770 -0.4471
29056W        W44187  16.918   0.549   6.253  0.1666  0.2459 -0.1664
29057W        W44188  10.646  10.110  11.416  0.0855  0.0100  0.0649
29058W        W44189   4.792   5.727  11.387 -0.2945 -0.0039 -0.1269
29059W        W44190   0.117   2.342  13.990  0.2141 -0.1912 -0.0715
29060W        W44191   3.524  10.994  10.298 -0.1500 -0.2290  0.0081
29061W        W44192  13.318   3.961   4.358 -0.0248  0.1420 -0.2073
29062W        W44193   6.636  15.696  12.619 -0.3126 -0.0116 -0.1314
29063W        W44194   1.323   1.495   0.244 -0.0528 -0.1821  0.3300
29064W        W44195   5.041  11.370  13.609  0.0860 -0.2278 -0.2606
29065W        W44196  12.809   1.285  13.256 -0.2105  0.1111 -0.0160
29066W        W44197  10.425   1.249  12.187  0.0366  0.3142 -0.2032
29067W        W44198   5.975   8.131  11.783  0.1457 -0.4461  0.1855
29068W        W44199   7.322   6.932  13.037 -0.1050  0.0494 -0.0766
29069W        W44200  13.436   3.194  15.290 -0.1522 -0.1877 -0.0714
29070W        W44201   4.799  12.127   4.101  0.3161  0.0765  0.0682
29071W        W44202  10.972   1.708   4.311 -0.1764  0.0580 -0.0374
29072W        W44203   7.266   9.505   1.737 -0.4497  0.2506  0.1477
29073W        W44204   0.751  16.187  14.245 -0.1063  0.2007  0.4349
29074W        W44205  13.023  17.116  14.962 -0.0563  0.1976  0.1209
29075W        W44206   8.241   5.426  10.584 -0.0052  0.1388 -0.0364
29076W        W44207  11.869  12.514   0.511  0.3328  0.1240 -0.0738
29077W        W44208   0.832  12.409  14.687 -0.0728 -0.0396  0.0639
29078W        W44209  18.455  15.859   0.238  0.2408  0.4389 -0.2075
29079W        W44210  15.388   5.040   1.258  0.0500  0.1853  0.0155
29080W        W44211  10.428   1.919  13.986  0.1049 -0.1058 -0.0460
29081W        W44212   1.906  18.271   1.973 -0.1845  0.0332 -0.0948
29082W        W44213   0.339   2.814  15.706  0.2643 -0.2626  0.1266
29083W        W44214  14.262  17.233  11.327 -0.0353 -0.1179 -0.0640
29084W        W44215  14.921   4.959   5.507  0.2001 -0.1612  0.3802
29085W        W44216   4.870  14.196   1.644 -0.1549 -0.0665  0.0059
29086W        W44217   1.478   9.497   0.427 -0.2609 -0.1675 -0.2586
29087W        W44218  17.853   8.649  15.683  0.4282 -0.0088 -0.0624
29088W        W44219   0.623  12.540  12.977 -0.1584  0.1075 -0.0195
29089W        W44220   9.667   2.929  14.839  0.1161  0.1046  0.0032
29090W        W44221   2.615  14.783  11.535 -0.1031 -0.1118 -0.2412
29091W        W44222  14.175  15.251  11.627  0.1632  0.2285 -0.2174
29092W        W44223  13.900   0.713   1.395  0.0475 -0.0762 -0.0359
29093W        W44224  18.156   1.148   5.196 -0.1722  0.0894 -0.2481
29094W        W44225  14.477   4.893   0.671  0.0058  0.1993 -0.1376
29095W        W44226   6.554   3.414  14.542  0.1358 -0.3410  0.2212
29096W        W44227   0.594   6.098  13.420  0.2650  0.0103 -0.1853
29097W        W44228  13.041  16.084  14.065  0.1739 -0.1726  0.1816
29098W        W44229  15.253   0.123   2.957  0.0139  0.0227 -0.1540
29099W        W44230   1.525   2.934   3.605  0.0551  0.5062 -0.1346
29100W        W44231   8.042  16.041   2.844  0.0185  0.1628 -0.0274
29101W        W44232   3.713   1.751   0.478  0.2993  0.0874  0.0222
29102W        W44233   9.602  13.148   0.948  0.2719 -0.0865 -0.0241
29103W        W44234   2.637   5.930  11.748 -0.1151  0.2006  0.1129
29104W        W44235  10.101   7.775   5.728  0.0915 -0.2620  0.2629
29105W        W44236   0.495   1.674   2.575 -0.1518 -0.0996  0.1440
29106W        W44237  13.970  10.391   3.314  0.0086 -0.0395  0.0826
29107W        W44238   3.127  15.202   5.152 -0.0570 -0.0961 -0.2160
29108W        W44239  10.728   6.424  11.188  0.0765 -0.1511  0.1597
29109W        W44240   5.391  11.255  13.952 -0.2456  0.0759  0.3205
29110W        W44241   7.152  16.655  14.328  0.0474  0.1661  0.1709
29111W        W44242   0.870  15.519   3.402  0.1252 -0.1831 -0.1540
29112W        W44243  16.254   5.691   1.347 -0.0697 -0.0921  0.0099
29113W        W44244   5.981   4.232  14.708 -0.2326 -0.0621 -0.1295
29114W        W44245  15.059   2.195   2.103 -0.3017  0.1588 -0.0911
29115W        W44246   9.393   2.322  13.166 -0.1502  0.1089  0.4834
29116W        W44247   1.922  14.812   1.448  0.1245  0.0670  0.2272
29117W        W44248   1.846   6.370   1.420 -0.2084  0.1607 -0.0749
29118W        W44249   4.871  14.537  11.666  0.1589 -0.0692  0.0695
29119W        W44250  16.499  17.131  15.574  0.2058  0.3467  0.1315
29120W        W44251   0.455  15.193   0.844  0.0357 -0.2630 -0.0786
29121W        W44252   5.505   3.673  15.924 -0.3152  0.1839  0.1602
29122W        W44253  17.280   9.301  13.980  0.0740  0.5085  0.1673
29123W        W44254  18.237   0.343  12.170  0.3103  0.2755 -0.4677
29124W        W44255   6.873   6.103  14.844 -0.3145  0.3738 -0.0899
29125W        W44256   9.006  15.010  11.581 -0.2616  0.0706  0.1761
29126W        W44257   4.092  17.841  14.400 -0.0942  0.3250  0.0156
29127W        W44258  13.019   4.141  12.913  0.1572  0.0376  0.1194
29128W        W44259  12.658  13.007   0.698  0.0134 -0.1511 -0.0857
29129W        W44260   7.063   2.489  11.029  0.0469 -0.1637  0.0990
29130W        W44261  16.962   3.349   4.995 -0.3511  0.0025  0.2556
29131W        W44262  14.123   0.551  14.271 -0.5159 -0.1499  0.0322
29132W        W44263  13.440  15.530   2.131 -0.0569  0.2092 -0.3329
29133W        W44264  12.128  15.174   2.503  0.3410 -0.1551  0.0163
29134W        W44265   2.989  16.817   3.932  0.4322 -0.0206  0.1253
29135W        W44266  12.680  18.253   4.204  0.0373  0.0456 -0.2104
29136W        W44267   1.022  12.992   4.858 -0.0230  0.1799 -0.0180
29137W        W44268  17.950  13.206   2.946 -0.4509  0.3035 -0.1656
29138W        W44269   2.712   2.985   1.592  0.0957  0.3990 -0.0715
29139W        W44270   1.674  13.988  15.911 -0.0528  0.0351 -0.1949
29140W        W44271  10.592  14.552  15.509 -0.4476  0.2314 -0.1513
29141W        W44272   6.183   9.365  14.544  0.2333 -0.0524  0.2538
29142W        W44273   5.758  12.870  12.351 -0.0546  0.2695  0.1096
29143W        W44274  18.033   8.386  12.088  0.0397 -0.3679 -0.0800
29144W        W44275   6.166   7.128  15.578  0.0189  0.1752 -0.3557
29145W        W44276   1.743   7.784  11.697  0.2819 -0.0466 -0.1517
29146W        W44277  16.862   3.956   0.108  0.5502  0.0164  0.1095
29147W        W44278   2.523  14.036   3.884  0.1534  0.0205 -0.0695
29148W        W44279   7.613   1.689  15.609 -0.2969  0.1485 -0.0641
29149W        W44280  14.803  17.903  11.822 -0.2591 -0.0475  0.0809
29150W        W44281  10.227   9.096  13.435 -0.0618 -0.1482  0.0988
29151W        W44282  17.311  11.128  13.974 -0.0823  0.0893  0.2052
29152W        W44283  15.214   6.095   1.993 -0.0304 -0.0851 -0.0138
29153W        W44284   2.122  17.377  14.223  0.2752 -0.2766  0.1175
29154W        W44285  18.512  15.826   2.752 -0.0591  0.2790  0.0849
29155W        W44286   8.634   6.917   0.674  0.0467 -0.4518 -0.5024
29156W        W44287  17.372   0.906  13.305  0.0410  0.2300  0.1000
29157W        W44288  14.779   4.060   0.291 -0.0363  0.0970  0.0282
29158W        W44289   0.267   2.554   4.618  0.1048  0.1053 -0.4653
29159W        W44290  14.901   0.698  15.947  0.3544  0.0074  0.1780
29160W        W44291  17.100   2.508   3.290  0.2315 -0.1752  0.2081
29161W        W44292   9.543  14.109  14.552  0.4815 -0.0120  0.1973
29162W        W44293  16.444  14.196   3.424 -0.0357  0.0350 -0.3028
29163W        W44294   8.052   7.630  15.661 -0.0779 -0.0212  0.0706
29164W        W44295  13.639   1.713   3.941 -0.1469 -0.1982 -0.0457
29165W        W44296  14.922  17.027   1.408 -0.1422  0.1842 -0.1365
29166W        W44297  15.358   7.975  14.655 -0.2017  0.4184  0.0142
29167W        W44298   6.921   5.054   3.493 -0.0170 -0.0712  0.0292
29168W        W44299   5.970  12.443   1.183  0.0966 -0.1804  0.0201
29169W        W44300   9.486   6.148   2.540 -0.3837 -0.3301  0.4053
29170W        W44301   4.881   3.105  13.383  0.2676  0.0324 -0.1141
29171W        W44302   3.269  11.454  11.554  0.0442  0.0164 -0.0572
29172W        W44303   5.391   0.751   0.509  0.0297 -0.0164  0.2675
29173W        W44304   6.914   3.532  14.181 -0.2070 -0.1905  0.0088
29174W        W44305  13.407  15.169   4.055  0.2382 -0.1821 -0.3269
29175W        W44306  16.411   7.241  15.142  0.0512  0.1080  0.0977
29176W        W44307  14.630   6.320  12.984  0.1468  0.4415  0.2782
29177W        W44308   4.816   8.500  11.757 -0.2353 -0.3409 -0.2223
29178W        W44309   0.997   6.746   0.483  0.1193  0.2594 -0.4024
29179W        W44310   3.680   5.607  11.790  0.0400  0.1830  0.0695
29180W        W44311   5.345  15.915   2.369 -0.2172  0.1283 -0.1425
29181W        W44312  13.868  10.419  11.554 -0.0863  0.0509 -0.0267
29182W        W44313   3.568  13.893  10.105 -0.0699  0.0353  0.0451
29183W        W44314   9.951  11.753   9.704 -0.2714 -0.0903 -0.0785
29184W        W44315  15.832   1.070   3.935 -0.2197  0.2033  0.0181
29185W        W44316   3.824  12.131   2.062 -0.3160  0.2695 -0.1183
29186W        W44317  10.568  13.402  12.828  0.1726 -0.0777 -0.4935
29187W        W44318   1.629  16.754  15.024 -0.0814 -0.0693  0.0989
29188W        W44319   0.085   5.045   5.362  0.0826  0.0618 -0.0456
29189W        W44320   7.444   1.781  11.505  0.0691  0.1465 -0.0119
29190W        W44321   3.739   7.651   4.183  0.0051 -0.3851  0.0811
29191W        W44322  16.132   3.897   4.753  0.1778 -0.2111 -0.0984
29192W        W44323   0.581   6.570   0.582  0.0280  0.2889  0.1127
29193W        W44324   7.890  10.985   1.671  0.0898  0.1090 -0.2742
29194W        W44325  14.267   0.635   2.831  0.2192 -0.0230 -0.1868
29195W        W44326  17.411  11.156   3.952  0.1374 -0.0057  0.1510
29196W        W44327  15.385   0.678  12.151 -0.1104  0.0196 -0.0118
29197W        W44328   5.518   4.502  15.284 -0.0088 -0.0278  0.0482
29198W        W44329  15.199   6.947   4.988 -0.2925 -0.1504  0.0485
29199W        W44330   9.657  15.566  10.162 -0.1258 -0.4519 -0.0050
29200W        W44331  17.998  16.264  12.462  0.0102 -0.1303 -0.0494
29201W        W44332  17.390  16.444   5.726  0.0403  0.0068 -0.2397
29202W        W44333  17.565   8.496  12.750 -0.1596  0.4114  0.4082
29203W        W44334   3.665   5.617   1.618 -0.2655 -0.0220  0.0447
29204W        W44335  16.979   3.570   4.517 -0.1375 -0.1703  0.2158
29205W        W44336   4.214  18.041   4.074 -0.1234  0.0246  0.1436
29206W        W44337   4.396  15.519  14.489  0.0651 -0.1689 -0.0632
29207W        W44338   1.372   3.809  15.174 -0.0598 -0.4262  0.1998
29208W        W44339  14.131  10.115   0.459 -0.0414  0.2979  0.3799
29209W        W44340   4.176  10.020   0.399 -0.1167  0.3184  0.2633
29210W        W44341   3.877   1.412   1.245  0.0516 -0.0518  0.1336
29211W        W44342  14.615   4.188   3.772 -0.2409 -0.2952  0.1740
29212W        W44343   4.653   8.083   3.100  0.3392 -0.1003 -0.2673
29213W        W44344  16.867   2.023   5.179 -0.1535  0.1939  0.0282
29214W        W44345   3.092  14.804   3.774 -0.0368  0.1820 -0.2269
29215W        W44346  10.988   4.279  14.356 -0.1537  0.0174  0.2858
29216W        W44347   5.590  16.864   1.132  0.0992  0.0181  0.3848
29217W        W44348   4.959   5.110   3.680 -0.0206 -0.0449  0.1144
29218W        W44349   5.697   1.047  11.416 -0.2145  0.0278 -0.0089
29219W        W44350   4.734   5.827   3.319  0.1116 -0.1112 -0.0230
29220W        W44351  17.263  10.336  11.272  0.3434  0.0500 -0.1999
29221W        W44352   1.985  17.134  10.828  0.1110 -0.5279  0.1686
29222W        W44353  16.791  11.278   1.131  0.1941  0.2994 -0.0515
29223W        W44354  17.103  11.152  11.859  0.2629  0.4333  0.2357
29224W        W44355   6.335   1.003   2.932  0.1537 -0.1202 -0.0543
29225W        W44356   0.311  16.905   1.739 -0.0246  0.1461 -0.0962
29226W        W44357   5.996   8.696   2.605 -0.1719 -0.0964 -0.0401
29227W        W44358  12.982  11.165   1.707 -0.1244 -0.1050  0.0049
29228W        W44359   1.206   7.472  15.109 -0.0502  0.1543  0.0974
29229W        W44360  11.145   4.770  14.230 -0.0845  0.0179 -0.0927
29230W        W44361  15.459  14.957  10.882  0.1376  0.0714  0.1709
29231W        W44362  17.781   6.782  15.758  0.1137 -0.2963 -0.2983
29232W        W44363   2.647   9.674   3.998 -0.2498  0.2520 -0.1821
29233W        W44364   2.605  18.116  14.841  0.0301 -0.0270  0.0239
29234W        W44365   6.695   7.423   0.065  0.0952  0.2485 -0.0276
29235W        W44366  11.875   5.705   4.719  0.0581  0.3086  0.1460
29236W        W44367   0.231  16.074   5.270 -0.0702  0.6921  0.5478
29237W        W44368  13.987   1.645   5.572  0.0028 -0.1039 -0.1393
29238W        W44369   6.395  15.098  15.435  0.2897 -0.1408 -0.2274
29239W        W44370   5.857  10.219  12.982  0.0689  0.1352  0.0984
29240W        W44371   6.217   6.197   5.703 -0.0380  0.0937 -0.0550
29241W        W44372   8.702   0.042  13.196 -0.2609  0.2831  0.1506
29242W        W44373  14.879  17.755   0.661 -0.0084  0.3065 -0.0221
29243W        W44374  10.770  13.106  15.626  0.0465  0.0416 -0.1927
29244W        W44375   2.600   5.781   3.036  0.0670 -0.0505 -0.2869
29245W        W44376  18.336   2.389  14.461 -0.0436 -0.0911  0.3149
29246W        W44377   1.956   3.766   4.136 -0.0599  0.2954  0.3710
29247W        W44378  15.984  18.137  10.452  0.0295 -0.2075  0.3770
29248W        W44379   0.379   9.340   1.138  0.1992  0.0866  0.0529
29249W        W44380  13.650   9.780  13.942  0.0289 -0.0355  0.2864
29250W        W44381   8.695  13.021   3.674  0.2605 -0.0905  0.2586
29251W        W44382   4.262  12.871   1.970 -0.1927 -0.0446  0.1422
29252W        W44383  11.010  10.429  11.583  0.0319  0.0682  0.0122
29253W        W44384   3.247   4.484   4.355  0.1101 -0.3522  0.0537
29254W        W44385   2.026   0.220  15.133  0.2898  0.1710 -0.0309
29255W        W44386   0.953  15.557   3.953  0.1098  0.1584  0.0397
29256W        W44387  11.160   5.602  11.437 -0.1622 -0.1778 -0.1322
29257W        W44388   2.992  14.476  11.296 -0.0013  0.0235  0.1467
29258W        W44389  11.174  15.871  14.632 -0.1380 -0.0801 -0.1743
29259W        W44390  11.899   5.468  14.612 -0.0224  0.0297  0.0759
29260W        W44391  15.619   6.667  11.628 -0.2053 -0.0438  0.1677
29261W        W44392  14.050   4.893   3.890 -0.2137  0.2266  0.0887
29262W        W44393  17.868   5.401  11.787 -0.2777  0.0977 -0.1396
29263W        W44394   9.834   1.333   1.671  0.0502  0.4099  0.1354
29264W        W44395  13.379   3.287   3.873  0.2978  0.0669 -0.1307
29265W        W44396  14.159   2.896   3.851 -0.1521 -0.0908 -0.0223
29266W        W44397  18.044   8.691  12.545  0.0223  0.2345  0.0798
29267W        W44398   8.170  18.067   4.411  0.0365  0.3069 -0.0526
29268W        W44399  14.533   4.320  14.460 -0.0572  0.1074  0.0134
29269W        W44400   0.585  16.286  11.782 -0.0208  0.2185 -0.2664
29270W        W44401  11.356  17.328   1.115 -0.2733  0.0243  0.1567
29271W        W44402  17.763  14.152   0.723  0.1260 -0.0712 -0.0238
29272W        W44403   5.416   0.506  13.782 -0.0792 -0.0680  0.1646
29273W        W44404  11.567   7.800  14.905  0.3888 -0.5099  0.0630
29274W        W44405   5.431   9.309  13.715  0.0508  0.1538 -0.0723
29275W        W44406  11.069   0.643   3.848  0.1804  0.0716  0.0570
29276W        W44407   5.599   6.907  11.487 -0.3401 -0.0440  0.2523
29277W        W44408   0.029  18.345  11.757  0.0149  0.2366  0.0579
29278W        W44409  16.812   4.404   0.972  0.2873  0.2472 -0.1198
29279W        W44410  14.582  10.067  10.868  0.2195  0.0139  0.2269
29280W        W44411   6.417  14.855  10.843  0.0919  0.0064  0.0822
29281W        W44412  12.520   9.067   0.607  0.0133  0.1021 -0.1529
29282W        W44413  13.878   7.154  14.688 -0.3669  0.2062 -0.0673
29283W        W44414  16.374  12.588  11.695 -0.1531  0.0428 -0.0318
29284W        W44415  11.832  12.394  10.409 -0.0348 -0.0980  0.1775
29285W        W44416  17.625   2.719  13.162 -0.2028  0.2146  0.0687
29286W        W44417   8.953  16.393  11.516  0.1089  0.2203  0.0355
29287W        W44418  13.433   0.309   1.158 -0.0722 -0.4247  0.0152
29288W        W44419   7.565  17.262  10.894  0.4046  0.1357 -0.0938
29289W        W44420   5.743  17.765  14.472  0.1069  0.1404 -0.2538
29290W        W44421   4.381   8.769  15.795 -0.1206  0.0096 -0.2227
29291W        W44422  11.443  12.483   5.460 -0.0006 -0.3730 -0.0613
29292W        W44423  11.848  14.931   4.446  0.0869  0.1921 -0.0318
29293W        W44424  16.526  11.687  11.232  0.1398  0.2648  0.1398
29294W        W44425   8.480   5.032  14.413  0.1320 -0.2603  0.0442
29295W        W44426   6.615   2.842   0.971  0.0903 -0.1727 -0.4268
29296W        W44427  10.352  17.717  14.046 -0.0064  0.0394  0.1709
29297W        W44428  15.254   5.863  14.816 -0.1923  0.2515  0.1563
29298W        W44429  14.160  15.727  11.555 -0.1194  0.0288  0.0972
29299W        W44430  11.575   9.508  13.758 -0.1614  0.1260  0.0982
29300W        W44431   3.409  11.209   3.948  0.3240  0.0035  0.2594
29301W        W44432   9.677  11.837  15.249  0.0484  0.0119 -0.3435
29302W        W44433  10.602  17.023  12.228  0.1065  0.2649  0.1155
29303W        W44434  14.012  14.299  11.458 -0.5056  0.1091  0.0935
29304W        W44435  15.008   3.484  15.383  0.1814  0.3032  0.1587
29305W        W44436   2.017   4.887  12.624  0.0207 -0.1032  0.0260
29306W        W44437  17.342   0.416  13.552  0.0150  0.4739  0.0930
29307W        W44438   0.677   6.424   1.137  0.3311  0.2556 -0.1619
29308W        W44439  15.720   5.581  13.370  0.0505 -0.2112 -0.0060
29309W        W44440   2.169  16.337  12.604 -0.2578 -0.1843 -0.0413
29310W        W44441  14.674   2.547   2.942  0.1205 -0.0290 -0.0533
29311W        W44442  18.366   9.202   0.410  0.2683  0.3715 -0.4150
29312W        W44443   7.745   1.755   1.197 -0.2212  0.0469 -0.4178
29313W        W44444  17.151  12.067   3.809 -0.2831  0.4755  0.1708
29314W        W44445  14.782  11.595  11.240  0.0849 -0.1014 -0.1232
29315W        W44446   7.297  17.228  12.638 -0.0413  0.2654  0.0839
29316W        W44447   7.359  13.485   0.863  0.0178 -0.1303  0.0998
29317W        W44448  13.590   1.274   5.466  0.0404 -0.0174 -0.0927
29318W        W44449   9.267   8.754   4.192 -0.2820 -0.0329 -0.2281
29319W        W44450  18.157  13.016   5.279 -0.1284  0.0076  0.2117
29320W        W44451  11.661   1.115   2.303 -0.0892  0.1689 -0.1868
29321W        W44452  18.128  16.283   5.118 -0.2364 -0.0676  0.0161
29322W        W44453  13.142   8.789  14.202 -0.0073  0.3796  0.0003
29323W        W44454  17.366  12.602  15.850 -0.0589 -0.0613  0.2379
29324W        W44455   1.843   2.106   0.033  0.2083 -0.0472  0.1266
29325W        W44456  13.732  11.770  15.444 -0.0595  0.0902 -0.0116
29326W        W44457   1.389   4.327  14.890 -0.0735  0.1294  0.1638
29327W        W44458   1.065  17.495   1.967  0.0673  0.2484  0.0220
29328W        W44459  10.106  12.309   0.721 -0.0861  0.2827  0.1043
29329W        W44460   9.488   5.221  12.413 -0.1083 -0.1548  0.2695
29330W        W44461   7.996   4.195   3.593 -0.3173 -0.3731 -0.2467
29331W        W44462   9.664  16.717  15.030  0.3654 -0.0241  0.2562
29332W        W44463   3.767  13.011  12.142  0.2214  0.1633  0.1409
29333W        W44464   0.250   9.362  14.269  0.4413 -0.0474 -0.0351
29334W        W44465   4.809   1.947  12.073 -0.0221  0.1825  0.0295
29335W        W44466  13.964   2.263   3.246 -0.0312  0.2269 -0.2524
29336W        W44467   9.303   0.030  15.012  0.2243  0.2750  0.2611
29337W        W44468   9.966  17.997   5.461  0.0905 -0.1306 -0.1404
29338W        W44469   8.764   5.125   3.047  0.1450  0.1070 -0.0529
29339W        W44470  12.302   5.684  14.794 -0.0809 -0.3463  0.4329
29340W        W44471  13.920   9.254  12.105  0.1515  0.0100  0.1040
29341W        W44472   7.457   0.223  13.350 -0.4943  0.0937 -0.1241
29342W        W44473   9.964   2.263  15.484 -0.3635 -0.1137  0.0984
29343W        W44474  18.399   1.456   2.510  0.2739  0.2214 -0.1281
29344W        W44475   1.272  17.870   3.129 -0.1270 -0.1728  0.1902
29345W        W44476  12.188  14.071   1.306 -0.1758 -0.2075 -0.0523
29346W        W44477   3.289   6.394   1.010  0.1029 -0.3177 -0.1049
29347W        W44478  13.439   8.789  12.435 -0.1413  0.1374 -0.1928
29348W        W44479  12.741   8.520  14.127  0.4954  0.0723 -0.0226
29349W        W44480   6.604   7.830  11.325 -0.0865  0.3841 -0.0380
29350W        W44481  14.645   5.787   3.496  0.2639 -0.0108  0.0280
29351W        W44482   9.679  13.202   3.416  0.0474 -0.2448  0.0664
29352W        W44483  13.114  13.463   4.273 -0.3472  0.0720  0.0039
29353W        W44484   7.343  18.067   4.752 -0.0403 -0.1036  0.0534
29354W        W44485   2.193   2.008   0.421 -0.0264 -0.2141  0.0578
29355W        W44486  11.508   1.917   2.602 -0.0710 -0.3084  0.1494
29356W        W44487   4.123   1.251   1.750 -0.0754 -0.1261  0.1233
29357W        W44488  14.923  18.533   2.256  0.4876 -0.0675 -0.3501
29358W        W44489   4.586  16.364  15.261  0.1281 -0.0769  0.3258
29359W        W44490   3.574   8.704  15.266  0.1720 -0.3064  0.0612
29360W        W44491   8.434  18.573  10.784 -0.3422 -0.0318  0.1556
29361W        W44492   2.640  12.830  14.221  0.0670 -0.1296  0.1046
29362W        W44493   8.096   1.020   3.262  0.0786 -0.0818  0.3032
29363W        W44494  16.278  16.648  14.674  0.0809  0.0345 -0.0395
29364W        W44495  15.540  16.129   1.083 -0.0083  0.2037 -0.1497
29365W        W44496  15.708  17.312   0.363  0.2789 -0.1780  0.0731
29366W        W44497  17.336   6.732   3.745  0.1125 -0.2949 -0.1365
29367W        W44498   7.630  14.000  13.834  0.0206 -0.1157 -0.0560
29368W        W44499  18.129  10.120   5.502  0.0120  0.2045  0.0652
29369W        W44500  14.029   0.675  11.304  0.1382  0.0113  0.0951
29370W        W44501  16.094  17.677  11.094  0.0784 -0.0670  0.0266
29371W        W44502  18.223  15.056   4.809 -0.1701 -0.2855 -0.0550
29372W        W44503  15.230  14.068   3.024  0.0759 -0.0487 -0.3034
29373W        W44504   5.427  16.217  15.408  0.0267 -0.1365  0.1111
29374W        W44505   7.901   8.332   5.017  0.2302  0.0212  0.2430
29375W        W44506   8.423  13.104  13.546  0.0820 -0.1688  0.1772
29376W        W44507  12.236  11.694  11.383  0.2562 -0.1401  0.1452
29377W        W44508  15.235   0.082  13.199 -0.1002 -0.1987 -0.3933
29378W        W44509   7.574  13.444  14.976  0.1481 -0.6226  0.2979
29379W        W44510   8.918  13.620   4.621 -0.0093  0.3736 -0.1686
29380W        W44511  15.352  13.215   3.184  0.0338 -0.2293  0.0519
29381W        W44512  12.238   1.215   3.518  0.3311 -0.3198  0.0027
29382W        W44513  12.835   1.992   3.451  0.2126  0.0634  0.1424
29383W        W44514   9.471  17.560  10.309  0.0279 -0.0467 -0.1567
29384W        W44515  16.777  16.255   3.542  0.0462  0.0039  0.1194
29385W        W44516  17.459  13.209  12.338  0.0118  0.4137 -0.1255
29386W        W44517   3.955  17.227  11.276 -0.0068 -0.2867 -0.1403
29387W        W44518   6.119   1.633   2.358  0.1628  0.1075 -0.0366
29388W        W44519   3.035   0.176  12.193 -0.0522 -0.0310  0.2464
29389W        W44520   5.574   4.081  12.605  0.0803 -0.1991 -0.2388
29390W        W44521  13.459   7.470   4.350 -0.1531 -0.5648  0.0192
29391W        W44522   8.298  17.221   0.428 -0.0719 -0.0216 -0.0308
29392W        W44523  12.833  12.107   0.900 -0.1505 -0.0775  0.0779
29393W        W44524  11.540   0.323  11.300 -0.2235  0.1645  0.3161
29394W        W44525  11.495  10.806  13.752 -0.3750 -0.0743  0.0110
29395W        W44526  11.039  13.936   0.298 -0.2573  0.1180 -0.1726
29396W        W44527   3.808   9.671  12.424 -0.0745  0.0110 -0.1636
29397W        W44528  17.315  14.380  11.016 -0.2390 -0.1930  0.0331
29398W        W44529  14.652   1.121  12.591  0.4904 -0.1654  0.0293
29399W        W44530   8.546  13.364   2.408 -0.0435  0.2056 -0.0814
29400W        W44531   2.753  17.911   5.466 -0.5687 -0.3623 -0.2053
29401W        W44532   4.886   8.829  13.178 -0.1721  0.1404  0.0624
29402W        W44533   3.482  11.504  15.350  0.1750  0.0348  0.0386
29403W        W44534   1.818  16.913   2.088 -0.1502  0.0617  0.4803
29404W        W44535   0.185   7.301   3.629  0.0959  0.4170 -0.1484
29405W        W44536  16.746   7.421  11.326 -0.0883 -0.0370 -0.2698
29406W        W44537  12.017   3.775  15.111  0.1051  0.1666  0.1249
29407W        W44538  11.583  11.844  12.955 -0.1861 -0.2202 -0.1938
29408W        W44539   1.929   1.252   0.261  0.2590 -0.2781  0.4078
29409W        W44540   9.944   8.346  13.221  0.0027  0.1765 -0.0767
29410W        W44541  16.762   6.479   1.962  0.0097  0.3575 -0.1398
29411W        W44542   8.931   0.041   0.950  0.1766 -0.3062 -0.1616
29412W        W44543  10.337   3.312  13.680 -0.0944  0.1953  0.1534
29413W        W44544  11.724   8.099  15.850  0.0646  0.3878 -0.1655
29414W        W44545   5.551   4.577   1.187  0.0453  0.0472  0.1683
29415W        W44546  13.013   6.204  14.703  0.0552 -0.0908  0.2264
29416W        W44547  13.348  16.948  12.004  0.0210 -0.2382  0.0741
29417W        W44548   7.499   4.313   4.899 -0.0335 -0.1461  0.4101
29418W        W44549   9.241   6.109   4.020 -0.1335  0.0316  0.2229
29419W        W44550  13.154   6.457   0.009  0.2832 -0.2508  0.4767
29420W        W44551   5.490  12.331   1.167  0.0044 -0.4391  0.0001
29421W        W44552   2.238   7.393  11.879  0.1902 -0.1251  0.1733
29422W        W44553  17.630   4.370  13.955 -0.3374 -0.0049  0.2319
29423W        W44554  12.600  18.147  13.676  0.0124 -0.1397 -0.0217
29424W        W44555   0.921  13.748  15.270 -0.1518 -0.1270 -0.0770
29425W        W44556   3.815   1.859   4.379  0.4705  0.1452 -0.1307
29426W        W44557  10.561   0.532   4.478 -0.0503 -0.0083 -0.0315
29427W        W44558  10.915   2.751  12.534 -0.2067 -0.0860 -0.0972
29428W        W44559   6.794  14.560  11.114  0.0796  0.1244  0.0832
29429W        W44560   7.032   8.014   3.392 -0.0199 -0.2004  0.1207
29430W        W44561   4.589   2.464   1.057 -0.0409 -0.0739 -0.0163
29431W        W44562   6.597  11.489  13.673 -0.1354  0.6286 -0.3323
29432W        W44563   6.022   1.254  15.354  0.0984  0.0456 -0.0610
29433W        W44564   6.384   1.606  10.954  0.0017  0.0304 -0.0697
29434W        W44565   6.588   1.640   0.140  0.0199  0.1894 -0.2452
29435W        W44566  14.028   7.526   4.521  0.1601  0.2266 -0.0011
29436W        W44567  13.934   0.987  11.698  0.1993  0.2139 -0.1738
29437W        W44568  12.789   0.468  12.697  0.1459 -0.0846 -0.1223
29438W        W44569  13.627   1.400  14.284 -0.3053 -0.1547  0.0601
29439W        W44570   0.244  13.686   2.016 -0.0555  0.1453 -0.0911
29440W        W44571   1.877  13.140   1.155  0.0112 -0.0448  0.1922
29441W        W44572  11.755  16.796   0.471 -0.1283  0.2223  0.1085
29442W        W44573   1.983   0.314  12.999 -0.1647 -0.1632  0.0144
29443W        W44574   4.250   8.989  14.009  0.2820 -0.0252  0.1558
29444W        W44575  14.610   4.045  15.754  0.1124  0.0210  0.1771
29445W        W44576   9.038   0.476  15.414  0.0124  0.1984  0.0774
29446W        W44577  11.474   5.274   1.378 -0.0335 -0.3586  0.1368
29447W        W44578  17.447  13.951  14.891 -0.1099 -0.0456  0.2377
29448W        W44579   1.572   0.115   2.839 -0.0406 -0.0540  0.1080
29449W        W44580   5.020  16.017  11.253 -0.5494 -0.0857 -0.0855
29450W        W44581   4.783   7.592   2.331  0.0883  0.4395 -0.0553
29451W        W44582   3.548  14.668  12.388 -0.4904 -0.1362  0.4649
29452W        W44583   3.903  13.884   0.562 -0.3900 -0.1016  0.1782
29453W        W44584   0.629  11.346   1.289 -0.0903 -0.0268 -0.1008
29454W        W44585   6.326   0.603  14.114 -0.0883  0.2568  0.1126
29455W        W44586   9.233  13.583  12.943  0.1124  0.1613  0.3154
29456W        W44587   2.840   6.383   2.504  0.3023  0.1443  0.4696
29457W        W44588   3.498   1.141  11.356  0.1392  0.2869  0.1456
29458W        W44589   3.294   2.642  10.239  0.5030  0.1829 -0.1875
29459W        W44590   6.515   2.201   3.539 -0.1900  0.0047  0.0743
29460W        W44591  17.408  11.741   4.110  0.0986  0.2033  0.0759
29461W        W44592   9.950  12.619  14.968 -0.0906  0.1227 -0.1025
29462W        W44593   7.634  13.794  15.323 -0.0218 -0.0645  0.0389
29463W        W44594  17.941   4.028  12.385  0.2097  0.1191 -0.1633
29464W        W44595  13.100   2.332  10.932 -0.1588 -0.3725 -0.0299
29465W        W44596   0.490  14.214  13.405  0.0894  0.0566 -0.2180
29466W        W44597   5.583  11.599  13.500  0.1677  0.0285 -0.0481
29467W        W44598   3.419  12.729  14.644  0.2244 -0.0145  0.2881
29468W        W44599   7.830  16.295  15.479 -0.2268  0.0504 -0.2021
29469W        W44600  17.900  10.142  13.122  0.1996 -0.0174  0.3785
29470W        W44601   5.574   6.625   1.122 -0.0380 -0.2542  0.1011
29471W        W44602  15.619   4.596   2.932 -0.3608 -0.0376  0.0244
29472W        W44603  10.206   2.052  12.549 -0.0157 -0.2688  0.1669
29473W        W44604  11.434   8.302   1.724  0.2425  0.0061 -0.2758
29474W        W44605   6.650   6.414  15.911 -0.0062  0.2590 -0.1082
29475W        W44606   6.008   3.124   2.880 -0.0999 -0.2147  0.0435
29476W        W44607  12.486  16.497   4.811  0.3842 -0.2565 -0.1994
29477W        W44608   1.533  16.437  12.643 -0.1483 -0.2698  0.3611
29478W        W44609   0.569   7.687  13.211 -0.1528  0.0664 -0.1532
29479W        W44610   2.324   9.449   2.730 -0.1434 -0.1233 -0.1702
29480W        W44611   6.149  18.493  15.021  0.0787  0.2163 -0.1464
29481W        W44612   6.194  14.379   4.095 -0.3189  0.1011  0.2273
29482W        W44613   7.217   3.638   1.209  0.0131 -0.0213  0.4531
29483W        W44614  16.070  14.083  13.134  0.1264  0.3535  0.0405
29484W        W44615   4.263   0.454  15.616 -0.0094  0.1483 -0.1221
29485W        W44616   1.193  14.455   2.754  0.2571  0.0231 -0.0993
29486W        W44617  17.400   5.582   5.712 -0.0631  0.0951  0.1822
29487W        W44618  18.343   3.534   1.531  0.1000  0.3017  0.2417
29488W        W44619   9.091  13.850   9.889 -0.1835 -0.1530  0.0509
29489W        W44620  16.663   3.734   0.508 -0.0988  0.2457 -0.1090
29490W        W44621  17.619   3.356   5.168  0.0492  0.1323  0.3273
29491W        W44622  13.490   1.571   1.633  0.0987 -0.1745 -0.0850
29492W        W44623   4.069  11.722  13.843  0.0153 -0.0644  0.0382
29493W        W44624   9.048  11.489   1.502 -0.3303  0.0588  0.0610
29494W        W44625   1.283  18.573  12.495 -0.1456  0.0265 -0.2799
29495W        W44626   6.143  18.452   4.968 -0.0461 -0.0375 -0.1830
29496W        W44627   4.375  16.751  10.427  0.0024  0.0118 -0.1416
29497W        W44628  15.392  17.385   2.099 -0.0758  0.2122  0.1961
29498W        W44629   9.245   8.846   0.926 -0.2001  0.0160  0.0525
29499W        W44630  14.355   8.347   4.435 -0.0423 -0.2627 -0.1096
29500W        W44631   9.725  17.796   0.383 -0.1469  0.0034  0.0897
29501W        W44632  10.535   5.796   1.313 -0.3060  0.1775 -0.0059
29502W        W44633  17.434  11.447   2.323 -0.1226  0.2449  0.0917
29503W        W44634  16.710  12.210  11.924 -0.0261  0.1545 -0.1110
29504W        W44635  11.810   4.949   1.568  0.1816 -0.1652  0.1527
29505W        W44636   5.894   6.943   0.378 -0.0553 -0.4304 -0.4652
29506W        W44637   7.688   5.422  14.811 -0.3003  0.3884 -0.3283
29507W        W44638  15.097  12.711   2.993 -0.2206  0.2842  0.0450
29508W        W44639  15.639   3.476  15.333 -0.1534 -0.3349  0.0798
29509W        W44640   2.024  10.599  15.194 -0.0538  0.0188 -0.0388
29510W        W44641   0.118  13.963  13.206  0.3475 -0.2125  0.0304
29511W        W44642   8.008  15.555   1.531  0.3100 -0.1728 -0.3004
29512W        W44643   0.575  12.585   2.796  0.1733 -0.3296 -0.0305
29513W        W44644   4.528   3.246  15.269 -0.1860  0.0316 -0.0992
29514W        W44645   3.840  12.600  10.011 -0.0096 -0.2425  0.1723
29515W        W44646   4.912  11.485  13.180  0.1250 -0.0476  0.2611
29516W        W44647  10.025  11.180  12.044 -0.0860  0.0655  0.0892
29517W        W44648   4.764  15.018   2.568  0.2137  0.0734 -0.0784
29518W        W44649   9.771   1.715   0.686 -0.1960  0.0242 -0.3582
29519W        W44650  15.805   5.550  14.405 -0.0794  0.1340  0.2219
29520W        W44651  16.352  12.748  13.386 -0.0632  0.1176  0.0755
29521W        W44652   6.780   6.679   0.509  0.0257  0.0236  0.1083
29522W        W44653   5.264   0.349  14.536 -0.1760 -0.1814 -0.0330
29523W        W44654  10.362  18.289  13.967 -0.2792 -0.2164  0.0062
29524W        W44655  14.346   7.987  11.694  0.1225  0.3273 -0.0007
29525W        W44656   9.115  10.431   4.778  0.3829  0.1321  0.1241
29526W        W44657   1.983   8.873   5.862  0.2476  0.1974 -0.1043
29527W        W44658  17.212  12.113  14.002 -0.1057  0.3651  0.4683
29528W        W44659  16.471   5.338  15.428 -0.0497 -0.2574 -0.1496
29529W        W44660  13.728   4.511   2.751  0.0374  0.3704  0.0516
29530W        W44661  17.932   8.644  13.557  0.1272  0.1825  0.2036
29531W        W44662   0.761  11.218  12.946 -0.1235  0.0677 -0.0728
29532W        W44663   4.918  10.541  15.880  0.3334 -0.1874  0.0600
29533W        W44664   1.727  15.923  15.068 -0.0192  0.3164 -0.0324
29534W        W44665   4.272   0.034   5.051 -0.0124  0.0495  0.3125
29535W        W44666  17.788  16.194   3.802 -0.3789  0.2471 -0.2006
29536W        W44667   1.809  18.387   1.508 -0.1233  0.3034 -0.0153
29537W        W44668  17.910   1.968   0.976 -0.2121 -0.3453 -0.1820
29538W        W44669   1.384  15.409  12.484  0.1674 -0.0245 -0.0180
29539W        W44670   1.682  15.965   2.630 -0.0696 -0.0259 -0.1724
29540W        W44671   5.570   8.860   2.531  0.0267 -0.5962 -0.1978
29541W        W44672   0.718  14.033   4.680 -0.2087  0.0802 -0.0504
29542W        W44673   3.552   3.690  12.595  0.0079  0.1491  0.0304
29543W        W44674  17.006  14.200   4.296 -0.1224  0.2782  0.0367
29544W        W44675   1.036   3.614   5.695 -0.0654 -0.0552 -0.0604
29545W        W44676   0.624   7.696   0.512 -0.1685 -0.2290 -0.0943
29546W        W44677  11.149  15.474  13.344 -0.2476 -0.0686  0.0972
29547W        W44678  16.779   7.887   4.341  0.1224  0.1388 -0.2565
29548W        W44679  12.421  18.247   2.187  0.0042  0.2488 -0.1354
29549W        W44680  14.760   3.699   5.360 -0.0069  0.1092  0.0730
29550W        W44681  14.444  13.801  12.588 -0.0241 -0.1703 -0.0195
29551W        W44682   5.856   7.684   4.102 -0.0398  0.0765 -0.0841
29552W        W44683   1.901   4.192  11.614  0.1463  0.1730  0.0977
29553W        W44684  16.441   5.559  12.681 -0.0557  0.1132  0.3492
29554W        W44685  13.641  14.960   2.209  0.2091 -0.2417 -0.1642
29555W        W44686   4.380  15.431  12.896 -0.1927 -0.1775 -0.4403
29556W        W44687  15.359   8.031   4.274  0.0253  0.1665 -0.1097
29557W        W44688   4.861   7.361  12.478  0.2165  0.1582 -0.1058
29558W        W44689   0.020   5.202   0.143 -0.0329  0.1707 -0.0751
29559W        W44690  16.814   3.556   3.076 -0.1630  0.0662 -0.1931
29560W        W44691   0.364   9.988  12.117  0.2221  0.0284 -0.2515
29561W        W44692  13.809   4.584  13.724 -0.1428  0.1272  0.0227
29562W        W44693   8.899   4.689   4.378 -0.0665  0.0193 -0.1764
29563W        W44694  10.920  13.760  10.569 -0.0708 -0.1451 -0.1425
29564W        W44695   9.763   1.928   1.645  0.1131 -0.2851 -0.1539
29565W        W44696   1.782   5.201   0.948  0.1981  0.0837  0.0792
29566W        W44697  13.737  18.022   0.894  0.0551  0.0420 -0.2519
29567W        W44698   6.320  17.868   3.314  0.0245 -0.0705 -0.2208
29568W        W44699   0.576  16.789  11.715 -0.1293  0.0502  0.3790
29569W        W44700  13.132   4.082   5.858 -0.1697  0.3147 -0.1383
29570W        W44701   5.088  16.092  10.241  0.0401  0.0176  0.2287
29571W        W44702   8.123   6.888   0.695 -0.3094  0.1979  0.0861
29572W        W44703   4.568   1.296   0.003  0.0088 -0.1616 -0.0094
29573W        W44704  14.167   4.427   0.854  0.2652  0.0051  0.0575
29574W        W44705   6.963   9.649   3.074  0.0239 -0.0718  0.2644
29575W        W44706  16.931  12.567  13.986 -0.1272  0.0848 -0.2236
29576W        W44707   3.825   4.468  13.616 -0.2207  0.1219 -0.0923
29577W        W44708   0.002  12.713  15.841 -0.0327  0.1953  0.1888
29578W        W44709  11.071   2.311   9.634 -0.1413 -0.3644 -0.2205
29579W        W44710  14.142   0.716   0.822 -0.1427  0.2802 -0.0307
29580W        W44711  12.067   8.786  12.319  0.2633  0.1348 -0.2039
29581W        W44712   1.214  13.894  11.485  0.4703 -0.1154 -0.0997
29582W        W44713  17.837   0.837   1.158  0.3438 -0.4024 -0.0357
29583W        W44714   4.702   7.826  10.571 -0.3089 -0.4986  0.3389
29584W        W44715  13.762  12.557   0.923 -0.1010  0.0608  0.1532
29585W        W44716  17.046  11.093   4.864 -0.3058 -0.0802  0.2932
29586W        W44717   3.104   6.935  10.991  0.4167  0.0391  0.0808
29587W        W44718   6.560  18.377  11.169 -0.0853 -0.0141 -0.0399
29588W        W44719   3.421   6.209  10.093 -0.3084 -0.2605 -0.4612
29589W        W44720  17.370   2.719  14.023  0.0765  0.2158 -0.0460
29590W        W44721   3.840   0.337   0.126  0.1878  0.0825  0.1582
29591W        W44722   2.551  17.555  12.874  0.3072 -0.1195  0.1974
29592W        W44723   0.267  17.335  11.525  0.2576 -0.1006 -0.2051
29593W        W44724   6.282  15.879   4.670  0.0416  0.0642 -0.1442
29594W        W44725   2.842  10.427  14.119  0.0151 -0.0012 -0.3207
29595W        W44726  16.948   4.478  11.093 -0.4031 -0.1402  0.0354
29596W        W44727   0.833   2.401   3.210 -0.1412 -0.1884 -0.1597
29597W        W44728  14.704  10.919   1.920  0.0925 -0.0310 -0.1408
29598W        W44729   2.728  12.342  14.954  0.2945 -0.0959  0.0247
29599W        W44730   8.183   7.558   4.886 -0.1398 -0.2053 -0.0566
29600W        W44731   9.050   1.410   1.188  0.4080 -0.0701  0.2569
29601W        W44732   2.360   3.451  12.766 -0.1306 -0.0372  0.0539
29602W        W44733  17.901   2.609   4.469 -0.0408  0.0747  0.0401
29603W        W44734  14.995   7.254   4.685 -0.2140 -0.2064 -0.2036
29604W        W44735   5.154   5.295  12.883  0.0759 -0.2063 -0.0649
29605W        W44736   8.296  13.345  10.850 -0.1272 -0.1385  0.2934
29606W        W44737  16.269  11.406  12.530 -0.1493 -0.3471 -0.1812
29607W        W44738   3.059   2.059   0.900  0.0247  0.1020 -0.1067
29608W        W44739   4.918   5.215  11.489  0.2625 -0.2457 -0.0336
29609W        W44740   2.231   0.622   4.289  0.4036  0.0804  0.0616
29610W        W44741  11.981  12.145   4.952 -0.2810  0.3679 -0.0938
29611W        W44742  10.923  11.903  14.140  0.6536  0.1933  0.3165
29612W        W44743  17.731   2.888   1.167  0.1425 -0.0242 -0.1825
29613W        W44744   4.498   5.194   3.475 -0.0188  0.1529  0.1029
29614W        W44745   2.853  16.057  10.809 -0.1043 -0.1957 -0.0924
29615W        W44746  14.249  17.666  14.391 -0.2580 -0.0349  0.2564
29616W        W44747   7.417  11.405   2.410 -0.1191 -0.0576 -0.1041
29617W        W44748   4.843   1.133  12.677  0.1002 -0.0255  0.1583
29618W        W44749  17.686  11.540   3.122 -0.0770  0.2249  0.1218
29619W        W44750  17.482   9.372  12.963  0.0832 -0.1403 -0.0105
29620W        W44751   9.253  14.755  10.405  0.4922 -0.0313  0.0573
29621W        W44752  10.395   9.246   5.166 -0.2046  0.3224 -0.0858
29622W        W44753  14.022   3.679   0.363 -0.1293 -0.0612  0.0106
29623W        W44754   3.890  16.632  14.215  0.1340 -0.1667  0.0400
29624W        W44755   0.971   2.259  11.148 -0.2213  0.3300  0.1197
29625W        W44756   1.163  12.458  15.135  0.0168  0.4482  0.1372
29626W        W44757   7.120   8.222   1.059  0.3195 -0.1804  0.3295
29627W        W44758   6.373  14.675  14.295  0.4252 -0.1489  0.0051
29628W        W44759  14.778  12.552  10.128  0.1393  0.0470  0.3470
29629W        W44760  15.378   9.227   1.220  0.1473  0.1065  0.2122
29630W        W44761   0.210  11.501   5.434  0.0992 -0.0022  0.1937
29631W        W44762   8.471  11.989  10.853  0.0641 -0.2762 -0.0954
29632W        W44763   6.076  18.189  14.589 -0.0780 -0.1616 -0.3680
29633W        W44764  17.686   6.185  15.766  0.0223 -0.0354  0.2359
29634W        W44765  17.422   9.016  12.335  0.2699 -0.3482 -0.1299
29635W        W44766  17.856  13.011  12.062  0.1318 -0.3191  0.0406
29636W        W44767  13.217   7.810  15.780  0.3649  0.0809  0.1778
29637W        W44768   5.785  16.075   1.683 -0.0739 -0.0738 -0.0160
29638W        W44769   6.144   4.132   5.403  0.0784  0.0548  0.0197
29639W        W44770  18.277   9.323   4.823 -0.0984  0.0171  0.1235
29640W        W44771   4.648   8.862   5.189  0.2300  0.1477 -0.2120
29641W        W44772  10.704   5.847   0.066  0.2747  0.0560 -0.1285
29642W        W44773  13.066   2.194  15.301  0.1807  0.1819  0.2217
29643W        W44774  16.863  12.546  11.511 -0.3615 -0.0883 -0.3582
29644W        W44775   2.190  12.130   1.648  0.0190 -0.0352  0.0636
29645W        W44776   6.836  11.853  11.852 -0.1765 -0.0741  0.1104
29646W        W44777   2.954   7.491  15.356  0.1418  0.3007  0.2942
29647W        W44778  12.020  16.055  14.091  0.0168  0.0056  0.3520
29648W        W44779   1.750   4.523   6.095  0.1345  0.0688  0.0170
29649W        W44780   1.430   3.566   5.384  0.1703  0.0564  0.0636
29650W        W44781   0.368  14.950  14.562  0.2302  0.0945  0.0623
29651W        W44782  11.361   2.310   1.899 -0.0627  0.1835  0.2281
29652W        W44783  14.694  10.125   1.288  0.1397 -0.3194 -0.0790
29653W        W44784   4.984  11.010  11.989  0.2595  0.0821 -0.0371
29654W        W44785  12.362   4.229   2.720 -0.2018  0.1284 -0.2084
29655W        W44786  11.255   2.468  10.836  0.2064  0.2502  0.1523
29656W        W44787   2.164   1.520   0.653  0.0143 -0.1148 -0.0405
29657W        W44788  10.828  16.589  15.945 -0.1055  0.0749  0.0117
29658W        W44789   0.017   2.589   0.087 -0.0360  0.0123  0.0246
29659W        W44790  10.694  11.186   2.673  0.0425  0.0198  0.0124
29660W        W44791  16.322   2.562   5.225  0.0173  0.2602  0.0845
29661W        W44792   8.361   3.445   2.103  0.0159  0.1500 -0.0677
29662W        W44793  16.905   1.988   5.769 -0.1613 -0.0053 -0.0380
29663W        W44794   1.811  16.351   4.785 -0.2440 -0.2829 -0.2064
29664W        W44795   0.165  12.368  12.909 -0.2619 -0.2279  0.2325
29665W        W44796   7.666   1.050   2.519  0.1385  0.1705 -0.0483
29666W        W44797   0.628   0.065  15.443 -0.0968 -0.3552  0.0647
29667W        W44798  12.761   9.860  12.372 -0.0558  0.0453  0.2760
29668W        W44799  10.428   6.119   2.095 -0.1424 -0.1619  0.2030
29669W        W44800   6.690  18.512   3.951 -0.1330  0.2494 -0.2114
29670W        W44801   4.218  17.797   2.708 -0.1788 -0.0306  0.3548
29671W        W44802   3.744   2.364  12.236 -0.0161  0.0551  0.2211
29672W        W44803   1.360   0.600   5.888  0.1566  0.0992 -0.1011
29673W        W44804  11.604  17.461   0.710  0.1474  0.2781 -0.1386
29674W        W44805  18.090   4.527  10.580 -0.1463 -0.0635 -0.0891
29675W        W44806   4.683   5.829  15.447  0.0803 -0.3921 -0.2268
29676W        W44807  15.492  18.328   4.370  0.0866 -0.1041 -0.1920
29677W        W44808   4.900  16.220   0.632  0.1143 -0.1960  0.1227
29678W        W44809   8.378   3.302  10.842 -0.1432  0.4003 -0.3108
29679W        W44810  12.131  13.539  14.780 -0.0929  0.1028  0.3060
29680W        W44811   3.858  11.128   4.790  0.0529 -0.4034 -0.0314
29681W        W44812  11.897  14.900   0.654  0.0221 -0.1205 -0.1608
29682W        W44813   2.150  15.920   3.677  0.1230 -0.0983 -0.1210
29683W        W44814  16.555  11.712  10.423 -0.3387 -0.0239  0.0976
29684W        W44815  11.999   8.652   0.024  0.5193  0.2492  0.4107
29685W        W44816   6.356  11.899  13.161 -0.1960 -0.3597 -0.0164
29686W        W44817   8.522   5.940  13.200 -0.1217  0.0127  0.4786
29687W        W44818   7.418   3.264   5.010  0.1366 -0.1726  0.0667
29688W        W44819   1.786  11.807   3.006 -0.1677  0.3365 -0.2818
29689W        W44820  13.260   2.063   3.998 -0.0011 -0.1225  0.3567
29690W        W44821   6.925   8.770   3.629  0.2809 -0.1234 -0.0035
29691W        W44822   9.698  14.488   4.791 -0.0227 -0.4924  0.1034
29692W        W44823  13.929  17.987   3.652 -0.1284  0.0701  0.0373
29693W        W44824   0.900   8.751   0.590 -0.0477 -0.2300  0.0308
29694W        W44825   6.299   6.447  10.809  0.3102 -0.1432  0.1330
29695W        W44826   3.600   5.118   2.903 -0.1136 -0.1380 -0.2906
29696W        W44827   4.514  17.191  14.879 -0.0520  0.2355 -0.1507
29697W        W44828   4.403  17.153   2.487 -0.0836 -0.1732  0.0485
29698W        W44829   9.144   2.910   9.795  0.2550 -0.0958  0.1179
29699W        W44830   3.317  17.165  13.492  0.2459  0.1610  0.2325
29700W        W44831  14.097  11.920  11.978 -0.1219  0.1869  0.1030
29701W        W44832  14.201   7.653  10.820 -0.1642 -0.0764  0.0818
29702W        W44833   3.887  10.165  12.637 -0.1658 -0.2723 -0.2267
29703W        W44834   1.307  10.612   0.541  0.1057 -0.2598  0.2240
29704W        W44835  13.695  13.511  15.893 -0.0877 -0.1590 -0.0330
29705W        W44836  11.622   0.110   0.264  0.1799 -0.3713 -0.2022
29706W        W44837   5.680   4.694   0.644 -0.3729  0.1755 -0.1411
29707W        W44838  17.295  12.940  15.251 -0.0445 -0.0213 -0.2644
29708W        W44839   5.839   7.814   2.009 -0.2329  0.1465 -0.0101
29709W        W44840   8.898   2.621  13.523 -0.2117 -0.1583 -0.0358
29710W        W44841   0.584   9.565  13.957 -0.0810  0.0478  0.1424
29711W        W44842   7.637  13.581   4.293  0.2347  0.0299  0.0550
29712W        W44843  14.598   3.666   1.922 -0.1879 -0.1787 -0.3595
29713W        W44844  10.113  11.035   0.187 -0.2083  0.1974 -0.0489
29714W        W44845  17.637   2.197  13.873 -0.3840 -0.3768 -0.2177
29715W        W44846   7.366   9.585   1.241 -0.2059  0.0035  0.1459
29716W        W44847  17.138  17.609   0.123  0.1866  0.1395  0.0683
29717W        W44848   2.498   9.589  15.030 -0.0410 -0.0002 -0.2093
29718W        W44849  16.517   9.520   1.617 -0.2804  0.0716 -0.1839
29719W        W44850  10.438   7.929  15.028 -0.5190 -0.0705  0.0364
29720W        W44851   2.683   4.676   4.294 -0.1061  0.1724 -0.0699
29721W        W44852   0.442   2.607   5.652  0.0763 -0.2985 -0.0408
29722W        W44853  14.666  15.460  11.705  0.2584  0.1340 -0.5184
29723W        W44854   0.642   8.520  13.924  0.2049 -0.0745  0.1282
29724W        W44855   6.563  10.215   0.338  0.5348 -0.0893  0.1635
29725W        W44856   8.475   3.973  11.711 -0.1196 -0.1461  0.0881
29726W        W44857  18.336  13.397   1.865  0.1439  0.2820  0.2190
29727W        W44858  10.159  15.884  10.348 -0.1826 -0.3511 -0.1263
29728W        W44859   5.100  13.137   0.359 -0.1046 -0.0193  0.3401
29729W        W44860   8.182  13.339   9.708  0.0294 -0.1691  0.3249
29730W        W44861  10.092   7.760   0.529 -0.0776 -0.1161  0.1742
29731W        W44862  13.978  18.360  13.790 -0.0135 -0.0078  0.1190
29732W        W44863  13.202  10.853   5.392  0.3817 -0.0218 -0.3251
29733W        W44864   6.827  13.326   0.988  0.0996 -0.1423 -0.1006
29734W        W44865   2.644   2.454  15.176  0.0385 -0.1239 -0.1487
29735W        W44866  10.769   7.680  13.584  0.0926 -0.0564 -0.0635
29736W        W44867   7.622   2.498  11.766  0.1841 -0.1623 -0.0016
29737W        W44868  14.441  15.470   1.360 -0.1986 -0.1076  0.0126
29738W        W44869  12.859   9.105  15.641  0.0732 -0.0937  0.2894
29739W        W44870   7.523   9.077   5.584  0.0891 -0.2564  0.2195
29740W        W44871  16.975   3.792  12.922  0.1341  0.1900 -0.1716
29741W        W44872  11.722   6.109   0.973 -0.0307  0.0793 -0.1905
29742W        W44873   2.502  16.826   1.664 -0.4749  0.2631  0.1571
29743W        W44874   9.593   0.373  10.992  0.1275 -0.6413  0.1217
29744W        W44875   1.887  12.839  13.585  0.0339 -0.2914 -0.0289
29745W        W44876  13.358   6.252  12.003  0.0535 -0.4554  0.2841
29746W        W44877   1.077  18.100   2.284 -0.0861  0.3388  0.0690
29747W        W44878  11.946  11.704  13.493 -0.1238 -0.0902 -0.1880
29748W        W44879   4.662   4.889  11.814 -0.1899 -0.5254  0.1105
29749W        W44880   1.151  14.465  11.233  0.0680 -0.2411 -0.0180
29750W        W44881   1.882   6.874  10.153  0.4693  0.0189 -0.1643
29751W        W44882   4.689   9.968  12.177 -0.1134  0.1869 -0.2545
29752W        W44883  11.740  14.029   1.495  0.0296  0.1077 -0.0963
29753W        W44884   4.093   4.118   1.993 -0.5102  0.0818 -0.0681
29754W        W44885   5.341  17.439   0.571 -0.0597  0.0933  0.2895
29755W        W44886   8.343   6.657  15.743  0.0746  0.1750  0.0338
29756W        W44887   4.233   6.094   4.068 -0.0973  0.0278  0.1328
29757W        W44888  16.617  16.890  11.170 -0.1850  0.2691 -0.0019
29758W        W44889   4.813  13.347   4.816 -0.3220  0.0470 -0.4408
29759W        W44890   4.493   6.316  13.277 -0.0655 -0.2369  0.2669
29760W        W44891   8.805   2.747   3.669 -0.1194  0.2377 -0.1009
29761W        W44892   8.696  15.670  14.261 -0.1739 -0.3807 -0.0164
29762W        W44893  15.484  12.850   1.817 -0.0798  0.2186  0.0562
29763W        W44894  10.872  12.924  12.621 -0.0233 -0.0064  0.3182
29764W        W44895  18.032   0.256   3.303 -0.0882  0.1642 -0.2084
29765W        W44896   0.894   9.619   0.987 -0.1473 -0.1529 -0.1392
29766W        W44897  15.318  14.399  11.113 -0.0953 -0.0755 -0.4954
29767W        W44898  14.261  18.296  14.477 -0.0443  0.1908  0.3261
29768W        W44899   6.754  18.534  15.252 -0.0426  0.0977  0.1702
29769W        W44900   9.675   8.670  12.766 -0.3062  0.0138  0.0351
29770W        W44901  14.227  14.843  15.183  0.0553 -0.0218  0.3552
29771W        W44902   3.389   9.502  14.247 -0.1736  0.1385 -0.1697
29772W        W44903  14.588  10.389  15.723  0.0759  0.2679 -0.5060
29773W        W44904   3.953  16.402  13.742 -0.2354  0.1273 -0.0961
29774W        W44905   3.236  18.043  14.389 -0.0043  0.0343  0.2990
29775W        W44906   3.775   8.916   4.989 -0.4697  0.1246  0.0850
29776W        W44907  12.947  15.582  14.274 -0.0717 -0.1121  0.0732
29777W        W44908   6.832  17.440   1.864 -0.2074  0.1247  0.2670
29778W        W44909  18.078   2.192  15.495 -0.0048  0.1769 -0.4379
29779W        W44910   9.631  10.977   1.643 -0.1465 -0.0829  0.0047
29780W        W44911  11.542   7.626   4.955 -0.1886 -0.2285 -0.4956
29781W        W44912   7.857  18.142  14.213  0.1009 -0.3761  0.1265
29782W        W44913   9.143   7.508  14.849  0.1340 -0.1112 -0.1152
29783W        W44914   3.282   0.370   2.886  0.1193 -0.1773  0.4452
29784W        W44915   7.093   6.223   0.617  0.1191 -0.3740 -0.1522
29785W        W44916   5.622   9.270   0.032 -0.1133 -0.0448  0.3259
29786W        W44917  15.490  13.241   4.665 -0.2011 -0.0716  0.1090
29787W        W44918  14.694   7.440   3.346  0.0956 -0.0399  0.2670
29788W        W44919  10.330  10.088   0.783 -0.1437  0.2931 -0.1334
29789W        W44920   7.123  11.555   3.917 -0.0234  0.3064  0.0393
29790W        W44921   0.423  15.509   4.111  0.2370  0.0467 -0.1320
29791W        W44922  16.058   5.945  10.841 -0.0674  0.1587  0.0432
29792W        W44923   9.174   5.429  14.234 -0.0307  0.2218 -0.0036
29793W        W44924   9.150   7.287   6.123  0.3396  0.2132  0.4839
29794W        W44925  14.098   8.365   5.772 -0.0446  0.2273 -0.1544
29795W        W44926   6.848   9.688   1.123 -0.1957 -0.2492 -0.1001
29796W        W44927   7.727   4.475   2.648 -0.1275  0.0839 -0.0586
29797W        W44928   2.228   8.573   0.568 -0.1676  0.1118  0.1280
29798W        W44929  10.653   2.451  13.785 -0.3280 -0.2391  0.0853
29799W        W44930  12.703  10.641  14.311  0.0430  0.1557  0.0434
29800W        W44931   9.896  13.042   5.178  0.3367  0.3131 -0.0109
29801W        W44932  12.572   8.930   1.593  0.1339 -0.0268  0.2862
29802W        W44933  11.151  11.443   2.892  0.1155  0.1440  0.1677
29803W        W44934   2.025   3.372   1.146  0.0852  0.0336  0.0270
29804W        W44935   1.530   8.018  12.230  0.2153 -0.0189  0.0506
29805W        W44936   0.289   9.245   5.922 -0.2248  0.2584  0.2334
29806W        W44937   8.888   2.814  12.320  0.0807 -0.0624  0.1976
29807W        W44938  12.465   7.494   1.831 -0.1472  0.2495 -0.0107
29808W        W44939   5.423  13.382   2.158  0.1476  0.3012 -0.1139
29809W        W44940  16.981  14.953   3.531  0.0077  0.2667  0.2480
29810W        W44941   1.906   8.239  12.471  0.1787 -0.0214  0.2753
29811W        W44942  15.348  14.501   2.137  0.0659  0.1167 -0.1086
29812W        W44943   1.724  16.443   2.323 -0.3314 -0.1468  0.0471
29813W        W44944   1.604  16.258  14.472 -0.0509 -0.2443 -0.3589
29814W        W44945  17.342   9.741   2.003 -0.0016 -0.2550  0.0652
29815W        W44946   0.621  14.951   1.262 -0.2207 -0.0904  0.0689
29816W        W44947  10.121  16.421  10.010 -0.2380 -0.0354  0.1039
29817W        W44948  12.347  11.520   4.280 -0.3357  0.1418 -0.0556
29818W        W44949   5.737  18.070  15.900 -0.1746  0.1601  0.0576
29819W        W44950  14.810  10.040  13.903 -0.0509 -0.2893 -0.1339
29820W        W44951   1.340  17.743  10.689 -0.1898  0.0013 -0.3426
29821W        W44952   2.193   2.929   0.523 -0.0661  0.2215 -0.0483
29822W        W44953   6.663  17.468  14.458  0.1716 -0.1468 -0.1485
29823W        W44954   7.110   8.502  12.631 -0.0705  0.0619 -0.1163
29824W        W44955   3.000   4.234   0.573 -0.1108 -0.0457 -0.1964
29825W        W44956  17.513  11.825  11.375 -0.3481  0.0890 -0.0510
29826W        W44957  18.212   8.368  11.273 -0.0468  0.2187 -0.3880
29827W        W44958  10.787   1.454  14.598  0.1357  0.0707  0.1517
29828W        W44959   0.112   2.084   3.730 -0.1025 -0.1006  0.0024
29829W        W44960   0.342  11.072  14.964 -0.1545 -0.3270 -0.0352
29830W        W44961  16.784  17.808  11.789  0.1471 -0.2372  0.0373
29831W        W44962   8.282   5.689  15.501 -0.0493  0.1157  0.0108
29832W        W44963   2.080  14.646   4.148 -0.0489  0.0419  0.2771
29833W        W44964  17.945   5.993   2.033 -0.1375  0.0473  0.0080
29834W        W44965  14.866   9.186   2.431  0.0828  0.0442 -0.0757
29835W        W44966  13.732  14.303   2.598  0.1672  0.0511  0.1220
29836W        W44967   8.435   0.420  13.474 -0.2746  0.4551 -0.0420
29837W        W44968   4.932   7.126  13.797  0.1182  0.2236  0.2636
29838W        W44969  13.321   7.468   3.189  0.2859 -0.0501 -0.2288
29839W        W44970  17.614   0.612   5.705 -0.1319 -0.1067  0.1515
29840W        W44971   7.597   1.896   4.700 -0.1084  0.0827 -0.3100
29841W        W44972  10.475  14.124   2.816 -0.2572  0.1269  0.0415
29842W        W44973  14.280  13.598   1.166 -0.3810  0.0378 -0.1962
29843W        W44974  13.306  13.995  14.548 -0.1550  0.0589 -0.1821
29844W        W44975   0.944  13.287  13.298  0.1442  0.0047 -0.0278
29845W        W44976  15.589   5.684   2.697  0.1150  0.2637 -0.1684
29846W        W44977  15.985   7.834   0.535  0.0811  0.0250 -0.0090
29847W        W44978  16.164  10.617  14.667  0.4523 -0.4409  0.1426
29848W        W44979  10.070   3.391   2.832 -0.1781  0.2445  0.2031
29849W        W44980   0.447  11.966  15.657 -0.2677 -0.2235  0.2252
29850W        W44981   2.140   8.772  14.626  0.1433 -0.3987 -0.2513
29851W        W44982  11.170   0.083  12.114  0.4321 -0.3268 -0.0033
29852W        W44983  10.819   0.924   3.533 -0.2861  0.0030  0.2661
29853W        W44984  13.062  14.416   1.256 -0.1105 -0.2404  0.2848
29854W        W44985   8.952   9.140   2.469  0.3821 -0.0657  0.0726
29855W        W44986   2.597   8.867  13.041  0.1655  0.1992  0.1743
29856W        W44987  18.231  17.529   1.702  0.1075 -0.1958 -0.1971
29857W        W44988   6.526   3.960  11.421  0.0415  0.1784  0.3053
29858W        W44989   9.165   6.077   1.659 -0.1916 -0.0800  0.0363
29859W        W44990  13.730   3.945   3.856 -0.1402 -0.1215 -0.1337
29860W        W44991   3.361   9.527  11.977 -0.2119  0.1762 -0.2875
29861W        W44992  12.336  15.856   5.364 -0.0664 -0.1350  0.0290
29862W        W44993   8.692  11.325   0.091  0.2307 -0.4047  0.3512
29863W        W44994   8.279  17.421  10.102 -0.0825  0.2547  0.1851
29864W        W44995   9.843  15.708   0.174 -0.2701  0.0609 -0.0967
29865W        W44996   7.059   1.351   0.927 -0.2195  0.2001  0.0550
29866W        W44997  12.696  13.157  12.878 -0.0127  0.0086 -0.0165
29867W        W44998   4.394   8.774   1.697 -0.3410 -0.0768 -0.1967
29868W        W44999   3.969   5.153   4.068  0.3245  0.0959 -0.0884
29869W        W45000   2.539   5.300   3.288  0.0561  0.3127 -0.0905
29870W        W45001  11.808   7.753   3.576 -0.2310  0.1511 -0.3022
29871W        W45002   6.326  13.842  13.347 -0.1913 -0.0890 -0.0291
29872W        W45003  12.964  17.525  12.715  0.1979  0.0427  0.1930
29873W        W45004  12.727  13.111  14.182  0.0173  0.0019  0.0638
29874W        W45005  14.208   2.772  14.681  0.0998  0.2937  0.2222
29875W        W45006   6.990   0.098   0.895  0.0176 -0.0044  0.1382
29876W        W45007  14.815   0.518  11.964  0.1611 -0.0002 -0.1675
29877W        W45008  15.099   2.557  15.182  0.0794  0.0475  0.0011
29878W        W45009   9.793  13.974   3.319  0.3882  0.1548 -0.1622
29879W        W45010   1.704  16.369  11.023  0.4143 -0.0762 -0.0215
29880W        W45011  14.555   8.388   3.952 -0.5022  0.0578  0.1603
29881W        W45012  14.383  17.395  12.266  0.0152  0.1847 -0.1117
29882W        W45013   9.565   3.800  14.764 -0.0555 -0.2044 -0.0384
29883W        W45014  12.802   3.878   0.622  0.0844 -0.0709  0.0578
29884W        W45015   2.134  16.302   2.675  0.1714 -0.2429  0.4100
29885W        W45016  18.306  11.174  12.869  0.5297 -0.0711  0.3014
29886W        W45017  18.074  12.135   5.406  0.1731  0.3889 -0.1633
29887W        W45018  13.500  13.206   1.319 -0.0640 -0.1213  0.0093
29888W        W45019   5.012   0.305  11.481  0.0697  0.0714 -0.1776
29889W        W45020  13.455   9.603  15.047  0.0048  0.2170  0.2416
29890W        W45021   1.523  10.848  12.545  0.1149  0.1294 -0.0708
29891W        W45022   9.000  10.684   2.410  0.0338 -0.0276  0.1740
29892W        W45023  14.334   9.300   4.443 -0.0779 -0.1796  0.0671
29893W        W45024   2.542   5.139  13.998 -0.1635 -0.0628  0.0763
29894W        W45025   1.236   5.087   0.933 -0.1693 -0.5140  0.0188
29895W        W45026  10.986   4.898   5.079  0.1128 -0.1018  0.2000
29896W        W45027  16.495   8.327  11.366 -0.3335  0.0930  0.0620
29897W        W45028   1.558  13.709  13.907 -0.0904  0.0719  0.1822
29898W        W45029   0.077   0.936  12.731 -0.1700  0.0177 -0.0036
29899W        W45030  15.741   2.062  12.367 -0.1530  0.0377  0.0558
29900W        W45031  16.380   8.432  14.485  0.0717  0.3934 -0.0934
29901W        W45032   3.973   5.316  15.296  0.1148 -0.0009  0.0399
29902W        W45033  15.333  10.892   0.897 -0.2270 -0.2132 -0.0955
29903W        W45034  11.286   2.820   1.149  0.3245 -0.4149  0.0072
29904W        W45035  13.369  12.443  14.950  0.0817 -0.0753 -0.3125
29905W        W45036  17.819  15.892   4.722  0.3646  0.0052 -0.0400
29906W        W45037  18.195  11.718  12.355 -0.1425 -0.1539  0.0474
29907W        W45038   0.111   1.671   1.087  0.0698 -0.2195 -0.1744
29908W        W45039   6.665  11.074   2.573 -0.0120  0.0111  0.1718
29909W        W45040  16.953   8.525  10.746  0.3570  0.1300 -0.0154
29910W        W45041   0.814  10.434  12.493  0.2133  0.2295  0.1353
29911W        W45042   4.436   3.020  12.021 -0.2638 -0.3582  0.0753
29912W        W45043   0.373   6.510   1.565  0.4356  0.3026 -0.3538
29913W        W45044   5.815   8.791  15.443 -0.1184  0.0947  0.0889
29914W        W45045   5.133   8.250  12.357 -0.1788  0.2610  0.0491
29915W        W45046  10.645   5.543  15.032 -0.0007 -0.2797  0.3027
29916W        W45047   0.328   2.823  14.115  0.0114 -0.3249  0.1764
29917W        W45048  17.369  17.502   0.611 -0.0050  0.1549  0.2288
29918W        W45049   2.986   8.266  11.656 -0.1389  0.0698  0.0620
29919W        W45050   5.905   1.686  10.436  0.1599  0.3419  0.0325
29920W        W45051  12.358  11.028  12.538  0.1477 -0.3826  0.2767
29921W        W45052  13.973  11.998   5.411  0.2383  0.1919 -0.4316
29922W        W45053  16.974   6.360  13.849 -0.1141 -0.0057  0.0419
29923W        W45054   0.886   1.734   4.370  0.1709 -0.0592 -0.4137
29924W        W45055   8.312  15.716   2.511 -0.2161 -0.0669 -0.1191
29925W        W45056  15.558  16.671  14.698  0.0593  0.0321 -0.1252
29926W        W45057   1.710  10.933   4.783 -0.2367 -0.1976  0.1825
29927W        W45058  18.063   9.519   0.657 -0.0993 -0.1207 -0.0520
29928W        W45059  15.616  13.480   5.247 -0.0682 -0.1461  0.0950
29929W        W45060   8.853   5.450   2.562  0.2889  0.2813 -0.3112
29930W        W45061  16.507   0.255   4.868  0.0403 -0.1235  0.0500
29931W        W45062  11.367  13.931  14.329 -0.0805 -0.0752  0.1665
29932W        W45063   2.993   8.048   4.842 -0.2892  0.0174 -0.0802
29933W        W45064  10.646   6.218   2.527 -0.6654 -0.0671 -0.2856
29934W        W45065   2.990  15.637   2.444 -0.0384 -0.1974  0.0198
29935W        W45066   0.186  15.037   3.119  0.2392  0.1648 -0.0070
29936W        W45067   1.039  11.204  15.746 -0.0643  0.2118  0.2943
29937W        W45068  11.051   1.236   4.555  0.0713  0.1072  0.1327
29938W        W45069   1.259  17.646  14.485  0.2565  0.5138 -0.1423
29939W        W45070  14.814   8.992  12.954  0.1097 -0.1115  0.1600
29940W        W45071   1.786  13.789   2.244  0.0200 -0.0946 -0.3085
29941W        W45072   4.992  10.199   1.740 -0.0071 -0.1003  0.2242
29942W        W45073   1.234  11.394  15.229  0.1247  0.1886 -0.2546
29943W        W45074  15.555  16.727   3.203 -0.1312  0.1666  0.1501
29944W        W45075   9.382  18.397   4.416 -0.4260  0.1963 -0.1767
29945W        W45076   8.826   0.260   0.484  0.1977  0.0520 -0.3251
29946W        W45077   4.922  13.619   2.274 -0.2889  0.0159  0.0471
29947W        W45078  11.149  10.833   0.838  0.2255  0.0591  0.1279
29948W        W45079  12.497  16.999  14.784  0.2085 -0.2016  0.0026
29949W        W45080   7.419   7.809   4.004 -0.2183  0.0918 -0.2069
29950W        W45081   4.371   2.292  12.583 -0.2039  0.0157 -0.1725
29951W        W45082   1.830   0.700   3.230 -0.3638 -0.1124 -0.0416
29952W        W45083   6.361   4.187   3.014  0.0174  0.1391  0.3533
29953W        W45084  16.396   7.634  11.715  0.1409  0.0164  0.0083
29954W        W45085   2.199   3.354   5.109 -0.0689 -0.1524  0.2538
29955W        W45086   7.863  12.759  14.275  0.0625 -0.1042  0.2811
29956W        W45087   9.252   6.812  11.992  0.2565 -0.1476 -0.3036
29957W        W45088  10.185   0.004  13.553  0.0815  0.2492 -0.0868
29958W        W45089   3.626   7.434  10.221 -0.1990 -0.3998 -0.1067
29959W        W45090  18.474  11.202  11.039  0.0148 -0.1555  0.0806
29960W        W45091   5.786   2.915   3.570 -0.0853  0.1564 -0.2080
29961W        W45092   8.644  14.704   2.866 -0.0173 -0.0649 -0.0965
29962W        W45093   7.552  12.120  15.675 -0.1273  0.2684 -0.0387
29963W        W45094  10.380  10.125  14.886  0.6908 -0.1719 -0.1345
29964W        W45095  12.929  18.186  14.084  0.1680 -0.2018  0.1303
29965W        W45096  15.449   9.297  13.889  0.0644  0.1493 -0.2053
29966W        W45097   7.497   9.252   4.399 -0.2588 -0.4183  0.3443
29967W        W45098   9.747  14.972  10.386  0.2357 -0.0359 -0.0878
29968W        W45099   3.319   9.990   2.033 -0.2676 -0.1612  0.0390
29969W        W45100   9.240  18.524  11.470 -0.1538 -0.1837  0.3920
29970W        W45101   8.576   8.966  14.086 -0.2027  0.0417  0.1192
29971W        W45102  10.042   6.923   2.539  0.3139 -0.3069 -0.1516
29972W        W45103   8.803  14.868   2.168  0.1095  0.0563  0.0800
29973W        W45104   0.883   5.609   3.544  0.0631 -0.1109  0.1215
29974W        W45105  16.999  15.427   1.703  0.0901  0.3206  0.0189
29975W        W45106  14.233   3.621   3.672  0.0992 -0.1643  0.1138
29976W        W45107   9.022  17.778  10.161  0.1423 -0.1876  0.3007
29977W        W45108  11.791  17.382  13.373 -0.0533  0.1011  0.1850
29978W        W45109   2.381   8.977  10.318  0.0846  0.0181  0.0560
29979W        W45110   4.225   5.516  13.814  0.0649  0.1913 -0.1351
29980W        W45111  13.296   9.605   0.010 -0.2681 -0.1546 -0.0726
29981W        W45112  17.582   7.335   3.715 -0.2295  0.1667 -0.2427
29982W        W45113   1.898  18.089  13.258  0.1721 -0.1514  0.3586
29983W        W45114  17.053  11.509  14.170  0.0705 -0.0277 -0.1434
29984W        W45115   1.613  10.557   4.159  0.0224 -0.1086  0.0464
29985W        W45116   2.492   8.657  13.495  0.0867  0.0238  0.0332
29986W        W45117  14.790  13.340   3.081 -0.5102 -0.1699 -0.0829
29987W        W45118   7.070   2.193   2.616 -0.1899 -0.0210  0.0217
29988W        W45119   5.451   3.423  10.352 -0.1241 -0.0253 -0.1076
29989W        W45120  12.923  12.530  15.944 -0.0010 -0.0620 -0.2124
29990W        W45121  10.764  11.813   0.486 -0.0104 -0.0067  0.0916
29991W        W45122  18.195  15.051  13.767 -0.0952 -0.1504 -0.1647
29992W        W45123  11.403   7.454  11.438 -0.1560 -0.0400  0.1752
29993W        W45124   9.816   0.732  14.889 -0.0021 -0.2220 -0.1159
29994W        W45125  17.523  14.441   0.309  0.1334  0.2479 -0.0820
29995W        W45126  13.494   4.369  12.957  0.0791  0.0719 -0.1140
29996W        W45127   9.694  12.577   3.425 -0.0961  0.0031  0.1317
29997W        W45128  18.020   9.561  12.101 -0.3267 -0.0897  0.1179
29998W        W45129  13.474  14.936  15.703  0.1472 -0.0981 -0.0588
29999W        W45130   4.327   6.890  14.517  0.0663  0.0241  0.2183
30000W        W45131   1.846  15.133  12.405 -0.0197  0.4812  0.0793
30001W        W45132   7.818   8.930  12.408 -0.2424  0.3164  0.0925
30002W        W45133   4.115   7.420  11.300 -0.2469  0.3047  0.2676
30003W        W45134   4.799  11.656  12.722 -0.1127 -0.1040  0.0077
30004W        W45135  11.976  12.663   5.723 -0.3314 -0.0568 -0.1615
30005W        W45136   2.778  13.398   5.910  0.2338 -0.1526 -0.4567
30006W        W45137   8.520   0.739   4.541  0.1407  0.0354  0.0642
30007W        W45138   6.687   7.356   2.883  0.2827 -0.2554 -0.3745
30008W        W45139   2.877   6.040   3.768 -0.3804 -0.2964  0.1812
30009W        W45140   3.929  17.285  10.441  0.2481 -0.0186 -0.2474
30010W        W45141   8.567   1.542   1.025  0.3115  0.1980  0.1079
30011W        W45142   0.749   8.999   3.644 -0.0237  0.0769  0.1769
30012W        W45143   7.098   1.519   2.411 -0.1169 -0.0442  0.0306
30013W        W45144   1.299   8.135   4.416  0.0265  0.0358 -0.0494
30014W        W45145   2.656   2.616  11.427  0.4412  0.0601 -0.0573
30015W        W45146   4.421  12.732   4.213  0.2951  0.1146 -0.1543
30016W        W45147  10.450   4.406   1.665  0.1357 -0.0988 -0.2898
30017W        W45148  15.519   1.653  12.527 -0.0498  0.1108 -0.1338
30018W        W45149  13.851   4.589   1.733 -0.3148  0.0185  0.1969
30019W        W45150   1.949   3.059   6.206  0.0639 -0.2129  0.1680
30020W        W45151   2.369   3.753  11.051  0.0884 -0.0381  0.0783
30021W        W45152   9.923   7.842  12.283  0.0784  0.1668 -0.1284
30022W        W45153   3.978   2.015   4.961  0.0620  0.1250 -0.1519
30023W        W45154   9.481   5.944  14.258  0.0930 -0.0369  0.1479
30024W        W45155  14.630  14.814   6.022 -0.1837  0.1513  0.0340
30025W        W45156  14.793   1.764  11.309 -0.0971  0.1933 -0.0533
30026W        W45157   2.270  11.185  12.283 -0.1814 -0.0142 -0.0532
30027W        W45158   7.505  11.909  10.560  0.0965  0.0944 -0.0800
30028W        W45159   1.593   7.213  13.418  0.1570 -0.1717 -0.3895
30029W        W45160   7.285   6.629   3.265  0.1147  0.1237 -0.1679
30030W        W45161   1.724   6.200   2.406  0.0911  0.0682  0.1880
30031W        W45162  12.100   5.074   4.385  0.1282  0.0496  0.3267
30032W        W45163  12.028   2.802   4.751 -0.0990 -0.1217  0.1131
30033W        W45164   1.504  13.262   2.519 -0.2853  0.2757 -0.0299
30034W        W45165  12.267   3.025  12.129 -0.1001  0.3467  0.3690
30035W        W45166   3.341   7.382   3.903  0.1500  0.1899  0.0276
30036W        W45167   0.421   8.640   4.389 -0.2446 -0.1163 -0.1184
30037W        W45168   8.304   9.730  14.926  0.3199 -0.4425 -0.3279
30038W        W45169  14.286   4.410   2.595  0.0563 -0.0486 -0.2556
30039W        W45170   9.852   0.602  14.400  0.2542 -0.0933  0.1871
30040W        W45171   0.398   5.106   3.019 -0.0516 -0.3116  0.4209
30041W        W45172   8.879  10.089  14.516 -0.1092 -0.1441  0.1738
30042W        W45173   7.087   9.544  15.524  0.0448 -0.1793 -0.1934
30043W        W45174   5.148   2.213   3.119  0.0268 -0.0251 -0.1549
30044W        W45175   9.903   2.274  12.946 -0.0202 -0.2124 -0.1861
30045W        W45176  10.673  12.010  15.460 -0.1541 -0.5756 -0.2150
30046W        W45177   6.909   8.103   5.070  0.0584  0.2228  0.2634
30047W        W45178  17.778  15.620  15.781 -0.1449  0.0494  0.1741
30048W        W45179   6.997  15.046   3.800  0.2494 -0.2290  0.0931
30049W        W45180  15.438  16.811  10.555 -0.3796  0.1726 -0.0222
30050W        W45181   2.973  11.171   4.252 -0.4379  0.4625  0.2892
30051W        W45182   1.862  14.707   2.208 -0.0489  0.2919 -0.3403
30052W        W45183  13.218  16.485  11.155 -0.0296  0.2332 -0.0618
30053W        W45184   3.593   9.351  13.273  0.1376  0.1503 -0.0074
30054W        W45185   7.036  18.095   1.262 -0.0270  0.1264  0.0440
30055W        W45186  10.235  10.286   4.561 -0.2355 -0.2443  0.1774
30056W        W45187   5.056   5.886  15.866 -0.2430  0.3416  0.3640
30057W        W45188   1.800  16.281   9.935 -0.1025  0.2196 -0.1941
30058W        W45189   7.927   3.439  13.996 -0.0112  0.2329  0.0188
30059W        W45190   2.417   8.076  10.827  0.0020  0.0284  0.0820
30060W        W45191  13.325   8.538   0.284 -0.0024 -0.2398 -0.1354
30061W        W45192   8.448   3.519   1.181 -0.0077  0.0071 -0.0714
30062W        W45193  13.788   1.660  12.243 -0.2434 -0.0326 -0.2503
30063W        W45194   2.500  17.516  11.810 -0.0973 -0.0081 -0.0297
30064W        W45195   2.834  11.944  14.512  0.0939 -0.2979 -0.0574
30065W        W45196  12.680   7.155  15.889  0.0527 -0.1381 -0.0721
30066W        W45197   0.475  11.902  14.748 -0.0200  0.0318 -0.2856
30067W        W45198   5.858   9.506  12.381  0.4189  0.3679  0.0959
30068W        W45199  10.065  14.547   2.540 -0.1676 -0.0274 -0.0708
30069W        W45200  18.505  14.781  13.500 -0.0870  0.2585 -0.2406
30070W        W45201   8.685  16.901   9.571 -0.1514  0.0302  0.3082
30071W        W45202   6.848  11.780   0.364 -0.0197  0.3174  0.1306
30072W        W45203  16.373  13.592   6.323  0.1438 -0.2228 -0.1482
30073W        W45204   4.373   8.926   4.255  0.0197  0.1933  0.2164
30074W        W45205  11.753  12.798  13.732 -0.1683  0.0556  0.0264
30075W        W45206   8.646   1.354   2.972 -0.0529 -0.1853  0.1498
30076W        W45207  14.342  12.392  12.308 -0.0377 -0.0400  0.0741
30077W        W45208  11.934  11.590  11.841 -0.2179  0.1172 -0.1343
30078W        W45209  15.491  11.373  13.504  0.1652  0.0591 -0.1984
30079W        W45210  12.233   8.727   2.656 -0.0077 -0.3273  0.1878
30080W        W45211   3.128   2.230  11.442  0.1551 -0.0176  0.2459
30081W        W45212   7.399  10.917  11.788  0.0286 -0.3053 -0.2858
30082W        W45213   6.844  14.626  11.676 -0.2165 -0.1377 -0.0287
30083W        W45214  18.417   2.675  13.376  0.1478 -0.1848 -0.0359
30084W        W45215  10.327   5.717   2.369 -0.0080  0.0628  0.0453
30085W        W45216  17.432   3.866  13.068  0.1384 -0.0743 -0.0087
30086W        W45217  15.255   5.178   0.344 -0.0063  0.0464 -0.1996
30087W        W45218  14.066  11.199   3.540 -0.0192 -0.0757 -0.0311
30088W        W45219  15.712  13.348   2.805 -0.2035 -0.0387  0.0734
30089W        W45220  13.915  14.318  15.153  0.1464  0.0879 -0.0666
30090W        W45221  18.541   4.039   2.621 -0.0112  0.3062 -0.1988
30091W        W45222   2.084  16.925  11.734 -0.3343  0.1543 -0.2277
30092W        W45223   9.199  11.291   3.069  0.0342  0.1706 -0.1057
30093W        W45224   1.697   8.082   2.130 -0.0776  0.1397  0.0515
30094W        W45225  14.987   7.787   4.742 -0.1088  0.0984 -0.0263
30095W        W45226   5.954  10.017  11.616  0.0563 -0.1317 -0.0993
30096W        W45227  11.656   0.287   5.862 -0.1555 -0.2830 -0.1187
30097W        W45228  15.904   1.174   0.610  0.1850 -0.2867 -0.3091
30098W        W45229   5.918   9.583  15.031  0.4156 -0.0172 -0.0711
30099W        W45230  17.861   1.992  11.147 -0.5213 -0.0918 -0.2066
30100W        W45231  13.925   8.075  10.908  0.3078  0.0955 -0.2571
30101W        W45232   1.039   8.244   4.930 -0.0821 -0.0679 -0.0205
30102W        W45233  16.440   5.948   2.421 -0.1902  0.1023 -0.2389
30103W        W45234  13.743  10.881  12.322 -0.0996  0.1901  0.1250
30104W        W45235   9.683  14.515   3.347 -0.1136 -0.0484 -0.0481
30105W        W45236   4.506   7.348  14.504 -0.0396  0.1485  0.1418
30106W        W45237  11.182  15.115  13.026 -0.2098  0.1311  0.1761
30107W        W45238   9.082   8.622  11.796  0.0849 -0.1254  0.0092
30108W        W45239  13.244  12.452   2.238 -0.0283 -0.0219  0.0923
30109W        W45240  12.659  11.960   4.734 -0.0566 -0.1489 -0.1440
30110W        W45241  17.939  13.664  15.683 -0.2702 -0.0526  0.2236
30111W        W45242   1.767   1.038  13.088  0.0444  0.0091  0.0752
30112W        W45243   8.283  15.518  15.689 -0.1126  0.0055  0.1770
30113W        W45244   9.198   6.140   5.384  0.4566 -0.0610  0.0763
30114W        W45245  12.685   7.259  11.997 -0.0146 -0.1980  0.0062
30115W        W45246  12.508  13.512   2.072 -0.1406  0.1570 -0.2287
30116W        W45247   7.647  10.015  10.669  0.2432 -0.1298  0.0398
30117W        W45248  12.764  12.775   4.571  0.2973  0.0959  0.0068
30118W        W45249  16.775   5.098   3.757  0.1494 -0.0062  0.1175
30119W        W45250  16.096   6.709  14.024  0.2489 -0.0224  0.0651
30120W        W45251  17.463  12.485   0.767 -0.0987  0.0403 -0.1428
30121W        W45252   6.748   6.138   3.738  0.2847  0.0703  0.2667
30122W        W45253   4.263  15.022   4.763  0.1990 -0.3596 -0.2134
30123W        W45254   4.607  15.952  13.013 -0.0125  0.1568 -0.1437
30124W        W45255  12.994   7.306  13.385  0.3895  0.2838  0.0350
30125W        W45256   3.385   8.933   1.723  0.0692  0.0559 -0.0650
30126W        W45257  13.120   8.494  11.815 -0.4187 -0.2848 -0.0719
30127W        W45258  10.148   5.853   5.176  0.4842  0.1478 -0.1603
30128W        W45259   5.017  17.211  13.784 -0.1776  0.2717 -0.0979
30129W        W45260   4.209  15.580   0.665  0.0177 -0.3961 -0.0106
30130W        W45261   1.232   9.532  13.211 -0.1543  0.1050 -0.1845
30131W        W45262  14.844   1.389   0.650  0.2124  0.1189 -0.1632
30132W        W45263   2.652  10.203   0.509 -0.3000 -0.1113 -0.0877
30133W        W45264  11.349  11.438  14.936 -0.1885  0.0629  0.2114
30134W        W45265   9.094  10.169   1.675  0.2943 -0.1322 -0.2419
30135W        W45266   0.100   8.685  11.291 -0.2533  0.3830  0.1609
30136W        W45267  15.616  16.241   4.151 -0.3948  0.0564  0.4111
30137W        W45268   7.818  14.046   1.999  0.1890  0.1764 -0.1013
30138W        W45269  13.877   5.253   2.998 -0.2407  0.1636 -0.2076
30139W        W45270  13.775   8.551   0.761 -0.2172 -0.2449 -0.0209
30140W        W45271  11.899   0.651   1.121 -0.1447  0.1969  0.2115
30141W        W45272   2.339  17.271   2.743  0.0007  0.0274  0.0430
30142W        W45273  17.626  14.106   2.729  0.0515  0.0512 -0.1507
30143W        W45274   3.754   8.467  12.723  0.0044 -0.0424 -0.1763
30144W        W45275   1.988   5.765  14.314  0.2606 -0.0157 -0.4313
30145W        W45276   7.299  16.868   1.787  0.2059  0.0379  0.0726
30146W        W45277  12.629   2.609   0.709 -0.1246 -0.1291 -0.1310
30147W        W45278  17.474  11.521  10.996  0.1921  0.2170  0.2367
30148W        W45279   2.732   6.703  11.230 -0.1245 -0.1173  0.0490
30149W        W45280  11.872  12.048   3.140 -0.0036  0.0077 -0.0441
30150W        W45281   3.552  14.811   0.310 -0.2782  0.0383 -0.0044
30151W        W45282  12.005  15.518   3.783 -0.1871 -0.1204  0.1024
30152W        W45283   6.473   8.120  10.793 -0.2569 -0.2316 -0.0413
30153W        W45284   8.277   0.131   5.842  0.1087 -0.0935  0.0237
30154W        W45285  11.476   2.314   3.666 -0.1861  0.0970  0.2177
30155W        W45286  17.684  12.079   5.883  0.1861  0.0331  0.2557
30156W        W45287  14.516   0.087  11.058  0.1023  0.0140  0.2058
30157W        W45288   8.625   1.864   5.196  0.4684  0.2460 -0.0880
30158W        W45289  12.875   3.323   4.715  0.0411  0.1148 -0.0040
30159W        W45290   0.324  12.402   5.363 -0.0731  0.4140  0.1520
30160W        W45291   1.132  12.628   0.855  0.2163  0.0422 -0.2487
30161W        W45292   1.317   9.005   0.289 -0.2511 -0.5932 -0.0116
30162W        W45293  10.773  14.904   3.635  0.0989 -0.2696 -0.0445
30163W        W45294  11.967  18.224   1.256 -0.1506 -0.2968  0.3234
30164W        W45295   5.848  14.094  13.249  0.0494 -0.1934  0.2123
30165W        W45296   3.080   3.287  14.545  0.1004 -0.0826  0.1535
30166W        W45297   3.180  16.100   1.058 -0.2068  0.1122  0.2815
30167W        W45298  10.351  12.558  13.772  0.2193  0.1027 -0.2811
30168W        W45299   3.718  15.009   2.050 -0.1937 -0.0188 -0.0301
30169W        W45300   3.556   5.547  12.370  0.2992 -0.0053 -0.4110
30170W        W45301   1.501  14.216   2.463  0.2363 -0.3469  0.0602
30171W        W45302  16.158   9.732   2.677 -0.0198  0.0158  0.3508
30172W        W45303  10.333  15.517  15.506  0.1957  0.1610 -0.2391
30173W        W45304  14.733   2.581   2.237 -0.1032 -0.0522 -0.1537
30174W        W45305  16.904   5.642   5.586  0.0162  0.0178  0.1768
30175W        W45306   6.180  17.532  12.226  0.0359  0.1122 -0.1946
30176W        W45307  13.763  17.106  10.426  0.3181  0.1716  0.0366
30177W        W45308  12.579   2.014   2.410  0.0591  0.1754 -0.2035
30178W        W45309  17.951   6.070  12.705 -0.0234 -0.0370 -0.0314
30179W        W45310  11.631   0.979  12.465  0.1279  0.1301 -0.3600
30180W        W45311   8.747   0.588  13.941 -0.0747  0.2403 -0.0771
30181W        W45312   2.228  15.262  12.749 -0.0913 -0.0077  0.1929
30182W        W45313  16.514  12.599  12.934 -0.3528 -0.2949  0.1690
30183W        W45314   9.954   8.864  15.736  0.0674  0.3850  0.0467
30184W        W45315  10.860   5.316  12.242 -0.1402  0.2235  0.4495
30185W        W45316  12.140  10.006  12.559 -0.1907  0.1043  0.0400
30186W        W45317   0.546  15.095   5.292 -0.0127 -0.1455  0.3212
30187W        W45318   7.887   2.679   0.537 -0.2230  0.0501  0.3286
30188W        W45319   2.905   1.664  13.847  0.1558 -0.0380  0.0454
30189W        W45320   5.436  11.887  15.920 -0.0583  0.0053  0.1336
30190W        W45321  15.571  17.753  15.323  0.0398 -0.4362  0.3875
30191W        W45322  10.142  11.571  14.351 -0.2198 -0.0211  0.2018
30192W        W45323   1.578   9.202   3.054  0.2788 -0.1823  0.2404
30193W        W45324  17.296   5.684   1.765  0.3344  0.1761  0.1461
30194W        W45325  12.947   8.328   2.498 -0.1985 -0.0909 -0.2028
30195W        W45326  17.161   4.841  11.390  0.2460  0.1065  0.1791
30196W        W45327   3.290  16.109   0.602  0.0644  0.0432  0.0584
30197W        W45328  14.910  12.038  13.918  0.3339  0.1434 -0.0266
30198W        W45329  12.216   2.534   2.147 -0.3900  0.1957  0.0837
30199W        W45330   2.858   9.108  14.688  0.3023 -0.0289  0.1128
30200W        W45331  11.662  14.698  12.994 -0.2654  0.0705  0.1278
30201W        W45332   6.195   0.437   3.109  0.0617  0.0485  0.0079
30202W        W45333   3.173   5.580  11.494 -0.1299 -0.0209  0.3103
30203W        W45334  17.829  16.300   0.731  0.3407 -0.2108 -0.1278
30204W        W45335   2.647   7.690  11.065  0.2326 -0.1736  0.3220
30205W        W45336  13.315  13.559  13.523  0.1783 -0.0196  0.0213
30206W        W45337   3.414   9.233   4.669  0.0976 -0.0929 -0.3230
30207W        W45338  12.024   4.114   3.057  0.3696 -0.3007  0.1993
30208W        W45339  11.040   9.480   5.588 -0.2906 -0.2427  0.0996
30209W        W45340   7.413  17.099  11.723  0.3066 -0.1642 -0.2119
30210W        W45341   4.754  13.904  15.072  0.0749  0.1165  0.0284
30211W        W45342   0.061   0.202   5.583 -0.0938  0.0029  0.2032
30212W        W45343   4.519  12.819  15.691 -0.1532  0.0287  0.0879
30213W        W45344  10.193   1.228  12.760 -0.2754  0.1560 -0.4028
30214W        W45345   0.793  14.732   0.793 -0.0859  0.2936 -0.1522
30215W        W45346   8.000   1.706  14.935 -0.0119 -0.0643 -0.2250
30216W        W45347  10.037   4.800   4.962 -0.2086 -0.2628  0.1688
30217W        W45348   8.292   9.245  14.892  0.0426 -0.0121 -0.0119
30218W        W45349   2.364   4.738  12.932  0.4593  0.3006  0.0435
30219W        W45350  10.351  10.958  12.633  0.3803  0.0292 -0.0674
30220W        W45351   9.644   9.846   1.671  0.1049 -0.2897 -0.1274
30221W        W45352  12.097   6.112   0.296 -0.1215 -0.0031 -0.0750
30222W        W45353  15.888   4.996   2.961  0.0819  0.1971  0.1263
30223W        W45354   0.734  10.344  14.500 -0.1852 -0.3366 -0.0116
30224W        W45355  11.969  15.328  11.166 -0.1483  0.0915 -0.2458
30225W        W45356  10.064  16.956  15.297 -0.2575 -0.4189 -0.0827
30226W        W45357  13.288  10.119  12.105  0.2989 -0.0323 -0.1270
30227W        W45358  15.513  10.835  13.850  0.1999  0.2687 -0.0078
30228W        W45359  11.230   8.793   0.644 -0.2123 -0.1238  0.0931
30229W        W45360  11.803   1.799  10.141  0.1903  0.0772  0.1583
30230W        W45361  10.634   2.963   2.244 -0.0368 -0.2892  0.0773
30231W        W45362   3.471   4.069   0.465  0.1946  0.1804 -0.2823
30232W        W45363  10.265   7.790   1.956  0.0922  0.4577 -0.3026
30233W        W45364   4.200   6.767   5.676 -0.2380  0.0070 -0.0344
30234W        W45365   8.166  11.928  10.446  0.1756  0.3557 -0.5165
30235W        W45366  14.483  18.205  10.635 -0.1627  0.0704  0.0961
30236W        W45367   0.073  13.445  14.963  0.0488  0.0611  0.0439
30237W        W45368   4.798  15.429   3.464 -0.2355 -0.2649  0.0730
30238W        W45369  15.524   9.893   1.107  0.1385 -0.0387  0.1722
30239W        W45370  13.819  12.016   3.014 -0.0048  0.1041 -0.3113
30240W        W45371   8.319   6.320  14.410 -0.2165  0.3049  0.0697
30241W        W45372  17.839  15.488  12.421  0.0346  0.0615  0.1799
30242W        W45373   8.202   4.014   0.732 -0.2189 -0.0850 -0.3449
30243W        W45374  15.108   8.761   2.726 -0.3143  0.0154  0.0411
30244W        W45375   6.813   7.015  13.238  0.1170 -0.0464  0.0368
30245W        W45376   7.685   3.542   1.422 -0.3152  0.2858  0.2305
30246W        W45377  14.861   1.749  11.910 -0.0746  0.1774  0.4712
30247W        W45378  15.319  11.291   5.905  0.1389  0.0671 -0.5913
30248W        W45379  14.568   5.896  13.798  0.1637 -0.3573  0.1555
30249W        W45380  15.364   8.706  12.266 -0.2764 -0.0685 -0.4067
30250W        W45381  13.395   7.318   1.050 -0.2076 -0.0342  0.0211
30251W        W45382  11.785   9.799   4.378  0.0971 -0.0929  0.0090
30252W        W45383  16.866   0.849   2.404 -0.1201  0.0898  0.0788
30253W        W45384  10.910  15.196   5.051  0.0230  0.1340 -0.0704
30254W        W45385   2.987   6.458   4.018  0.1609  0.0707 -0.4396
30255W        W45386  12.208  15.755  13.500 -0.3439  0.2543 -0.1453
30256W        W45387  16.442   5.690   5.355 -0.2559 -0.0351 -0.1137
30257W        W45388   5.610  16.914   3.348 -0.2131  0.1434  0.3501
30258W        W45389   0.842   0.859  15.544 -0.0702 -0.0255 -0.2766
30259W        W45390  17.359   1.973   0.949 -0.1316 -0.2111  0.3995
30260W        W45391  16.018   4.074   3.370  0.1756  0.1421 -0.1281
30261W        W45392  17.424   0.217   1.156 -0.1038 -0.0952  0.2861
30262W        W45393   5.273  12.081   2.588 -0.1788 -0.0549 -0.1457
30263W        W45394   7.821  18.128  14.951  0.3058  0.0217 -0.3962
30264W        W45395  14.622  14.462   0.876 -0.0956  0.2293  0.1019
30265W        W45396  13.468  15.515   4.844 -0.1217  0.3422 -0.2777
30266W        W45397   2.145  17.784   4.772  0.0449  0.0803 -0.2023
30267W        W45398   9.133   6.372   4.674 -0.1696 -0.0962 -0.1810
30268W        W45399   2.366  13.237  13.874  0.0827  0.2829 -0.0705
30269W        W45400   9.500  17.976  13.449  0.0324  0.3123 -0.2609
30270W        W45401  17.986  17.438  11.074 -0.1158  0.1098  0.1747
30271W        W45402  13.155   8.632   0.856  0.3283 -0.0236  0.2799
30272W        W45403  14.819   0.851  14.842  0.0457  0.3121  0.1323
30273W        W45404   5.951  14.809   3.282 -0.0479  0.3362  0.0065
30274W        W45405  18.205  18.021   5.423 -0.2140 -0.2178  0.0830
30275W        W45406   1.614   5.078  14.320 -0.2216 -0.0113  0.3792
30276W        W45407  18.471  15.790   0.774 -0.1587 -0.1076  0.0459
30277W        W45408   6.948   8.617  12.124  0.0085 -0.2010 -0.1469
30278W        W45409   8.380  14.017  11.272  0.1813  0.0057  0.1415
30279W        W45410  14.166   8.812   0.930 -0.0802 -0.0087 -0.1937
30280W        W45411  11.161  11.042  15.175 -0.1600 -0.0110 -0.1334
30281W        W45412   9.466  12.466   3.905 -0.2871  0.0894 -0.5254
30282W        W45413   9.944  10.504  14.739  0.1072  0.3540  0.2233
30283W        W45414   9.742  14.919   1.265  0.1021 -0.0056  0.1980
30284W        W45415  12.486  11.713  14.244 -0.4695 -0.0103  0.0048
30285W        W45416  11.112  17.288  12.369 -0.0969 -0.3055  0.4181
30286W        W45417   0.442   2.264  15.254 -0.0947 -0.1098  0.2392
30287W        W45418   8.663  16.489   3.081 -0.1703 -0.0815 -0.2083
30288W        W45419  17.054  15.508   2.493  0.0169  0.1072 -0.2228
30289W        W45420   5.238  11.552  14.885 -0.0375 -0.1262  0.0876
30290W        W45421  13.048   1.316  10.870  0.5360  0.0120  0.4912
30291W        W45422   7.090  15.811   4.377  0.3044  0.0540  0.0060
30292W        W45423   3.759  13.468   2.754  0.0366  0.0999  0.1545
30293W        W45424  14.982  10.123  11.186  0.3175 -0.3190 -0.1419
30294W        W45425   1.821  12.992  15.688  0.1120 -0.3411 -0.2331
30295W        W45426   9.096  13.592   2.297  0.0049 -0.2159  0.3664
30296W        W45427  13.652  11.120  14.452 -0.1573  0.0570  0.2358
30297W        W45428   2.726  11.705  12.301  0.0821  0.0198 -0.0979
30298W        W45429  17.864   6.142   0.637  0.2447 -0.1050 -0.2746
30299W        W45430   6.791   8.870  13.396 -0.0573 -0.0071 -0.0635
30300W        W45431   8.735  15.207  15.186  0.1018 -0.0186  0.3218
30301W        W45432  13.562   8.950   1.048 -0.0343  0.3829  0.2013
30302W        W45433   3.469   8.770   3.351 -0.0930  0.0493 -0.0363
30303W        W45434   8.289   7.934  15.191  0.0847  0.0020 -0.0090
30304W        W45435   5.885   1.461  14.133  0.1713 -0.2529  0.0629
30305W        W45436   6.147  15.095   1.383 -0.1602  0.0095 -0.1524
30306W        W45437  11.180   7.652  10.708 -0.0611 -0.1232  0.1027
30307W        W45438   8.295  12.323  14.855 -0.4847 -0.1141 -0.1806
30308W        W45439  11.689  16.550  12.623  0.0557  0.2093 -0.1129
30309W        W45440   2.439  15.894   2.494  0.2060  0.1813 -0.2572
30310W        W45441  16.685  13.274  11.220 -0.0839 -0.0528 -0.1007
30311W        W45442   5.564   9.417   9.972 -0.2285 -0.2495 -0.4261
30312W        W45443   7.223  14.239   2.572 -0.0088  0.1758  0.0289
30313W        W45444   8.248  12.496   4.392  0.0243  0.1982 -0.0945
30314W        W45445   4.309   2.865   3.313  0.2253  0.1758 -0.1367
30315W        W45446  14.966   1.482   6.302  0.2375  0.0914  0.2102
30316W        W45447  10.946   2.980  11.616 -0.3620 -0.0281  0.2311
30317W        W45448  10.447  13.729  14.462  0.0402  0.0285 -0.3144
30318W        W45449  18.431  17.224  12.502  0.2387 -0.0471  0.0996
30319W        W45450   7.279   6.323   1.988  0.1302  0.1155 -0.0817
30320W        W45451  16.441  14.065  11.076 -0.0690  0.0490  0.1892
30321W        W45452  13.256   9.870   0.821 -0.3956  0.0941  0.2701
30322W        W45453   0.312   7.268   2.197  0.0970  0.1952 -0.1173
30323W        W45454  16.864  15.304  14.335 -0.0551  0.1455  0.0978
30324W        W45455  17.101   8.489  12.585 -0.1834  0.0734  0.0946
30325W        W45456  13.272   4.029  11.803 -0.1585  0.1597  0.2086
30326W        W45457  15.689   3.968  10.494 -0.3083  0.1244 -0.1613
30327W        W45458  16.030   0.681   5.220  0.1797  0.0393 -0.1185
30328W        W45459   3.745  14.833  14.454  0.1036 -0.1847  0.2300
30329W        W45460  10.999  13.149  13.995 -0.1647  0.1673 -0.0533
30330W        W45461   5.174  15.780  12.066  0.0053  0.2287 -0.0333
30331W        W45462   2.587   7.416   0.755  0.0724  0.3993  0.1287
30332W        W45463  11.799   2.054  10.650  0.3010 -0.3027  0.0803
30333W        W45464  13.053   8.740   3.913 -0.0284  0.0802  0.4854
30334W        W45465   0.813  12.866   3.590  0.0874  0.0373 -0.0387
30335W        W45466   1.049  13.111   0.854  0.0489 -0.2361 -0.0326
30336W        W45467  14.327  14.553  13.883  0.1349  0.3379  0.0501
30337W        W45468  14.857   8.981   0.610 -0.1121  0.0260 -0.0346
30338W        W45469   6.551   4.918  11.595  0.0151  0.2345  0.0419
30339W        W45470   4.723   0.320  11.926  0.3704 -0.1238  0.0581
30340W        W45471  12.756  12.222  14.297  0.2121 -0.5533 -0.3190
30341W        W45472   0.805  16.499   3.874 -0.2752  0.0573 -0.3839
30342W        W45473   6.182   2.942  12.512  0.1085  0.1789 -0.0952
30343W        W45474   0.125   1.758   2.052 -0.1241 -0.0889  0.0174
30344W        W45475  12.480   9.722  14.595 -0.0107  0.3931  0.0527
30345W        W45476  11.073   5.370  15.222 -0.0238 -0.1408  0.1040
30346W        W45477   9.408  13.351   4.612 -0.2193 -0.1069 -0.3148
30347W        W45478  10.839   9.765  12.238 -0.1681  0.0426  0.1598
30348W        W45479   0.971   7.728  11.511 -0.1245 -0.3582  0.0508
30349W        W45480  10.031   0.854   1.576 -0.2070 -0.0682  0.2072
30350W        W45481   2.465  18.113  15.774  0.0193 -0.0136 -0.1707
30351W        W45482   4.561  13.270  12.236  0.0034 -0.0248  0.1892
30352W        W45483  14.396   0.905  15.794 -0.5123 -0.0505  0.3325
30353W        W45484  17.514  18.557   3.589 -0.1117 -0.1547  0.2029
30354W        W45485   2.461   9.656   0.641  0.1167  0.0841  0.2107
30355W        W45486   5.215   1.904  14.689  0.0429 -0.1977  0.3389
30356W        W45487   1.524   0.908   3.580  0.1172 -0.0877  0.1017
30357W        W45488   7.107  14.816  14.586  0.0754  0.1367  0.1750
30358W        W45489  16.167  10.611   5.212  0.0812 -0.1029  0.1332
30359W        W45490  13.055  12.071  10.608  0.2289  0.0555 -0.0754
30360W        W45491  15.223   7.425  11.174 -0.0038 -0.0005 -0.0578
30361W        W45492  11.953  17.722   3.859  0.1297 -0.0414 -0.0880
30362W        W45493   1.048   2.767  14.225  0.1533  0.0216  0.0482
30363W        W45494  17.486  13.395   9.898 -0.1042  0.1240 -0.1231
30364W        W45495  15.786  12.798  11.717  0.1779  0.1858  0.0317
30365W        W45496  11.637   4.993   3.061 -0.0125 -0.0089 -0.1284
30366W        W45497  17.477  18.183   3.202  0.0212  0.4017  0.0819
30367W        W45498   4.573  10.741   0.165 -0.0061 -0.1520 -0.1125
30368W        W45499  15.369   2.013   3.879  0.0075 -0.1512  0.2307
30369W        W45500   0.594   0.990   3.808 -0.3064 -0.0788 -0.1255
30370W        W45501   9.494  13.596  14.397  0.2631 -0.2894 -0.0289
30371W        W45502   4.641  11.545  15.668 -0.0048  0.0200 -0.0705
30372W        W45503   4.487   1.785   9.804 -0.0305  0.1078  0.1167
30373W        W45504  18.335   8.516  15.854 -0.0059  0.1486 -0.5323
30374W        W45505   9.705  13.619  15.426  0.3253 -0.1479 -0.2398
30375W        W45506  14.506   1.363   1.101  0.0137  0.0253 -0.3562
30376W        W45507   3.694   7.117  13.749 -0.3801  0.2346  0.3491
30377W        W45508  12.396  10.466  12.723  0.0601  0.2029 -0.0980
30378W        W45509  15.076  15.751  13.819 -0.1889 -0.1532 -0.0160
30379W        W45510  13.144   2.867   3.877 -0.2327 -0.3833  0.0070
30380W        W45511  16.894  16.225  13.081  0.1234  0.2425 -0.0749
30381W        W45512   0.587   0.274   1.874 -0.2872 -0.3264  0.0426
30382W        W45513   7.740  18.060   4.038 -0.0278 -0.0507  0.0436
30383W        W45514  14.977   4.593  14.454  0.1231 -0.0495  0.0046
30384W        W45515   3.266   4.054   4.493 -0.0343  0.0658 -0.0452
30385W        W45516   5.343  15.396   1.435 -0.0832 -0.0714 -0.0751
30386W        W45517  17.611   1.312  15.691 -0.0940 -0.1747  0.2182
30387W        W45518  17.590   7.177   1.083 -0.1010  0.1032  0.1934
30388W        W45519  13.734  17.563   3.583 -0.0826 -0.0955 -0.3925
30389W        W45520   1.211   4.969   4.191  0.0950  0.2909 -0.1390
30390W        W45521  13.939   2.795   3.433  0.4081  0.2891 -0.1157
30391W        W45522  18.534  15.988  11.112 -0.3572 -0.1216  0.2235
30392W        W45523   5.075  16.492   4.208  0.3334  0.0311 -0.0704
30393W        W45524  14.982   2.788  11.881  0.2328  0.1262 -0.1743
30394W        W45525  14.238  15.129   3.493  0.1956  0.3307  0.4563
30395W        W45526   9.036   2.598  10.709 -0.0146 -0.0834 -0.0091
30396W        W45527   3.518   5.284   0.556 -0.0099  0.2170 -0.3284
30397W        W45528  14.274  13.472  13.775  0.2737 -0.2286 -0.2880
30398W        W45529  12.855  15.397   2.846  0.0457  0.3423  0.0035
30399W        W45530  13.785   2.130  13.180 -0.1788  0.1601 -0.1240
30400W        W45531  10.209   0.222   4.168 -0.1609  0.2833 -0.3473
30401W        W45532  13.161   3.523   3.256 -0.1444 -0.1071 -0.5078
30402W        W45533   8.545  16.874  13.256  0.3240 -0.2420 -0.0883
30403W        W45534   3.950  10.783  13.348  0.2480  0.1255 -0.1304
30404W        W45535   3.437  18.142   2.284  0.2812 -0.2202  0.1905
30405W        W45536  14.967  13.037   2.132 -0.1971 -0.1004 -0.3311
30406W        W45537   9.702  11.550  11.185 -0.2483 -0.0556  0.0187
30407W        W45538   6.375  12.073  14.990  0.0016 -0.0574  0.0065
30408W        W45539  15.886  17.353  14.182  0.0027 -0.0256 -0.1251
30409W        W45540  10.332   6.616   2.838 -0.2418  0.2247  0.0103
30410W        W45541   0.224   9.166   2.042 -0.2127 -0.0437  0.1433
30411W        W45542  12.965  15.633   1.173 -0.3164 -0.2073  0.3137
30412W        W45543   3.037   9.359   4.300 -0.0381  0.2121 -0.0757
30413W        W45544   8.778  10.248   1.262  0.1232 -0.0572  0.1102
30414W        W45545   6.675  13.820   4.684  0.0542  0.0348  0.1433
30415W        W45546   2.299  10.242  14.835  0.0150 -0.0458 -0.0699
30416W        W45547   4.210  10.406   0.712  0.4217  0.0448 -0.1939
30417W        W45548  16.375   4.116   1.715 -0.0241  0.2902 -0.1453
30418W        W45549   4.717  12.118   3.633 -0.0965  0.2164 -0.2438
30419W        W45550   2.860  11.849   4.606  0.2624 -0.1222 -0.2455
30420W        W45551   9.383  10.016  13.591  0.1427  0.0695 -0.1108
30421W        W45552   6.106  14.256  12.360 -0.1064 -0.2140  0.1625
30422W        W45553  17.617  11.286   4.506 -0.0840  0.0882  0.0315
30423W        W45554   0.036  14.686  10.363  0.1475 -0.0227 -0.1522
30424W        W45555  11.297   9.847   5.173 -0.1122  0.0920  0.0769
30425W        W45556  11.994   2.815  12.961  0.0850 -0.0080 -0.1832
30426W        W45557  13.390   9.872  14.349  0.1711  0.2481  0.0567
30427W        W45558   4.504   8.724  14.922  0.1397 -0.0629  0.1011
30428W        W45559  17.356  11.292   5.366 -0.1065  0.0176  0.1839
30429W        W45560  10.111  12.351  12.440 -0.2205  0.3239  0.0313
30430W        W45561   0.506   0.700  12.505  0.2893 -0.2610  0.0124
30431W        W45562  16.226   9.855  10.751 -0.3001  0.4743  0.1548
30432W        W45563   9.023   3.552   3.995  0.0661  0.0577  0.3807
30433W        W45564   4.808  13.821   3.016 -0.0760 -0.1861  0.1185
30434W        W45565   2.300   3.459  15.627  0.1720  0.0253 -0.0353
30435W        W45566  18.337   5.106   5.799  0.0571  0.0998  0.1677
30436W        W45567  15.877   1.678   3.753  0.0831 -0.1173  0.1876
30437W        W45568  10.129  13.074   0.353  0.1673 -0.2992 -0.2313
30438W        W45569  15.800   2.088   4.139 -0.1523  0.0106  0.1282
30439W        W45570  15.674   3.699   3.146  0.0008 -0.0823  0.1900
30440W        W45571   6.750  14.483  14.537  0.1251 -0.0178  0.3718
30441W        W45572  14.464  15.356  15.637 -0.1420 -0.0530  0.0266
30442W        W45573   8.056   3.507   0.881 -0.1628  0.1100  0.0445
30443W        W45574   9.252   8.322   1.072  0.3467 -0.2823  0.3783
30444W        W45575  13.151   1.026  10.438  0.5191 -0.0554  0.4117
30445W        W45576  13.842  13.150   4.765 -0.2324  0.0305  0.0417
30446W        W45577  11.052  10.045   0.218  0.0414  0.1579 -0.2226
30447W        W45578   5.416   7.840   3.282 -0.0509  0.2421  0.1372
30448W        W45579  12.655  14.052   5.783 -0.1344 -0.0129 -0.0727
30449W        W45580   5.143   9.480   4.365  0.0379  0.1593 -0.4712
30450W        W45581  17.741  14.971   3.253  0.1127  0.0948  0.0187
30451W        W45582  11.485   0.458  12.716 -0.0232  0.0743 -0.0149
30452W        W45583   4.789  10.492  14.502  0.1484 -0.1144  0.0333
30453W        W45584   0.629   0.277  14.616 -0.0673  0.1956 -0.0088
30454W        W45585   4.531   1.642   0.830  0.2813 -0.0492 -0.0356
30455W        W45586  17.067  13.060  12.799 -0.2310  0.1014  0.0028
30456W        W45587  15.577   2.627   4.937 -0.2508  0.3130 -0.1959
30457W        W45588   9.010   7.629  12.029 -0.1617  0.1371  0.0955
30458W        W45589  16.657   2.519  13.403 -0.0092 -0.1774 -0.1019
30459W        W45590   6.842   4.491  15.337 -0.2184 -0.1578  0.1977
30460W        W45591  18.178   2.445   2.477 -0.0049 -0.0721 -0.0360
30461W        W45592  12.101   3.103   4.347  0.1548 -0.2494  0.0323
30462W        W45593  11.601   2.226  11.031 -0.1317 -0.0044  0.0082
30463W        W45594  18.203  11.778   0.883  0.2524  0.1496  0.2916
30464W        W45595  16.460  14.652   2.473  0.1205 -0.0574 -0.4626
30465W        W45596   1.653   1.869  13.713  0.2467  0.0643 -0.3432
30466W        W45597   5.051  13.840  11.650 -0.0920 -0.0134  0.3025
30467W        W45598   8.788  10.251   4.426  0.0404 -0.1317  0.0282
30468W        W45599   7.053  18.240   2.156 -0.0579 -0.1362  0.1735
30469W        W45600   7.791  11.878  12.303  0.0810  0.0417 -0.1090
30470W        W45601  16.120  10.000  14.150  0.1491 -0.0131  0.0578
30471W        W45602  10.863  17.319  13.244  0.1274  0.1080 -0.4909
30472W        W45603   4.950   0.831   3.601  0.0823 -0.2373  0.0746
30473W        W45604   6.383   3.931  14.641 -0.1056  0.1801  0.2432
30474W        W45605   9.514  15.193  11.317 -0.1299  0.0908  0.1583
30475W        W45606  13.486   1.259  11.735 -0.0416  0.2060  0.2336
30476W        W45607   5.706   9.158  14.505  0.0362 -0.2650 -0.0338
30477W        W45608  10.193  15.428  14.491 -0.1497  0.2060 -0.0303
30478W        W45609   0.299   0.185  11.326 -0.1407  0.2295  0.0891
30479W        W45610  16.261   3.283  15.703  0.1221  0.0233  0.3092
30480W        W45611  13.303   2.575   0.141 -0.2883  0.1219  0.1002
30481W        W45612   9.691   9.505   2.058 -0.0518 -0.1076  0.0427
30482W        W45613  17.578  11.010   3.079  0.0284 -0.0597  0.2310
30483W        W45614  17.376  16.316  12.539  0.0323  0.1663 -0.1406
30484W        W45615   3.398  17.079   3.621  0.1002 -0.3558  0.3334
30485W        W45616   9.541   0.660  10.586  0.1989  0.0825 -0.3353
30486W        W45617  11.843   9.354  15.263  0.3173  0.3966 -0.0595
30487W        W45618  13.705   0.402  14.902 -0.1613 -0.2346 -0.0895
30488W        W45619   1.123   3.452   4.462 -0.0797 -0.1825 -0.0040
30489W        W45620  15.927   6.444   4.128 -0.3585  0.1247  0.4484
30490W        W45621   1.061   2.291  14.414  0.2279  0.2635  0.0903
30491W        W45622  17.143  16.060  11.352  0.1599  0.1421  0.3094
30492W        W45623  12.987   8.928  12.077 -0.3535  0.0714  0.0756
30493W        W45624   7.865   1.571   4.935 -0.0172 -0.1054  0.2174
30494W        W45625  10.729  10.377   2.262  0.1585  0.1198 -0.0081
30495W        W45626   1.937  14.606   0.972  0.3174 -0.1921  0.1626
30496W        W45627   5.985  16.865  13.725  0.1414  0.2244  0.4370
30497W        W45628   9.841   6.978  13.452  0.2450 -0.2075  0.1157
30498W        W45629   2.614   8.409  15.795 -0.3398  0.0258  0.2044
30499W        W45630   4.186   9.146   1.297  0.2058  0.3656 -0.0660
30500W        W45631  15.163   3.636   6.271 -0.2942 -0.3357  0.1958
30501W        W45632  18.440   2.211   0.398 -0.0506  0.2174 -0.2556
30502W        W45633  13.928  13.059   1.505 -0.0878  0.0634 -0.2425
30503W        W45634  10.061   7.299  12.329 -0.1869 -0.1566 -0.0909
30504W        W45635   0.492  12.994  13.859  0.1261  0.0855  0.3543
30505W        W45636   6.915  11.957   4.798 -0.1356  0.2101  0.3662
30506W        W45637   7.127  17.711   2.760  0.0303  0.0240 -0.0441
30507W        W45638   9.388   6.255  14.725 -0.1972  0.0978  0.1020
30508W        W45639   1.381   5.823  11.727 -0.2894 -0.0205  0.0492
30509W        W45640  10.768   0.878   4.154 -0.2190 -0.0796 -0.5829
30510W        W45641   9.100  17.346   9.740  0.1633 -0.1825  0.0070
30511W        W45642   3.850   7.127  15.789  0.1429 -0.2277 -0.3767
30512W        W45643   3.126  10.637  12.341  0.3078 -0.0665 -0.1560
30513W        W45644  15.136   2.160   0.130  0.0198  0.3641 -0.2585
30514W        W45645   5.485  14.190   2.618  0.1510  0.1449 -0.2065
30515W        W45646   0.708  10.020   6.234  0.0536  0.2289 -0.2324
30516W        W45647   6.618   5.207  15.819  0.3019  0.2000 -0.3850
30517W        W45648   4.064   3.062   3.698 -0.0343 -0.1353  0.0812
30518W        W45649  10.300   6.522   0.552 -0.1947  0.0616  0.1583
30519W        W45650   9.851  15.852  13.020 -0.0591  0.2667 -0.0753
30520W        W45651  11.134  12.662   1.063  0.2202 -0.0131  0.0591
30521W        W45652  18.175   9.862  12.520 -0.1725 -0.1097  0.0602
30522W        W45653  17.922  10.753   9.813  0.0590 -0.1178 -0.0036
30523W        W45654   1.255  13.175  12.555 -0.3499  0.2193 -0.0870
30524W        W45655  12.492  14.910  12.093 -0.1295  0.1343 -0.0499
30525W        W45656   8.453   8.495   4.368  0.2225 -0.3356 -0.0934
30526W        W45657   4.364  14.421   1.405 -0.1034  0.4503 -0.1525
30527W        W45658   6.495  17.118  11.975  0.1005  0.3354  0.1987
30528W        W45659  11.405   0.541  15.424  0.0602 -0.0570 -0.1622
30529W        W45660  17.809   6.495   3.460 -0.1263 -0.3111 -0.2523
30530W        W45661   5.513  16.752  13.593  0.2178  0.0307  0.0048
30531W        W45662   3.908   0.228   4.220 -0.0160 -0.3709  0.1060
30532W        W45663   5.040   8.288   3.978  0.2407 -0.1381 -0.2873
30533W        W45664  15.334  15.179   1.445 -0.0832 -0.1266  0.2597
30534W        W45665  15.411  14.990   0.946 -0.0111 -0.2600  0.1422
30535W        W45666  16.968   3.769   5.373 -0.2122 -0.3734 -0.0240
30536W        W45667   0.191   1.794  13.303 -0.1303 -0.0866 -0.0517
30537W        W45668  11.562   5.680   5.338 -0.3274 -0.1807 -0.1244
30538W        W45669   9.807   4.034  15.722  0.3998  0.0611 -0.2403
30539W        W45670   7.425   9.386  13.381 -0.1366  0.1546  0.1392
30540W        W45671   2.216   2.509   2.755 -0.0080 -0.1329  0.1560
30541W        W45672   0.361  16.894   2.299 -0.0686  0.3569  0.0235
30542W        W45673   1.955  10.869   5.200  0.0282 -0.0482  0.1577
30543W        W45674   1.981   3.875   0.491  0.3594  0.1603  0.1257
30544W        W45675   6.172  16.843   2.522  0.1149  0.2996  0.1543
30545W        W45676   1.596  10.355   1.971  0.1256  0.0966  0.2694
30546W        W45677  12.873  10.069  11.362 -0.2298 -0.6712  0.0930
30547W        W45678   1.331   9.824   4.068 -0.0755 -0.1026 -0.0706
30548W        W45679   8.520   2.039  15.043 -0.1826  0.0353  0.0594
30549W        W45680  12.129  10.626   0.389 -0.2016  0.1120 -0.2107
30550W        W45681  10.744   4.256  11.620 -0.3140 -0.0043  0.0129
30551W        W45682  18.271   0.747  10.427  0.0944 -0.2145 -0.0322
30552W        W45683   4.386   4.586  15.925 -0.0885  0.0293  0.0109
30553W        W45684  16.457  12.309   1.049  0.1442  0.4662  0.2948
30554W        W45685   0.024  16.548   5.842  0.0856  0.1485  0.0096
30555W        W45686  10.444   3.404   4.545  0.0301 -0.1872 -0.2185
30556W        W45687   5.552   5.288   0.068  0.1457 -0.0672  0.0089
30557W        W45688   7.995   7.256  15.177  0.0818 -0.1010  0.0442
30558W        W45689   1.448  14.099   3.565  0.1802 -0.0965 -0.0096
30559W        W45690   1.122  14.388   3.258 -0.3598  0.2120  0.2582
30560W        W45691  12.482  17.528   1.427  0.2592  0.0484  0.1598
30561W        W45692   4.829  14.051  12.112  0.1248  0.3443 -0.0806
30562W        W45693   7.974   9.576   4.271 -0.2547  0.1323  0.0530
30563W        W45694   3.069  13.119   1.038  0.0277  0.0204  0.2778
30564W        W45695  17.440   2.318  14.347  0.0696  0.0308  0.3867
30565W        W45696   4.031  14.389  12.628 -0.3780  0.1620  0.0547
30566W        W45697   9.559   5.589   4.220 -0.1449  0.0930 -0.0222
30567W        W45698   2.641   3.412   4.752  0.0132 -0.1280 -0.0239
30568W        W45699   4.222   8.653   0.725 -0.0020 -0.0291  0.0555
30569W        W45700   4.499   4.729   2.744  0.0482  0.4736  0.0015
30570W        W45701  16.483  10.372  15.559 -0.1672  0.0816 -0.2398
30571W        W45702   7.773  17.671   0.787 -0.0545  0.0688 -0.0231
30572W        W45703   3.739   8.008   3.066  0.0198 -0.3038  0.1582
30573W        W45704   8.863   9.899  12.326 -0.1894 -0.2262  0.3065
30574W        W45705   5.311   7.899  13.420 -0.1504 -0.0538  0.1093
30575W        W45706   4.608  11.779   2.445  0.1558 -0.0249  0.0301
30576W        W45707  17.360   0.053   4.535 -0.0592 -0.0896 -0.1805
30577W        W45708  14.726   4.943  12.286  0.4557 -0.2951 -0.4578
30578W        W45709   0.434   7.900  15.268 -0.1086 -0.2520  0.2846
30579W        W45710   7.248  12.957   0.214 -0.1923  0.1484  0.2056
30580W        W45711   3.136  17.622  12.747  0.1107  0.2139 -0.1523
30581W        W45712   5.696  10.364   0.956 -0.1816 -0.1744  0.1672
30582W        W45713   4.115   5.820   5.529  0.3557  0.0077 -0.1378
30583W        W45714  17.251  10.701  12.910 -0.1334  0.0633  0.2988
30584W        W45715   0.386   6.292  15.741 -0.1555 -0.5254 -0.1543
30585W        W45716   8.274  16.739   3.619  0.0531  0.5082  0.2188
30586W        W45717  14.347  16.804  15.712  0.1391 -0.1475  0.1502
30587W        W45718   0.052   1.616  12.554 -0.1254 -0.2438 -0.0309
30588W        W45719  18.160  14.474  10.380  0.0219 -0.0045 -0.3411
30589W        W45720   4.601   3.675   2.043  0.1447 -0.0405 -0.1567
30590W        W45721   2.796   5.507  12.359  0.2162 -0.0414 -0.0373
30591W        W45722  13.147  17.151   1.750  0.0947 -0.0214 -0.1224
30592W        W45723   6.377  15.578   1.082 -0.1158  0.3317  0.3018
30593W        W45724   2.368   1.730   1.492  0.2599 -0.1637  0.1176
30594W        W45725  17.663   1.506   3.726 -0.2785 -0.3308 -0.1846
30595W        W45726   9.447  16.444   0.478  0.1506 -0.0158  0.1365
30596W        W45727   0.453   2.710   5.079  0.3428  0.0354  0.1392
30597W        W45728   8.273  13.874   2.478  0.0311  0.1421  0.1556
30598W        W45729   2.378  17.704  14.562  0.2927  0.1758  0.0262
30599W        W45730   8.110   9.563  14.527  0.1319 -0.1369 -0.0700
30600W        W45731  10.370   9.466   3.462  0.2659 -0.1662 -0.1271
30601W        W45732   6.216  13.972   4.801 -0.2038  0.1640  0.2152
30602W        W45733  15.604   6.584  13.635  0.0891  0.4510 -0.2995
30603W        W45734   1.257   9.380  15.130 -0.1419  0.0779 -0.0799
30604W        W45735  15.333  11.444   0.846 -0.1750 -0.2160  0.0934
30605W        W45736   0.846   6.202   4.997 -0.2334  0.1210  0.0593
30606W        W45737   0.870   0.015   5.374 -0.6348  0.1128 -0.1390
30607W        W45738  15.464  16.861  13.169  0.0010  0.2293  0.0725
30608W        W45739  15.877   9.888  11.984  0.3152  0.1418  0.2942
30609W        W45740   1.924   2.680   3.996 -0.0566  0.0931  0.1266
30610W        W45741  12.625   0.907  11.365 -0.3938  0.2360 -0.0163
30611W        W45742   0.628   8.450  15.167 -0.0776 -0.2329 -0.1867
30612W        W45743   5.941  13.005   3.791  0.2008  0.1403  0.2023
30613W        W45744   7.968  17.447   0.122  0.1130  0.1920 -0.1039
30614W        W45745   8.597   6.618  14.015 -0.1469 -0.1854  0.0609
30615W        W45746  16.314  17.060  14.340  0.0540 -0.1540 -0.1157
30616W        W45747  17.692   6.862  14.336  0.2796 -0.4213  0.0942
30617W        W45748  15.295   4.510   5.635  0.0190  0.1162  0.3624
30618W        W45749   0.358   5.529   2.769 -0.0364 -0.0382 -0.1347
30619W        W45750  11.428  15.264   0.284 -0.2204 -0.0246 -0.1463
30620W        W45751  17.044  14.597   1.289 -0.0313 -0.3269  0.2657
30621W        W45752  17.645  13.139  13.359 -0.1400 -0.0321 -0.0799
30622W        W45753  11.936  12.389   1.871  0.2576 -0.1235  0.1972
30623W        W45754   2.507  15.447  15.868 -0.0482 -0.0970 -0.2105
30624W        W45755  17.641   6.775  12.014 -0.1489  0.2611  0.1300
30625W        W45756   5.860  10.973   5.067 -0.1784  0.2644 -0.1318
30626W        W45757  10.513  13.462   0.502 -0.1856  0.0483 -0.1501
30627W        W45758   3.109  17.124   1.137 -0.0585 -0.1166  0.0521
30628W        W45759  17.755   5.791   0.221  0.0212 -0.0927  0.5832
30629W        W45760   7.830   7.251   4.580  0.0938 -0.1186 -0.2641
30630W        W45761   9.927   1.327   2.127 -0.3856 -0.5189 -0.2826
30631W        W45762  15.933   2.348   2.154 -0.2205 -0.0941 -0.1561
30632W        W45763   3.021   3.085  11.332  0.0110 -0.2152 -0.0192
30633W        W45764   5.730   0.206  13.329  0.6033 -0.1263 -0.0382
30634W        W45765   7.629   6.334  12.284 -0.2327 -0.1283  0.2137
30635W        W45766  14.462  16.192  13.309  0.4419 -0.1941 -0.0931
30636W        W45767   0.144  12.089  13.936 -0.2060  0.2007 -0.1008
30637W        W45768  12.364  17.027   5.487 -0.2120 -0.0249  0.0144
30638W        W45769   5.779  14.344   3.536  0.2945  0.0806 -0.0089
30639W        W45770  15.536   1.071   5.369 -0.1839 -0.0090  0.0812
30640W        W45771   9.507  10.785   2.139 -0.1363 -0.0107 -0.0000
30641W        W45772   5.956   3.010  11.658  0.1343  0.0793  0.1918
30642W        W45773   6.234   7.581  15.623 -0.2651 -0.1023  0.1145
30643W        W45774   3.138  18.571  13.545 -0.1085 -0.0897  0.1168
30644W        W45775   2.993   8.240   2.501  0.1450 -0.3411 -0.0354
30645W        W45776   8.165  16.007  15.711 -0.0404 -0.1216 -0.2106
30646W        W45777  17.978   5.420   5.943  0.1546 -0.0374 -0.1762
30647W        W45778   1.105   5.779   5.229  0.1820 -0.1463  0.2564
30648W        W45779  11.509  12.193   4.961  0.3637  0.0492 -0.2190
30649W        W45780   1.082   1.241  13.505  0.0833  0.1483  0.0931
30650W        W45781   2.098   8.753  13.165  0.1611 -0.0482  0.0073
30651W        W45782  12.334   4.108  12.972  0.1922 -0.2392 -0.0977
30652W        W45783   3.863   4.675   0.091  0.1788 -0.0979  0.0575
30653W        W45784   2.452  13.691  12.718  0.3192 -0.0769  0.4306
30654W        W45785  15.752   1.804   2.888 -0.2096  0.2151  0.0196
30655W        W45786   0.965   3.374   0.574  0.1176 -0.0623 -0.1758
30656W        W45787   5.116   5.670   0.358 -0.2198  0.0135  0.1837
30657W        W45788  10.777   1.502  14.103  0.0730  0.0065  0.0053
30658W        W45789   7.967  13.837   1.595  0.1859  0.3805  0.1295
30659W        W45790  14.956  11.249  12.813 -0.3642  0.3390 -0.0187
30660W        W45791   9.236   4.012  13.985 -0.0762  0.1644 -0.0293
30661W        W45792  17.457  12.917  10.907 -0.2255  0.3041  0.0096
30662W        W45793   6.987  17.414  11.694 -0.2533 -0.4200  0.0308
30663W        W45794  16.578   4.762  12.826 -0.0850  0.2543 -0.2210
30664W        W45795  17.571   7.441   4.753  0.0243 -0.0361 -0.0991
30665W        W45796  16.619  10.968  14.909  0.1693  0.1058 -0.3498
30666W        W45797   7.163  13.517  10.185  0.2322 -0.0916 -0.3469
30667W        W45798   4.179   0.289   0.630  0.0524  0.3569 -0.1795
30668W        W45799   1.786   1.666   3.462 -0.0271  0.0468  0.2067
30669W        W45800   7.567  11.324   0.361  0.0646 -0.3551  0.1232
30670W        W45801  16.370   9.741  11.800 -0.1981 -0.1793  0.2395
30671W        W45802  12.206   5.232  15.851  0.1291  0.1104  0.0982
30672W        W45803   5.851  12.041  11.972  0.1323 -0.1948 -0.2382
30673W        W45804  10.762  11.964   4.100 -0.1877  0.0360 -0.0277
30674W        W45805  17.263   0.229   0.617  0.0626  0.1946 -0.0694
30675W        W45806  11.739   8.159  13.683  0.0631 -0.0270 -0.4879
30676W        W45807  16.924   9.391   4.443  0.1225 -0.1693  0.2452
30677W        W45808  16.184   6.150  14.378  0.1090  0.2380  0.0711
30678W        W45809  14.314   4.143  14.963  0.0015 -0.3688 -0.0394
30679W        W45810   7.616   8.233   0.964 -0.0963 -0.1465  0.1017
30680W        W45811  16.583   7.396   5.414  0.1119  0.0399  0.0840
30681W        W45812   3.041   6.050  11.431 -0.4192 -0.0412 -0.1856
30682W        W45813   8.901  13.233  13.560  0.2791  0.3161  0.2274
30683W        W45814  16.227   7.825   0.974 -0.0496  0.4682  0.1649
30684W        W45815  14.944  10.520  15.422 -0.1919  0.0941  0.1200
30685W        W45816   7.115  12.685  15.440  0.4550  0.1651  0.1999
30686W        W45817  16.408   3.791   3.297  0.0661  0.2032  0.0766
30687W        W45818   5.421   8.461  15.404  0.0359  0.1606  0.0894
30688W        W45819  17.698   3.252  13.909  0.0342 -0.0970 -0.2190
30689W        W45820  15.752   0.556  11.777  0.2438 -0.3690 -0.2575
30690W        W45821  14.979  16.805  10.409 -0.1740  0.3142  0.1077
30691W        W45822   9.926   1.001   3.274 -0.1082  0.1677 -0.1045
30692W        W45823  13.819  15.134  12.682 -0.2204  0.2599 -0.3164
30693W        W45824   3.306   6.556  13.940 -0.3893  0.0126  0.0366
30694W        W45825  12.461  18.471   1.299 -0.1516  0.1247 -0.3715
30695W        W45826   3.425   0.249  14.893 -0.1297  0.1667  0.1705
30696W        W45827   0.707  17.973  12.329  0.1529  0.1478  0.2537
30697W        W45828  18.258   9.036   0.002  0.2340  0.2188  0.0935
30698W        W45829  17.905  10.010  15.397  0.3938 -0.0178 -0.0438
30699W        W45830   5.017   1.533   2.937 -0.0019  0.3243 -0.0256
30700W        W45831   7.285  17.764  12.426  0.0812  0.0478  0.6487
30701W        W45832  11.094  13.325  15.285  0.0654 -0.0164 -0.0572
30702W        W45833  10.501  15.164  11.046 -0.3972  0.0010  0.2491
30703W        W45834   4.759  17.716  15.360 -0.2382  0.0044 -0.1130
30704W        W45835   5.554   8.888   1.235  0.4428  0.4030  0.0199
30705W        W45836  17.524  16.229  11.067 -0.1110  0.2422  0.1979
30706W        W45837   9.689   1.565   3.825 -0.0428 -0.0761 -0.2837
30707W        W45838   0.031  12.216  15.650 -0.0040 -0.0579  0.1765
30708W        W45839  14.037   4.890   5.417 -0.0137  0.0226  0.0303
30709W        W45840  13.402   0.737  11.604 -0.0319 -0.1505 -0.1309
30710W        W45841   4.682   4.273   2.084  0.2327 -0.0511 -0.0954
30711W        W45842   1.121   0.191   1.575  0.2330 -0.1565  0.0520
30712W        W45843   2.666  17.716  15.270  0.1336  0.0211  0.1480
30713W        W45844   0.869  12.975   1.776 -0.1488 -0.0903  0.0344
30714W        W45845   7.372  16.803   3.525  0.0991 -0.0274 -0.1295
30715W        W45846  15.629  16.536   2.348 -0.0296 -0.0342  0.2174
30716W        W45847   2.864   8.049   3.487 -0.3653 -0.1523 -0.1026
30717W        W45848   9.602   1.698   2.172 -0.3716 -0.0557 -0.2133
30718W        W45849  18.479  18.032   0.327  0.2277 -0.0392  0.1941
30719W        W45850  14.711   8.595  11.119 -0.2960 -0.2026  0.1946
30720W        W45851  15.121  17.432   1.603 -0.0747  0.4462 -0.0377
30721W        W45852  16.794  17.993   5.829 -0.0820 -0.0474  0.0807
30722W        W45853   0.809   7.387  14.691 -0.1979  0.0656 -0.1626
30723W        W45854  11.393  13.913  13.270  0.1080 -0.0992  0.0606
30724W        W45855   7.030  16.285   0.808  0.2675  0.1871  0.3716
30725W        W45856  11.704   5.430  13.952 -0.1337  0.1927  0.0771
30726W        W45857  10.205   4.664  12.158  0.1823 -0.1607 -0.0810
30727W        W45858   2.615   2.247   3.491 -0.1362 -0.0483 -0.0164
30728W        W45859   1.241   5.011   1.856 -0.1272  0.2077 -0.4551
30729W        W45860   6.453   5.863   1.535 -0.1844  0.0319  0.2880
30730W        W45861   6.351   1.352  11.936  0.0834  0.1386 -0.0170
30731W        W45862   2.515   6.658   5.925  0.1096  0.0965 -0.0296
30732W        W45863  11.311  14.945   3.649  0.2212  0.0442 -0.3009
30733W        W45864   1.357   0.791  13.521 -0.2166  0.0306 -0.0895
30734W        W45865  17.589   9.389   3.551 -0.2541 -0.0653 -0.2291
30735W        W45866  11.360   9.021   5.276  0.2959 -0.2695 -0.3467
30736W        W45867   1.107  16.530   2.513  0.1206  0.0134 -0.3191
30737W        W45868   1.620   2.138   4.721 -0.0638 -0.2258 -0.1407
30738W        W45869   8.592   6.531  15.282  0.3330 -0.3211 -0.0274
30739W        W45870   7.756  13.407   1.431  0.0531  0.0219  0.1085
30740W        W45871   2.251   2.172   3.948 -0.1534 -0.1307  0.1029
30741W        W45872   7.115  17.423   3.172  0.1953  0.0935 -0.1389
30742W        W45873   8.472  11.082   3.765 -0.0607 -0.0767 -0.3927
30743W        W45874   1.299   4.199  11.708  0.2440  0.1434 -0.0256
30744W        W45875   7.309  11.230   1.914 -0.1639 -0.1852  0.0523
30745W        W45876  11.205   8.119   0.006  0.0707 -0.4559 -0.1993
30746W        W45877   8.747   9.213  15.088 -0.1713 -0.0469  0.1650
30747W        W45878  14.442   3.127   5.027 -0.0989  0.1231  0.2931
30748W        W45879   4.079  11.751   3.092 -0.1611  0.1091  0.1387
30749W        W45880   4.057  15.566  15.061 -0.1430 -0.3187 -0.2024
30750W        W45881  11.569  15.578  15.838 -0.1931  0.1043 -0.0849
30751W        W45882   4.826   5.330  11.966 -0.0464  0.0666  0.0681
30752W        W45883  11.025   6.641  11.788  0.0796 -0.0852 -0.1282
30753W        W45884  16.593   0.867   2.816 -0.0782  0.0640 -0.1575
30754W        W45885   2.341  15.232  13.719  0.0688 -0.2372 -0.1736
30755W        W45886   6.143   6.283  14.701 -0.3279 -0.1726  0.2661
30756W        W45887  10.440   2.466  10.506  0.0749 -0.0712 -0.0485
30757W        W45888   8.373   0.093   0.045  0.2695  0.0627 -0.1406
30758W        W45889  13.915   2.372  11.312 -0.2832 -0.3346  0.3590
30759W        W45890  11.957   8.203  13.204  0.4322  0.1543  0.2169
30760W        W45891   1.115   2.374   6.218 -0.0570  0.0823  0.2886
30761W        W45892   8.319   5.793   1.999  0.1045 -0.1215  0.3226
30762W        W45893  17.641   9.400   0.309 -0.0273 -0.1843  0.0992
30763W        W45894   9.939  17.805   4.508 -0.1648 -0.0166 -0.0921
30764W        W45895   7.537   1.825   5.224  0.0672  0.0100  0.1544
30765W        W45896   3.579  13.643  15.007 -0.1089 -0.1187 -0.0657
30766W        W45897  18.481  12.918   1.807  0.0365  0.2178  0.0283
30767W        W45898   2.928   7.455  10.712 -0.0253  0.0884  0.1698
30768W        W45899  12.599  12.825   4.037  0.2240  0.1179 -0.2601
30769W        W45900   7.928  13.034  11.396  0.2418 -0.0024  0.2381
30770W        W45901   6.803   1.437  13.465  0.1904  0.1107 -0.0979
30771W        W45902  13.419   9.611   3.437 -0.2673  0.2035  0.0696
30772W        W45903  16.332   9.184   6.370 -0.1010  0.0292  0.0873
30773W        W45904  15.465  15.366   4.183  0.3117 -0.1527 -0.3527
30774W        W45905   1.692  13.722   5.044 -0.2224  0.1003 -0.0666
30775W        W45906  17.878  12.860   2.577 -0.0348 -0.3407  0.1273
30776W        W45907   2.677  16.964   3.194  0.0832  0.0257 -0.3805
30777W        W45908  15.887  17.331  11.441  0.4230 -0.1292 -0.0038
30778W        W45909  10.398   1.890  13.463 -0.2003  0.0550  0.2043
30779W        W45910   7.719  13.446   3.782  0.1337 -0.0554  0.1861
30780W        W45911   8.016   9.804   0.811  0.0398 -0.1817  0.2769
30781W        W45912  12.551  13.850   5.214 -0.2468  0.0105  0.4203
30782W        W45913  16.205   4.412  12.970 -0.3045  0.5485  0.0583
30783W        W45914   1.841  11.212  13.554  0.0357  0.2639  0.1056
30784W        W45915   0.943   4.532  15.097  0.1375 -0.3385  0.1910
30785W        W45916   5.924   8.130   5.569 -0.0577  0.1138 -0.1983
30786W        W45917   2.402  11.224  12.720 -0.4412 -0.1191 -0.2635
30787W        W45918   4.223   8.236  11.191  0.1040  0.0700  0.0327
30788W        W45919   8.872   8.121  14.710  0.2505  0.0408 -0.1763
30789W        W45920  18.154   9.791   4.959  0.0577 -0.1012 -0.0840
30790W        W45921   6.988  10.494  11.889 -0.2415 -0.1339  0.1324
30791W        W45922   1.462   0.224  12.878  0.0742 -0.0032  0.1532
30792W        W45923  17.365  13.963  12.122  0.0381  0.2555 -0.1558
30793W        W45924  14.967  16.773  13.954  0.2164 -0.2049  0.2391
30794W        W45925  17.900   8.868   3.027 -0.2146  0.3358 -0.0314
30795W        W45926  16.659   4.215  12.758 -0.1405  0.0032  0.0564
30796W        W45927  16.670   0.045  11.885  0.2903  0.0066  0.0749
30797W        W45928  13.146  10.091   2.617  0.3170 -0.1112 -0.2076
30798W        W45929   8.649  16.756  11.772 -0.1962 -0.2399  0.1755
30799W        W45930   2.445   2.051   2.984 -0.1204 -0.0182  0.1692
30800W        W45931  11.232   3.664   3.270 -0.0005 -0.1164  0.0100
30801W        W45932  16.168   7.728  15.123  0.0418 -0.1894  0.3624
30802W        W45933   0.162   0.372   4.663 -0.0445 -0.0100  0.2131
30803W        W45934  11.338   9.699   5.899 -0.1729 -0.1537 -0.1021
30804W        W45935  14.196  17.947  10.165 -0.3061  0.1408  0.0976
30805W        W45936  10.523   9.915  11.883 -0.1002 -0.1727 -0.0004
30806W        W45937   4.566   4.237   3.769 -0.2946 -0.0191 -0.1476
30807W        W45938   7.214   6.226   4.826 -0.2019  0.0960  0.2297
30808W        W45939  14.264  14.975   4.456 -0.1392  0.0145 -0.3526
30809W        W45940  12.847  13.757   0.859  0.0438 -0.1640  0.2604
30810W        W45941   9.610  17.041  14.596  0.2185  0.4183  0.1762
30811W        W45942  15.415   4.951  10.290 -0.3309 -0.1964 -0.2203
30812W        W45943  16.890   1.942   2.722 -0.1497 -0.1044  0.2765
30813W        W45944  11.686   1.995  12.530  0.3066 -0.2756 -0.1010
30814W        W45945   6.159   0.965   0.796 -0.0222 -0.0591  0.4150
30815W        W45946  18.320   9.334   1.814  0.0863 -0.2008 -0.3970
30816W        W45947  10.436  12.612  12.775 -0.2329 -0.3080  0.0888
30817W        W45948  17.840   3.345   5.648  0.2932 -0.1529 -0.1906
30818W        W45949   0.740   5.432   5.424 -0.3281 -0.4339  0.0453
30819W        W45950   2.356  11.349  10.688 -0.0808  0.0372  0.0304
30820W        W45951   3.445  12.456   3.706  0.1914  0.0526 -0.0052
30821W        W45952   9.171   2.942  10.338  0.2265 -0.2727  0.2152
30822W        W45953  10.335   2.587   0.529  0.0487  0.4353  0.2214
30823W        W45954  18.099   4.583   4.901 -0.2495  0.0095  0.2080
30824W        W45955  15.790  10.308   5.572 -0.1080 -0.2394 -0.0206
30825W        W45956   6.017   5.450   1.817 -0.1133 -0.0622  0.1322
30826W        W45957   1.471  15.116  15.609 -0.0314 -0.0670  0.0427
30827W        W45958   3.938  11.372  12.534 -0.0795 -0.2320 -0.0091
30828W        W45959   7.972   5.868   4.184 -0.1488 -0.2797 -0.0139
30829W        W45960   1.402   4.800  15.408  0.4247 -0.1168 -0.0443
30830W        W45961   5.081  16.486  13.146  0.0210  0.2237 -0.0464
30831W        W45962   7.287  15.841   0.649 -0.3660  0.1335 -0.0146
30832W        W45963  14.197   5.765   1.230  0.2213  0.2043  0.1017
30833W        W45964   3.970  10.149   4.586  0.1288 -0.1751 -0.0187
30834W        W45965  12.331   1.118   2.948 -0.0923 -0.1981 -0.1969
30835W        W45966  16.346  16.496  14.190 -0.4122 -0.2788 -0.1337
30836W        W45967  14.780   1.789  13.291 -0.2554  0.2175  0.3219
30837W        W45968  17.155   7.264   6.632  0.0140  0.3644 -0.1022
30838W        W45969  17.227   8.972   4.656  0.0126 -0.0083 -0.0540
30839W        W45970   9.935  17.455  15.285 -0.0820 -0.1300  0.0490
30840W        W45971   5.737   2.654  10.417 -0.1736  0.0557 -0.2126
30841W        W45972   6.116   2.980  10.711  0.1235  0.0466 -0.1083
30842W        W45973  13.410   2.443  14.400 -0.0577 -0.0342  0.1604
30843W        W45974  17.389  16.468  14.143  0.2591 -0.2390 -0.0524
30844W        W45975   1.498  17.742  11.773  0.0991 -0.3361  0.0058
30845W        W45976   6.229  17.760  14.315  0.0238 -0.0660  0.2259
30846W        W45977  15.014  10.096   0.936  0.1563 -0.3970  0.2117
30847W        W45978  15.915  13.170  11.996 -0.1106  0.2148  0.2885
30848W        W45979   9.944  16.106  12.228 -0.0161 -0.2929 -0.0922
30849W        W45980   9.556  13.382   5.326 -0.2015  0.0003 -0.1078
30850W        W45981  17.913   8.446   4.857  0.1254 -0.1072  0.1796
30851W        W45982  11.525  10.874   2.340  0.0163 -0.5396 -0.2507
30852W        W45983  16.177  18.080   4.584  0.2189 -0.3950  0.1180
30853W        W45984  15.344  17.989  14.458 -0.0642 -0.1643  0.1439
30854W        W45985  17.198   9.696  14.958 -0.3001  0.2214 -0.1771
30855W        W45986   7.323   1.869  14.540 -0.1095  0.0205  0.0291
30856W        W45987   2.551   6.703  14.512  0.3154  0.1904 -0.0193
30857W        W45988   6.906  15.538   0.482 -0.3169  0.2999  0.3032
30858W        W45989   1.234   9.059   3.891 -0.2962  0.2736  0.0002
30859W        W45990   3.249   3.698   2.449  0.5201  0.1255 -0.4163
30860W        W45991  16.256   7.299  12.833 -0.2117  0.1934 -0.1123
30861W        W45992   8.356   9.725   1.496 -0.3308  0.0459 -0.1701
30862W        W45993   0.850  10.079   2.354  0.0803  0.0589  0.1056
30863W        W45994   4.440  16.773  12.486  0.0647  0.1826  0.0313
30864W        W45995  14.517  18.408  13.897 -0.1421  0.0209 -0.0431
30865W        W45996   8.841   5.856  14.119 -0.1177  0.3565 -0.2423
30866W        W45997  15.799   4.297   1.117 -0.0304  0.0959 -0.0685
30867W        W45998  17.322  17.293   1.660 -0.3698  0.0519 -0.0450
30868W        W45999  15.657  16.851  15.367  0.0878  0.2087  0.0150
30869W        W46000  11.626   0.049   1.137 -0.0154  0.3483 -0.1448
30870W        W46001  14.695  15.090   1.616 -0.0766  0.0717 -0.1412
30871W        W46002   5.489   0.239  11.833 -0.5012  0.0119 -0.1277
30872W        W46003   3.521   9.903  14.907  0.3011  0.0205 -0.1834
30873W        W46004   5.387  17.406  14.742  0.5089 -0.0113  0.1193
30874W        W46005  15.631  17.214  15.034  0.0132  0.0847  0.2559
30875W        W46006   5.436  10.837  15.651 -0.0315 -0.1071 -0.0963
30876W        W46007   1.469  17.263   2.048 -0.1379 -0.1145  0.0476
30877W        W46008   4.442  10.979  11.803  0.0807 -0.0938  0.1367
30878W        W46009  10.215   2.682  13.962  0.1813 -0.4824  0.1141
30879W        W46010   1.177  13.496  12.213  0.1191 -0.0192 -0.0011
30880W        W46011   3.552  10.639   0.212  0.1051 -0.1419  0.0386
30881W        W46012   9.866  17.636  11.384  0.2591 -0.1714  0.0733
30882W        W46013  15.195   1.414  14.227 -0.0522 -0.3232 -0.2684
30883W        W46014   0.042   8.786  12.612  0.2026  0.1637 -0.0093
30884W        W46015  10.763   1.491   3.842 -0.1885  0.2259  0.0322
30885W        W46016  10.519  15.496   1.969  0.1293  0.0146 -0.2439
30886W        W46017   4.854  17.125   2.679 -0.1015  0.0121 -0.2552
30887W        W46018   8.682  16.935   3.820 -0.0063 -0.3220 -0.4420
30888W        W46019  18.506  11.735   4.750 -0.0514  0.0720  0.0113
30889W        W46020  11.263  13.803   4.225  0.0124  0.0043 -0.3226
30890W        W46021  13.977   0.874  12.668 -0.0202 -0.0435 -0.2861
30891W        W46022  18.243  12.922  13.994 -0.3493 -0.0655 -0.2316
30892W        W46023  14.096   5.242  12.451 -0.0333 -0.0724 -0.0340
30893W        W46024   5.278   0.863   4.357 -0.1480  0.0756  0.1855
30894W        W46025   1.688  14.459   3.278 -0.0856 -0.0273 -0.2960
30895W        W46026   3.745   1.555  11.396 -0.0719 -0.1603 -0.0663
30896W        W46027  15.447   3.998  14.073  0.0329  0.2433  0.0342
30897W        W46028  15.378   7.444   1.035 -0.2680 -0.2406  0.1446
30898W        W46029   6.014  12.632   4.780 -0.0993 -0.3663 -0.1016
30899W        W46030   4.307   0.164   0.092 -0.4139 -0.0510 -0.0668
30900W        W46031  12.800  15.921   2.762 -0.1964  0.0093 -0.2947
30901W        W46032   7.459   8.388  13.324  0.0748  0.0099 -0.0389
30902W        W46033   6.245  10.799   3.112 -0.0894 -0.3242  0.1376
30903W        W46034   8.197   9.061  12.752 -0.2969  0.3154 -0.1513
30904W        W46035   4.509   9.562   4.603  0.0904 -0.2980  0.3402
30905W        W46036   7.457  17.439   3.601 -0.4615 -0.0720 -0.0025
30906W        W46037   7.422   0.267   3.531 -0.0190 -0.0208 -0.0663
30907W        W46038  17.140  17.098   3.208  0.2676  0.2315  0.3666
30908W        W46039   6.941  12.086  14.882  0.0314 -0.1478 -0.0028
30909W        W46040   0.039  10.343  11.380  0.1507  0.1399 -0.2365
30910W        W46041  17.953  18.495   5.244  0.0512  0.0812  0.1583
30911W        W46042  16.639   9.017  13.705 -0.0783  0.0792  0.0729
30912W        W46043  15.952  18.466   0.882  0.0411  0.3551  0.3381
30913W        W46044  16.329  10.741  12.942 -0.1421 -0.0907 -0.5596
30914W        W46045   7.989   2.445   4.707  0.0294  0.0166 -0.0354
30915W        W46046   2.658  14.057   5.170 -0.1103 -0.1056 -0.0581
30916W        W46047  10.741  17.423  15.355  0.0123 -0.3110  0.1669
30917W        W46048  10.963   8.125   3.316 -0.1854 -0.1239  0.1390
30918W        W46049  18.093  15.052  12.494 -0.2628  0.0363 -0.0511
30919W        W46050   7.219   1.273  11.485  0.0200  0.2451  0.1417
30920W        W46051   0.053  15.683  13.929  0.2373 -0.0303  0.2016
30921W        W46052  17.388   6.652  11.557 -0.3508 -0.2906 -0.1004
30922W        W46053  11.213  15.744  15.061 -0.0023 -0.1164 -0.1486
30923W        W46054   1.763   1.923   0.886 -0.1317 -0.2865  0.0998
30924W        W46055  10.682   5.386   0.028  0.1033 -0.0034 -0.0705
30925W        W46056   4.255   1.597  15.523 -0.0923  0.2554 -0.0975
30926W        W46057   2.816  14.498  13.400  0.1963  0.2741  0.2378
30927W        W46058   5.799   4.407   3.739  0.0699  0.1456  0.1375
30928W        W46059   6.402   2.792   5.062 -0.2904  0.0693 -0.1365
30929W        W46060   3.787  12.758  11.253 -0.1794 -0.2658 -0.3830
30930W        W46061  17.690  10.496   3.036  0.1052 -0.1643 -0.0868
30931W        W46062   4.709   9.881  13.767 -0.1582  0.1794  0.1042
30932W        W46063  12.958  14.922  13.606 -0.1771 -0.1718 -0.0083
30933W        W46064   0.823   0.722  13.226  0.1922  0.0432 -0.0650
30934W        W46065   3.749  10.348  11.170  0.0265  0.2143 -0.0494
30935W        W46066  18.461   7.258   1.972  0.0096  0.2514 -0.0557
30936W        W46067   6.997   3.318  11.724 -0.4129  0.1861 -0.1313
30937W        W46068  12.217  12.125  11.108 -0.1405  0.0065  0.1170
30938W        W46069  13.453   2.090  12.295 -0.4328 -0.1572 -0.0274
30939W        W46070  16.955  16.871   1.659  0.0051 -0.0648  0.0122
30940W        W46071   2.483   0.413   0.467 -0.1238  0.2544  0.0196
30941W        W46072  10.507   3.900   1.681 -0.0087  0.2033  0.0198
30942W        W46073   4.844  14.882   3.568 -0.0828 -0.0552  0.1444
30943W        W46074  12.212  12.877  13.052  0.3157  0.0667  0.1973
30944W        W46075  11.620   3.342   1.009 -0.0054  0.0108  0.4705
30945W        W46076   3.422   1.823  13.127  0.3918 -0.1355 -0.2319
30946W        W46077  13.014   5.023  12.886  0.1658 -0.2967 -0.0054
30947W        W46078  15.845  12.990  15.660  0.0955 -0.0163 -0.2732
30948W        W46079   8.389  10.619  15.207  0.0466 -0.3857  0.1198
30949W        W46080  16.656  13.538   5.743  0.2654 -0.3082  0.0585
30950W        W46081   0.356   0.644  11.659 -0.1513 -0.0324 -0.2728
30951W        W46082   3.791   0.402  10.967  0.4411  0.0349  0.0139
30952W        W46083   4.171  12.297  10.925 -0.0486  0.0363  0.0043
30953W        W46084   5.190   6.593   2.576 -0.0654  0.0119 -0.4733
30954W        W46085  17.143  10.585   4.849  0.1745 -0.0016  0.1163
30955W        W46086   2.016  16.529  15.296  0.0792  0.0758 -0.1011
30956W        W46087  18.099   5.083  14.385  0.1337  0.1780  0.1432
30957W        W46088   8.710  12.348   4.686  0.0255  0.0951 -0.6177
30958W        W46089  14.181  14.530  10.920 -0.1786 -0.1897 -0.0901
30959W        W46090   8.986   1.675   3.694 -0.0840 -0.2765 -0.2654
30960W        W46091   7.389  10.874   0.608  0.0977  0.1424 -0.0362
30961W        W46092   6.432   0.604   0.573 -0.0428 -0.0576  0.1683
30962W        W46093  17.795  11.695  14.342 -0.0920  0.0152  0.5427
30963W        W46094   7.244   4.870   2.648  0.2384 -0.1369 -0.1124
30964W        W46095  10.273   9.645   3.017  0.0693 -0.2617 -0.0973
30965W        W46096  11.839  17.119   4.734  0.0659  0.1415 -0.0413
30966W        W46097   9.424   5.103  11.131  0.1380 -0.0577  0.1801
30967W        W46098   3.210  18.333   1.854  0.0301  0.0425  0.1898
30968W        W46099  17.822   1.032   3.526  0.0859  0.0171  0.1348
30969W        W46100   8.742   6.766  13.511 -0.0444  0.0800  0.0481
30970W        W46101   3.207  16.082  11.236 -0.2152  0.2010  0.2174
30971W        W46102   0.616  10.952   2.254 -0.0009 -0.0116  0.1877
30972W        W46103   1.631  17.890  15.552  0.1166 -0.0610  0.3268
30973W        W46104  14.046   5.697   3.250 -0.2494 -0.1831 -0.0510
30974W        W46105  13.974  15.932  14.215 -0.1034  0.0880 -0.2014
30975W        W46106   5.780   2.323  13.832 -0.0853  0.0097 -0.2626
30976W        W46107  16.944  16.498  14.501 -0.2061 -0.2502 -0.0965
30977W        W46108  18.448   8.363  12.357 -0.3640 -0.2875  0.0114
30978W        W46109  11.539   9.690  15.008  0.1838  0.0472 -0.0351
30979W        W46110  15.274   4.790  12.332 -0.0994  0.3196 -0.3339
30980W        W46111  14.445   9.326  13.842  0.1884 -0.0557 -0.0940
30981W        W46112   4.064  18.287   1.879 -0.0227  0.2312  0.1040
30982W        W46113  14.628  16.384   0.695  0.1620 -0.0235 -0.3618
30983W        W46114   7.313  10.693   3.615  0.1170 -0.0078 -0.0834
30984W        W46115  15.436   2.355   1.454  0.1904 -0.2913 -0.0335
30985W        W46116   3.089   8.100   5.338 -0.1527  0.0785 -0.0290
30986W        W46117  17.696   4.797   0.987 -0.0519  0.1561 -0.1561
30987W        W46118   8.410  16.354  11.490  0.0423  0.1234  0.1186
30988W        W46119   2.273  13.628   2.263 -0.1143 -0.1526 -0.3814
30989W        W46120   7.868  11.521   0.682 -0.0119 -0.3711  0.0693
30990W        W46121  11.081   4.340  12.994 -0.1363 -0.2443 -0.0666
30991W        W46122  14.250   1.888  13.178 -0.0769  0.1681  0.2355
30992W        W46123   5.758   6.183  11.051  0.1368  0.1182 -0.1246
30993W        W46124  13.655   4.324  14.204 -0.5464  0.2066 -0.0535
30994W        W46125   2.885   0.569  12.571 -0.0055 -0.0820  0.1964
30995W        W46126   8.890   5.618   3.172 -0.0653 -0.0330  0.1910
30996W        W46127  14.971   0.539  11.050 -0.2692  0.0850 -0.0689
30997W        W46128   0.110   0.602   2.000 -0.2504  0.1276  0.0412
30998W        W46129   1.586  18.050  13.641 -0.1341 -0.0545 -0.0480
30999W        W46130  18.308   5.744   4.036 -0.2682 -0.0838 -0.2768
31000W        W46131  11.949   8.010  14.626  0.0687  0.0041 -0.4181
31001W        W46132  13.674  11.817  14.433  0.0635 -0.1214 -0.4770
31002W        W46133   6.774  13.252  15.391  0.0379  0.1579  0.0114
31003W        W46134   8.787  16.975   1.053  0.1785 -0.1020 -0.1277
31004W        W46135  17.061  11.230  10.815 -0.3313  0.1118 -0.3648
31005W        W46136   7.023  14.656  15.065  0.0532  0.1584 -0.0965
31006W        W46137  17.897   3.192   3.094  0.2410  0.3131 -0.0835
31007W        W46138   4.255   8.439  12.588  0.0971 -0.0700 -0.2230
31008W        W46139   0.468  14.692  12.034  0.3390 -0.3065 -0.1120
31009W        W46140   5.562  16.873   2.426  0.0780  0.1399 -0.5334
31010W        W46141   6.572   0.977   1.300 -0.0381  0.0589 -0.0181
31011W        W46142   1.008   0.090   2.102 -0.0050 -0.0777  0.1215
31012W        W46143   7.518   1.569  14.176 -0.1067  0.0739 -0.4655
31013W        W46144   9.660  11.403   0.831 -0.0577  0.0862  0.0487
31014W        W46145  15.242   5.798  11.862 -0.1843 -0.2148  0.2874
31015W        W46146  11.668  17.434  14.561 -0.1506 -0.1127  0.0392
31016W        W46147   0.993  10.660  11.755  0.1806 -0.1405 -0.0663
31017W        W46148  17.297  14.240  13.168 -0.1627  0.0642  0.2416
31018W        W46149  11.603   4.118   3.963 -0.0222  0.0936  0.2473
31019W        W46150  10.819  18.496  15.136 -0.0548 -0.0182 -0.2922
31020W        W46151   6.468   1.477  12.464  0.0724  0.1672 -0.0532
31021W        W46152   5.331  18.108   3.558 -0.1758  0.4710  0.4185
31022W        W46153  12.206  12.747   0.793  0.2164  0.1035  0.1978
31023W        W46154  14.118  11.539  15.289  0.0211  0.0392 -0.2666
31024W        W46155  13.510  13.150   0.300  0.1155  0.1461 -0.1027
31025W        W46156  16.153  12.190  14.150  0.0009 -0.0260 -0.0346
31026W        W46157   9.165   0.760   0.505  0.0370 -0.1046 -0.1190
31027W        W46158   3.707  17.053  12.202 -0.0096 -0.1229 -0.3227
31028W        W46159  15.965  14.074   4.734 -0.0629 -0.0188  0.2307
31029W        W46160  10.023  18.087  11.804 -0.2150  0.0127 -0.2060
31030W        W46161   3.528   2.772   5.432 -0.2826  0.2252  0.0788
31031W        W46162   4.671   9.958   4.996 -0.1159  0.0176  0.3613
31032W        W46163   1.985  15.532   2.539  0.0317  0.1616  0.1030
31033W        W46164   4.563   2.629  14.872 -0.0682  0.1598 -0.1092
31034W        W46165   1.471  10.406  15.872  0.1351 -0.1288 -0.1085
31035W        W46166   5.937   7.406  14.581  0.1194  0.1396  0.2208
31036W        W46167   3.120   9.446   1.424 -0.2020  0.1378  0.0270
31037W        W46168  14.051  10.588  15.079  0.1862 -0.1022  0.1851
31038W        W46169  17.207   6.925  10.257  0.0120 -0.0018 -0.1511
31039W        W46170   2.047   4.226   0.063  0.1741 -0.0054 -0.3026
31040W        W46171  11.880   6.564   2.755 -0.0618  0.0308 -0.0862
31041W        W46172   1.225  17.282   1.234 -0.1496 -0.0530 -0.0345
31042W        W46173   7.382  16.817  14.750  0.1528 -0.4856 -0.3542
31043W        W46174  17.781   9.839   3.386 -0.0108 -0.1235 -0.0977
31044W        W46175   7.436  16.155   1.827  0.1113  0.0995  0.0241
31045W        W46176   3.584   3.458  15.625 -0.1851  0.1370  0.2360
31046W        W46177  11.132   3.741   1.745  0.1291 -0.0126  0.0984
31047W        W46178  17.767   3.755  14.855 -0.1667 -0.2012  0.1309
31048W        W46179   5.956  16.358  14.009 -0.0133 -0.3340 -0.2121
31049W        W46180   3.138   5.377  12.691 -0.1578  0.0931  0.2949
31050W        W46181   2.040   2.644  13.262 -0.1031  0.2317  0.3423
31051W        W46182   5.796  16.383  11.759  0.0360 -0.0669 -0.0340
31052W        W46183  14.153  11.845  13.024  0.0213 -0.2436  0.2527
31053W        W46184   6.197   2.180  11.990 -0.0175 -0.2613  0.0668
31054W        W46185  17.274  14.595  13.587 -0.2511 -0.0619  0.0622
31055W        W46186   4.926  18.279   5.345  0.2445  0.0399  0.1947
31056W        W46187  15.680  17.661   1.194  0.0957  0.0972 -0.0112
31057W        W46188   7.471  12.435  14.293  0.2353 -0.0273  0.1315
31058W        W46189  14.523   9.516   4.852 -0.0640  0.1334 -0.0793
31059W        W46190   7.238  16.536   4.917 -0.0469  0.3115 -0.3680
31060W        W46191  13.271   7.501   3.807  0.2085 -0.0560 -0.1899
31061W        W46192  18.181  17.594   3.327  0.0847 -0.0536  0.0301
31062W        W46193   2.678  10.852  12.506  0.1580 -0.1579 -0.3762
31063W        W46194  10.251  13.891   5.136 -0.0755 -0.0039  0.2996
31064W        W46195  16.219  13.094  15.343 -0.1979  0.1102  0.2886
31065W        W46196  13.734   9.739  10.906  0.0486  0.0334  0.1264
31066W        W46197   3.274   6.746   2.523 -0.1031  0.2042 -0.3110
31067W        W46198   7.364   2.298   4.376  0.0358 -0.0746 -0.0493
31068W        W46199   3.266  11.875  13.783 -0.1776  0.2298 -0.0325
31069W        W46200  18.326   5.727  12.617 -0.4767  0.0673 -0.1554
31070W        W46201  15.041  11.628  12.494  0.0941 -0.2844  0.1321
31071W        W46202  12.697   9.948  15.181 -0.1316  0.0355  0.1287
31072W        W46203  15.571   2.624  15.446  0.1699  0.1609 -0.0855
31073W        W46204   1.727  11.049  15.050  0.2242  0.4609  0.1706
31074W        W46205  11.351  11.644  11.746  0.1532 -0.2129 -0.1007
31075W        W46206   5.699   6.911  10.378  0.1712  0.2288  0.4721
31076W        W46207   7.200  12.214   2.457 -0.0007  0.1355 -0.2014
31077W        W46208   7.010   8.298  14.003  0.1999  0.0736 -0.0222
31078W        W46209  10.431   9.637  12.473  0.0164 -0.2112 -0.1525
31079W        W46210  12.270   0.075   0.870  0.0631 -0.0278 -0.2632
31080W        W46211  16.877   5.928  15.176  0.0049  0.2267 -0.1052
31081W        W46212  10.001  11.903  10.570  0.1667 -0.1497 -0.0160
31082W        W46213  15.134  10.030  12.960  0.0353 -0.0319 -0.0406
31083W        W46214  15.745  10.725   2.522  0.2837  0.2008  0.3751
31084W        W46215  13.231   0.834  10.874  0.0352 -0.2187 -0.1948
31085W        W46216  17.276   6.917  15.670  0.0899  0.1983  0.0601
31086W        W46217   1.466   5.602   3.725 -0.1648 -0.5397 -0.1288
31087W        W46218  17.236  12.282   2.883 -0.0364 -0.0586  0.4982
31088W        W46219  17.948  15.742   1.472 -0.0995  0.1410 -0.0742
31089W        W46220  17.640   1.275  13.656 -0.1783  0.1897 -0.2693
31090W        W46221   4.821   4.981   5.260 -0.1223  0.0485  0.2824
31091W        W46222  12.716   8.790  13.698 -0.0532  0.2736 -0.0501
31092W        W46223  16.603  14.172   2.549 -0.1150 -0.1511  0.3126
31093W        W46224  14.044  11.071  15.539  0.1383  0.1159 -0.3382
31094W        W46225  18.300   8.088  13.620 -0.1286  0.2698  0.1822
31095W        W46226  13.303   4.504  13.882 -0.3819 -0.0456 -0.2947
31096W        W46227   9.495  12.992   4.207 -0.0234 -0.3758  0.4345
31097W        W46228   2.592   6.670  12.824 -0.1826 -0.0012  0.1408
31098W        W46229  12.736  10.562  11.600  0.2902 -0.3190 -0.0550
31099W        W46230  15.377   4.526  15.628  0.0762 -0.2065  0.2118
31100W        W46231   4.298   6.090   2.509 -0.1956  0.1818 -0.2010
31101W        W46232   8.120   3.281   3.419  0.2435  0.1441  0.1267
31102W        W46233  15.946  17.632   4.963  0.2135  0.0505 -0.0850
31103W        W46234   2.792  16.187   4.923  0.0897 -0.2323 -0.1584
31104W        W46235  10.103  18.427   4.982 -0.1782 -0.0745 -0.0793
31105W        W46236   9.517   5.582   5.185  0.0321  0.4310 -0.1405
31106W        W46237   6.610  16.607  12.926 -0.0914  0.2964  0.0775
31107W        W46238  16.637   7.715   5.809 -0.0748  0.2675 -0.1254
31108W        W46239   0.566   5.965  11.760  0.0223  0.2874  0.1062
31109W        W46240   2.330   8.605  11.182  0.0853  0.0172 -0.2547
31110W        W46241  14.359  14.175  12.258 -0.0634 -0.4877  0.0399
31111W        W46242  10.103   2.583  15.065  0.0186 -0.1543 -0.2793
31112W        W46243  13.273  16.901  12.651  0.6075 -0.1121 -0.0655
31113W        W46244   5.105  12.940  14.596  0.1148 -0.1420  0.1196
31114W        W46245   2.818  17.248  13.723 -0.1816  0.2397 -0.2151
31115W        W46246  11.929  10.582   3.259 -0.0092 -0.1631  0.1855
31116W        W46247   7.706   1.199   1.901 -0.1559  0.2058  0.3565
31117W        W46248  12.719   4.351  15.044  0.0081  0.0856 -0.4367
31118W        W46249   3.601   9.243   2.183  0.1442 -0.0540  0.1471
31119W        W46250   8.419   4.156  10.428  0.1116  0.3721 -0.0059
31120W        W46251   2.526  17.813   0.783 -0.1910  0.1486  0.0195
31121W        W46252   1.093   1.162  11.877  0.1341 -0.0412 -0.2739
31122W        W46253   6.046   9.192   2.811 -0.0514  0.0547  0.3691
31123W        W46254  10.752  12.833  13.603  0.2871  0.0849  0.2373
31124W        W46255   1.626   2.486  13.007 -0.0149 -0.2575  0.6453
31125W        W46256  18.269   1.112  11.026 -0.2153 -0.4640  0.0988
31126W        W46257   8.175   5.490  14.591  0.0613 -0.1135  0.0378
31127W        W46258  11.639  10.384   4.139  0.0742 -0.1309 -0.0151
31128W        W46259  11.196  17.352  15.688  0.2966 -0.0815 -0.1969
31129W        W46260   8.605  12.093   2.717 -0.2279  0.0518  0.3598
31130W        W46261   4.756   4.649   3.593  0.0957  0.0049 -0.0467
31131W        W46262   3.789   2.666  14.025 -0.1201 -0.3332  0.0930
31132W        W46263   4.406   8.074   0.981  0.2524 -0.0806  0.0307
31133W        W46264  15.458  12.325   1.883 -0.2845 -0.4668 -0.2759
31134W        W46265   9.928   3.046   1.348  0.2447 -0.2541  0.0902
31135W        W46266   5.313  13.651   0.561 -0.4271  0.1775 -0.0203
31136W        W46267   8.576  16.537   4.152  0.4399  0.1625  0.0315
31137W        W46268  10.137   4.967  12.677 -0.0636 -0.1089 -0.0153
31138W        W46269   8.719  14.346   4.641  0.0340  0.3981  0.3026
31139W        W46270   2.750   4.319   0.020 -0.0766 -0.2165  0.0103
31140W        W46271  16.844   0.074  10.322 -0.0206 -0.0979 -0.0229
31141W        W46272   6.445   2.115   0.176 -0.1080 -0.2716  0.0892
31142W        W46273   4.084   4.026   1.410 -0.1253 -0.0301 -0.1888
31143W        W46274   3.007  14.098   4.030 -0.1074 -0.2099 -0.1112
31144W        W46275  14.728   9.508  12.973 -0.1249 -0.2363  0.0500
31145W        W46276   5.420  16.527  10.739  0.0142 -0.1212 -0.5345
31146W        W46277  16.816  11.243   0.116  0.4679  0.0220 -0.0342
31147W        W46278   3.597  12.644  15.168  0.0983 -0.1222  0.0753
31148W        W46279  18.088   8.409   2.784  0.2962  0.1894  0.2893
31149W        W46280   4.372  15.134  10.623  0.2496  0.3709 -0.0433
31150W        W46281   0.739   4.702   0.581 -0.3679 -0.1232 -0.3179
31151W        W46282  13.129   2.586  13.279 -0.1558  0.1112  0.1712
31152W        W46283  11.937   9.131   2.356  0.0964  0.1536 -0.1144
31153W        W46284   7.728   3.076   5.591 -0.2589  0.2403 -0.1439
31154W        W46285   7.429  12.607  12.748  0.1601  0.0027  0.2720
31155W        W46286  16.916  10.865   2.763 -0.1610  0.3122 -0.2742
31156W        W46287  10.825   5.261   5.542  0.0141  0.2253 -0.0007
31157W        W46288   8.840   5.118  11.049 -0.0199 -0.3316 -0.2285
31158W        W46289  11.944   6.772  11.509  0.0283 -0.0147 -0.2480
31159W        W46290   2.444  11.397  13.823 -0.0369  0.2537  0.3600
31160W        W46291   4.026  13.189  13.476 -0.1937 -0.0032 -0.1515
31161W        W46292   5.316  10.666  11.903 -0.0636  0.0375 -0.0468
31162W        W46293   3.562   0.635  13.433 -0.2122  0.0630  0.1004
31163W        W46294   3.846   7.382  11.810  0.1173 -0.1712 -0.0202
31164W        W46295   8.109  15.243   3.552 -0.3518 -0.0510 -0.2764
31165W        W46296   5.724   3.840   5.397 -0.4866 -0.3728 -0.0964
31166W        W46297   6.081  15.883  11.786 -0.1813 -0.0804  0.1458
31167W        W46298   4.525   5.108   0.132  0.0268 -0.0993 -0.0467
31168W        W46299   2.337   7.851   1.972  0.1031  0.1364  0.2561
31169W        W46300   1.042   0.786  11.296 -0.0537  0.0751 -0.1612
31170W        W46301   4.370  12.645   5.380 -0.0714  0.2620 -0.0379
31171W        W46302   0.238   2.588   6.106 -0.0385 -0.1673 -0.1270
31172W        W46303  15.701   7.011  12.301  0.0034 -0.0618  0.0183
31173W        W46304   0.838  15.091   2.118 -0.1058  0.1011  0.0278
31174W        W46305   2.295  13.291   4.311 -0.3461 -0.0875 -0.0089
31175W        W46306   0.981  15.632  11.330 -0.0490 -0.3202  0.1189
31176W        W46307  12.949  12.776  15.109  0.1859  0.0722  0.2804
31177W        W46308  17.093   4.255   2.845  0.0257  0.0620  0.1441
31178W        W46309   7.233   6.521  12.685 -0.0328  0.1294  0.0718
31179W        W46310   9.795  14.066   1.235 -0.2356 -0.1988 -0.0871
31180W        W46311   3.950   4.454   1.095  0.2529 -0.0190  0.0263
31181W        W46312   1.129   2.371   1.058 -0.0777  0.4495 -0.2214
31182W        W46313   2.212   8.069   2.781 -0.1400 -0.0555 -0.0577
31183W        W46314  11.268  15.944  13.068  0.2004  0.1089  0.0964
31184W        W46315   0.668   0.431   1.036  0.1666  0.3842  0.3250
31185W        W46316   0.361  11.556  15.278  0.0398  0.1549 -0.0510
31186W        W46317  13.669   2.804   0.436 -0.0262  0.0286 -0.2558
31187W        W46318  16.507  12.386  13.749 -0.0605  0.0072  0.1005
31188W        W46319   7.087   1.741  15.867  0.0487  0.1035 -0.0820
31189W        W46320   9.587  12.288   0.284 -0.1195 -0.0841  0.2648
31190W        W46321   7.014  13.918   4.127  0.6192  0.1817  0.0762
31191W        W46322   2.157   9.484  11.556 -0.3314 -0.2161  0.0089
31192W        W46323   3.067  15.441   2.000  0.1247 -0.0823 -0.0605
31193W        W46324  12.943  15.981   0.206  0.0788  0.0787  0.0764
31194W        W46325   5.916  14.209  11.593  0.0870 -0.0824 -0.1313
31195W        W46326  18.417  10.764  12.471 -0.0662  0.1090 -0.3088
31196W        W46327   4.258  14.419   0.130  0.0821 -0.1330  0.0508
31197W        W46328   5.087  11.949   5.574 -0.0702 -0.1413  0.2015
31198W        W46329   6.528   6.392   2.038 -0.2392 -0.0135 -0.1444
31199W        W46330  13.055  10.837  15.498  0.0648 -0.2138  0.1011
31200W        W46331  10.211   2.727   3.323  0.2636  0.2632  0.1347
31201W        W46332  16.492   3.175  14.224 -0.2537 -0.0829  0.2213
31202W        W46333  17.567  16.624  12.182  0.2260 -0.3001 -0.1662
31203W        W46334  12.346   7.964  11.240 -0.0186 -0.0217 -0.2173
31204W        W46335  12.240  15.693   1.197  0.1069  0.1988 -0.0569
31205W        W46336   6.175   9.948  13.246  0.2008  0.0881  0.2554
31206W        W46337  13.505   1.523  14.747 -0.0736 -0.0131  0.1016
31207W        W46338  14.478  15.588  10.389  0.0780  0.3165  0.2244
31208W        W46339   7.194  17.599  15.847 -0.1163 -0.2070  0.1160
31209W        W46340  10.236  12.038  15.718 -0.0514 -0.0333  0.0778
31210W        W46341  10.588  14.489   3.909  0.2040  0.0615 -0.0176
31211W        W46342   2.078   0.780   0.363 -0.1341  0.3137  0.0673
31212W        W46343   4.313  14.513   0.857 -0.0767  0.2089  0.0449
31213W        W46344   1.864   1.075   0.793  0.0277 -0.0291 -0.1921
31214W        W46345   0.464  13.499  15.348 -0.0167  0.1616 -0.2192
31215W        W46346   6.086   1.815  13.760 -0.0828  0.0526 -0.0016
31216W        W46347   2.507   3.662   4.021  0.0100 -0.3156  0.1070
31217W        W46348  14.916   8.781  14.423 -0.2166  0.2991  0.0255
31218W        W46349   7.266  10.142   3.110  0.1324  0.0911  0.1038
31219W        W46350   5.423  10.867  11.013 -0.0501 -0.0945  0.0922
31220W        W46351   9.126   6.777  13.918 -0.0618 -0.0877  0.0577
31221W        W46352  15.470   2.144   2.418 -0.0902  0.0798 -0.2490
31222W        W46353  10.892   1.833   5.227 -0.3915 -0.3219  0.3560
31223W        W46354   2.214   8.218  13.399 -0.1070 -0.1337 -0.0380
31224W        W46355   8.351   8.520  11.730 -0.0538  0.0027  0.1284
31225W        W46356  13.250  14.455   2.783 -0.0444  0.0990  0.1496
31226W        W46357   3.270  14.700  14.218  0.1928 -0.1876  0.0931
31227W        W46358   6.585   5.072   2.593  0.2688  0.0180  0.2591
31228W        W46359   8.940  12.988   1.117  0.1334 -0.0055  0.1408
31229W        W46360   5.800   6.873   1.895  0.2887  0.3864 -0.0093
31230W        W46361   9.837   1.931  15.815 -0.1083  0.1181 -0.1158
31231W        W46362   5.104  13.987   3.377 -0.1746  0.3492 -0.1079
31232W        W46363  11.950  13.227  11.684 -0.3107  0.2719  0.0454
31233W        W46364   0.117   2.862  12.082 -0.0531 -0.0531 -0.1360
31234W        W46365   8.687   9.104   2.038 -0.0162 -0.2484 -0.1707
31235W        W46366   0.016   4.359   2.986  0.0236  0.0350  0.0052
31236W        W46367   4.718  17.357   4.470 -0.1107  0.0354 -0.0125
31237W        W46368  11.408  14.695   1.396 -0.0379  0.1547  0.0979
31238W        W46369  11.034  17.842  14.034  0.2142 -0.3966 -0.1518
31239W        W46370  10.067  18.484   3.240  0.1776  0.0397  0.2179
31240W        W46371  10.588   4.862   2.433  0.2822 -0.1864 -0.0346
31241W        W46372  14.280   1.784  15.652  0.1618 -0.2392  0.0188
31242W        W46373  11.693   3.232  13.232 -0.1967 -0.2719 -0.0843
31243W        W46374  11.253   5.099  14.738  0.2493 -0.1368  0.0038
31244W        W46375   0.980   6.725  15.415  0.2117  0.3910  0.0151
31245W        W46376   0.152  15.588  12.142 -0.1836  0.0575 -0.0484
31246W        W46377   4.421  14.745   5.168 -0.0835 -0.1180 -0.1451
31247W        W46378  18.519   6.549  12.884  0.3217 -0.1839 -0.0604
31248W        W46379  17.387  17.091   4.208  0.0370 -0.0988  0.1980
31249W        W46380  10.857   4.357   2.643  0.2264  0.0374 -0.0588
31250W        W46381   3.177   1.680   1.248 -0.0721  0.0179 -0.3165
31251W        W46382  12.451   5.292   2.124  0.3563  0.1325  0.0570
31252W        W46383  10.191  12.008   1.602 -0.2279  0.0561 -0.0295
31253W        W46384  14.243  18.371   3.433 -0.4528 -0.0212  0.3237
31254W        W46385  13.785   6.648   4.866 -0.2238  0.0442  0.0117
31255W        W46386  13.193  17.563  13.182  0.0846 -0.2452  0.0624
31256W        W46387   7.421   6.694  14.546 -0.0839  0.0049  0.0856
31257W        W46388  10.646  14.858   0.792  0.1863  0.1584  0.2029
31258W        W46389  14.563   0.970  11.779 -0.0409 -0.1971  0.3408
31259W        W46390   1.108  14.398   4.680 -0.1661 -0.5096 -0.3350
31260W        W46391   9.324   3.387  14.904  0.0779 -0.0748 -0.2173
31261W        W46392  13.092   6.223   5.406  0.4001 -0.0768 -0.0793
31262W        W46393   5.940  16.153  15.409  0.1634 -0.2433 -0.2611
31263W        W46394   0.472  15.796  14.132  0.1518 -0.1147 -0.0101
31264W        W46395   1.277  17.550   2.427 -0.1547  0.0043  0.1361
31265W        W46396   8.321   9.312   5.296  0.0907  0.2824 -0.2111
31266W        W46397   4.120   0.312  12.741 -0.2435  0.0475 -0.1544
31267W        W46398   6.147   6.621  12.135  0.2404  0.6886 -0.3248
31268W        W46399  17.154  14.028   3.504  0.1305 -0.1074  0.0379
31269W        W46400  16.946   4.595  14.472  0.3483 -0.4245  0.0605
31270W        W46401   4.990   8.015   0.278 -0.0772  0.0563 -0.1425
31271W        W46402   7.130  10.225   5.031  0.0284 -0.1350  0.2761
31272W        W46403  15.976  15.609  10.075  0.0288 -0.3417 -0.1318
31273W        W46404   2.519   7.150   4.440 -0.0116 -0.2816  0.1754
31274W        W46405  13.602   3.374  14.404 -0.1266  0.2213 -0.3294
31275W        W46406   2.865   0.707   0.530 -0.0278  0.0106  0.1209
31276W        W46407   5.321   4.940   1.436  0.1428 -0.4735  0.0138
31277W        W46408  14.983   2.491  12.415  0.1251  0.4109 -0.2499
31278W        W46409  14.720  15.042   0.028 -0.3270  0.2640 -0.0362
31279W        W46410  18.074  12.632   3.865 -0.0202 -0.0751 -0.2345
31280W        W46411   2.477  17.637  15.865  0.3503  0.1722  0.0092
31281W        W46412   3.675  10.146   0.993  0.1980  0.0656 -0.0525
31282W        W46413   9.299  15.007   0.309  0.0336 -0.2519 -0.2135
31283W        W46414  10.863   7.615   3.568  0.2708  0.0935 -0.1951
31284W        W46415  17.773   8.172  11.346  0.2130  0.3334  0.0002
31285W        W46416  15.376   2.996   5.352 -0.5601 -0.3792  0.4315
31286W        W46417   4.157   8.074   3.427  0.0122 -0.0494 -0.1345
31287W        W46418   2.547   0.287   1.577  0.0561 -0.2006 -0.1844
31288W        W46419  14.947   6.351   5.671 -0.0629 -0.1028  0.0559
31289W        W46420  16.572   1.960  13.371 -0.1320 -0.1103 -0.0040
31290W        W46421  17.216  12.511  14.380  0.1234 -0.0352 -0.0578
31291W        W46422   5.080  15.809   1.104  0.0331 -0.0299 -0.0215
31292W        W46423  14.218  13.618  11.709  0.0272 -0.2112 -0.1024
31293W        W46424   2.294  16.954   2.136  0.2162 -0.2725  0.2153
31294W        W46425   3.345   6.199   3.516 -0.0542  0.4099  0.1041
31295W        W46426   0.300   2.098   1.693  0.3308 -0.0119 -0.2939
31296W        W46427   8.300   7.366  13.425  0.3103 -0.0658  0.0531
31297W        W46428  16.615   1.436   4.056  0.0503 -0.0182  0.0123
31298W        W46429  16.470   0.216   5.469  0.1079 -0.1087  0.0095
31299W        W46430  15.820   5.896   4.195  0.2096  0.1239  0.2378
31300W        W46431   3.699   3.667  11.561  0.3232  0.0467  0.1270
31301W        W46432  10.332  15.071   2.247  0.1118 -0.1842  0.1133
31302W        W46433  11.775   1.551  12.274 -0.1337 -0.2023 -0.1039
31303W        W46434   7.314   4.500   2.331 -0.2619 -0.0734 -0.3888
31304W        W46435  17.019   6.377  11.710 -0.1867 -0.2389 -0.4610
31305W        W46436  17.695  14.563  15.644 -0.3361  0.0796 -0.1507
31306W        W46437  10.114   2.101   4.410 -0.3059  0.0762  0.1460
31307W        W46438  16.676   1.965  10.817 -0.1108  0.0479 -0.0965
31308W        W46439  12.131   7.480   3.955 -0.0739 -0.0207  0.1339
31309W        W46440   2.921   0.253  12.957 -0.0917 -0.0275 -0.1305
31310W        W46441   9.655  10.782   1.075  0.0513 -0.2312  0.3354
31311W        W46442   4.816  17.617   0.721  0.2642 -0.0253 -0.3067
31312W        W46443   8.360   0.072   0.604 -0.1463 -0.0706 -0.2119
31313W        W46444  10.027  15.929  14.590  0.2198  0.4755 -0.0356
31314W        W46445  14.133  17.076  14.674 -0.1011 -0.2119 -0.0497
31315W        W46446  17.853   5.168   0.718 -0.3207 -0.1827  0.1916
31316W        W46447   0.754   8.803  14.382 -0.0054 -0.0788 -0.2167
31317W        W46448  11.789   3.464  12.770  0.0521 -0.1652  0.2990
31318W        W46449   7.360  16.158   2.389  0.1126  0.2462  0.1665
31319W        W46450   4.940  16.681  14.431 -0.4904 -0.0860  0.1677
31320W        W46451   9.834   7.051  14.449  0.1622  0.1587 -0.1013
31321W        W46452  12.972   5.979  15.163 -0.0232 -0.1695  0.1296
31322W        W46453   0.552   1.557   0.823  0.4880 -0.0042  0.0726
31323W        W46454   1.426   4.967  11.166 -0.1904  0.0707  0.3927
31324W        W46455   8.265   3.696  12.108 -0.2543 -0.1182 -0.1134
31325W        W46456   5.165  12.267   1.558 -0.0454  0.1160 -0.0049
31326W        W46457  18.203  17.279  14.831  0.1770 -0.2090  0.3711
31327W        W46458   6.063  12.046   4.231 -0.1336  0.2368 -0.2160
31328W        W46459  16.098   5.064   2.152  0.1611  0.0230  0.2752
31329W        W46460   3.884   5.281  14.713  0.0673 -0.2625  0.0032
31330W        W46461  13.367  10.600   1.026 -0.0987  0.1519 -0.2704
31331W        W46462   6.555  17.898  13.097 -0.1448 -0.0215 -0.1300
31332W        W46463   1.282   5.881  12.741 -0.2196  0.2101 -0.0453
31333W        W46464   8.393   4.810   1.723  0.1111 -0.0178 -0.0898
31334W        W46465  15.832   7.907   4.138  0.1173 -0.0826 -0.1005
31335W        W46466   5.245  13.240   4.442  0.2510  0.0206 -0.3752
31336W        W46467   6.817   0.453   4.082 -0.1794  0.1207  0.3047
31337W        W46468   0.126  11.817  12.390 -0.0426  0.4891 -0.1276
31338W        W46469   7.990   4.972  14.640  0.2820  0.0558  0.0916
31339W        W46470   3.721  15.922   4.914  0.1916 -0.3043 -0.0349
31340W        W46471  13.193   5.441   5.248 -0.1217 -0.0105  0.1038
31341W        W46472   8.175  15.713   4.279 -0.1636  0.0020 -0.1120
31342W        W46473  16.381  15.383  14.178 -0.1598  0.1164 -0.2903
31343W        W46474  15.435   9.215  15.643 -0.0050  0.0879  0.1761
31344W        W46475   4.916  12.812  13.679 -0.1609 -0.2369 -0.3341
31345W        W46476  14.218  12.290   0.472 -0.1781 -0.1025 -0.0268
31346W        W46477  13.924   7.791   2.705 -0.0330  0.0824 -0.1582
31347W        W46478   1.128  11.198  13.344  0.3161 -0.2369  0.0034
31348W        W46479   3.364  17.092   4.139 -0.3514  0.0477  0.0797
31349W        W46480   1.587   2.504  14.791 -0.0972 -0.2124 -0.0678
31350W        W46481   4.634   7.395   4.828  0.0476 -0.0046 -0.0862
31351W        W46482   8.595  15.725  15.316  0.2711 -0.4438  0.0192
31352W        W46483  15.465   4.344   4.248 -0.0082 -0.1074  0.4501
31353W        W46484   7.780  16.354   4.818 -0.0663 -0.1560  0.1621
31354W        W46485   0.250  10.452   0.964 -0.0419  0.0440 -0.1979
31355W        W46486   6.108   7.726  11.501 -0.1293 -0.1941 -0.0748
31356W        W46487   0.294  12.531   0.330 -0.0344  0.2941 -0.2992
31357W        W46488  10.569   2.120   4.782  0.0898 -0.1560 -0.2743
31358W        W46489  18.294   8.473   6.409  0.1765  0.0596  0.4836
31359W        W46490   8.542   6.093  11.815 -0.0092 -0.1578  0.0550
31360W        W46491   1.496   8.260   0.692 -0.0714 -0.2612  0.3347
31361W        W46492  13.131   7.858   4.240  0.0037 -0.2039 -0.1805
31362W        W46493   9.432  16.019  14.624 -0.1417 -0.1881  0.0364
31363W        W46494  13.462   7.931  15.041 -0.1066 -0.1412 -0.1150
31364W        W46495   8.319  14.376   3.178  0.0354  0.2301  0.0139
31365W        W46496  17.199  10.807   1.782 -0.0655 -0.0592  0.0644
31366W        W46497  13.626   6.282   4.146  0.1330 -0.1613 -0.2630
31367W        W46498   6.127  18.019  15.115 -0.1411  0.1460 -0.2142
31368W        W46499   3.065  18.059   0.653  0.4986 -0.1559  0.1204
31369W        W46500   7.519   3.820  11.333  0.0831 -0.0011 -0.0823
31370W        W46501  18.101  10.643   4.850  0.0971  0.1879  0.1601
31371W        W46502  16.399  12.695   5.844  0.1251 -0.0524  0.3770
31372W        W46503   0.714   5.682   4.889  0.3786  0.1325 -0.1450
31373W        W46504   5.023   5.485   5.308 -0.2978 -0.2488  0.0744
31374W        W46505   7.128   9.342  10.562 -0.0968 -0.1661  0.1575
31375W        W46506   9.111  11.962   2.812 -0.0063  0.3073  0.2755
31376W        W46507   9.911  16.736  11.343  0.1394  0.0677  0.1345
31377W        W46508  16.521   6.069  14.759 -0.0419  0.0053  0.1055
31378W        W46509   1.495  18.525  11.468 -0.1888 -0.3796 -0.0540
31379W        W46510   4.515   1.578  11.866 -0.1172  0.0725  0.0968
31380W        W46511  11.455   4.611  11.407 -0.0108  0.0399  0.3504
31381W        W46512  12.722   0.174   4.206 -0.0492  0.2212 -0.0244
31382W        W46513   3.486   5.088  14.971  0.2263 -0.2484  0.1788
31383W        W46514   1.043   9.918   4.433 -0.1537 -0.1955 -0.0205
31384W        W46515  11.462   4.231  14.251  0.0247  0.2121  0.0827
31385W        W46516   0.147   7.788   3.493  0.2272 -0.0731  0.1590
31386W        W46517   3.103  13.628   1.277  0.1615 -0.2683  0.0135
31387W        W46518  14.914   9.228  13.707 -0.1295 -0.1124 -0.1775
31388W        W46519   3.942   8.157  13.545 -0.1100  0.0225 -0.1296
31389W        W46520   8.906  10.042   0.373  0.1915 -0.1094  0.0516
31390W        W46521   6.690  17.686   4.439 -0.0400 -0.0756  0.2520
31391W        W46522   5.104  15.166   3.221 -0.1993  0.0601 -0.0219
31392W        W46523   9.272  10.231   5.336 -0.0691  0.0407  0.0041
31393W        W46524   3.934  12.494   4.257  0.0240  0.3799 -0.0406
31394W        W46525  17.518  18.109   3.832 -0.2247 -0.3012 -0.0754
31395W        W46526   8.163  16.402  14.803  0.2647  0.1349  0.3132
31396W        W46527   9.941   8.852  15.170 -0.1067  0.1680 -0.2223
31397W        W46528  18.217   2.688   1.986  0.1257 -0.2738 -0.0715
31398W        W46529   3.673  10.811   2.726 -0.1145  0.0145  0.0534
31399W        W46530   7.361  10.228  12.162 -0.2692 -0.0064  0.0326
31400W        W46531  14.504   5.794   3.970 -0.0339  0.0022 -0.4525
31401W        W46532  14.278  15.609   3.285 -0.1307 -0.1626 -0.0008
31402W        W46533   5.028  15.152   1.760 -0.1430 -0.3709  0.2763
31403W        W46534   6.615  16.736  15.101 -0.2338  0.2365  0.0344
31404W        W46535  17.529  12.859   1.063  0.0661  0.0762 -0.1869
31405W        W46536   2.840   4.574  12.554 -0.2424  0.0543 -0.3577
31406W        W46537  11.431  11.609   4.006  0.2286 -0.0722 -0.2416
31407W        W46538  12.256  11.736   9.305  0.0224  0.1800 -0.2394
31408W        W46539   3.352  11.334  13.124 -0.0204  0.0213  0.2034
31409W        W46540  16.854  11.601  12.456 -0.0903 -0.2944 -0.2761
31410W        W46541   2.326  12.544   4.186  0.2482 -0.1375  0.0722
31411W        W46542  10.697   1.384  12.733  0.2265 -0.2930 -0.0166
31412W        W46543   8.351  14.834  15.010  0.0077  0.0663 -0.0894
31413W        W46544  11.372  14.166  10.973  0.0509  0.1195  0.1692
31414W        W46545   0.039   5.131  14.348  0.0113 -0.0512  0.0008
31415W        W46546   2.454   9.628  11.070 -0.0058 -0.4972  0.1184
31416W        W46547  17.781  11.345   1.969  0.1403  0.1609  0.2183
31417W        W46548   2.006  17.691  10.911 -0.2014  0.1943 -0.1676
31418W        W46549   4.684  13.766   5.453  0.2522  0.0983  0.3763
31419W        W46550   6.940   7.915   0.346 -0.4108 -0.1242  0.4130
31420W        W46551  13.513  14.076   0.022  0.1761 -0.0869  0.0996
31421W        W46552   9.558  10.345  15.042  0.2004 -0.1861  0.2234
31422W        W46553  12.623   6.878   0.799 -0.3144 -0.1341  0.0283
31423W        W46554  14.855  11.716  11.804  0.2476 -0.2510 -0.0387
31424W        W46555  15.951  13.772  13.700  0.2734  0.0804  0.0112
31425W        W46556   2.222  10.882   0.111 -0.1319 -0.0596 -0.0794
31426W        W46557   4.380  17.736   4.638  0.2307  0.1714  0.1212
31427W        W46558   8.176  15.502   4.845  0.1780 -0.0668 -0.1352
31428W        W46559   8.390   4.877  10.698  0.0225 -0.2831  0.1288
31429W        W46560  10.319   3.151  12.310 -0.0113 -0.2339 -0.1113
31430W        W46561  16.211   4.768  15.723  0.1066  0.2689  0.2375
31431W        W46562  13.244   8.251   6.137 -0.1581 -0.3963 -0.2261
31432W        W46563   7.239  13.107  15.176  0.0701 -0.2730  0.1203
31433W        W46564   1.880  13.524  12.209  0.0793  0.0191 -0.2897
31434W        W46565   4.043   8.761   3.978 -0.1211 -0.0364  0.0802
31435W        W46566  17.987   8.216   5.502  0.0772 -0.1960  0.1973
31436W        W46567   1.851   3.012  10.421  0.0692  0.2101  0.0038
31437W        W46568   8.040   5.366  15.183  0.1847  0.0185  0.0440
31438W        W46569  12.120   3.971   4.598 -0.1721 -0.1187  0.0172
31439W        W46570  15.606  14.998   4.560  0.1157 -0.1288  0.1147
31440W        W46571   5.555  14.653  13.107  0.4498 -0.2670  0.0937
31441W        W46572  10.732  10.954   1.087 -0.2410 -0.1547 -0.0742
31442W        W46573   6.285   3.374  10.019  0.1077 -0.1243  0.0188
31443W        W46574  18.131   1.712   3.558 -0.0142 -0.0932 -0.3622
31444W        W46575   1.450  13.175   4.335  0.0438 -0.1580  0.0729
31445W        W46576   6.365  12.097  15.552  0.1216 -0.0927  0.0100
31446W        W46577   8.968   7.007  10.984 -0.0291 -0.1353  0.1309
31447W        W46578   1.107  14.293  15.248  0.2075  0.1923  0.2346
31448W        W46579   9.908   4.171  11.254 -0.1347 -0.0057  0.0223
31449W        W46580  10.726  14.022   3.743 -0.0685 -0.1420  0.0105
31450W        W46581  12.247  12.145  14.570 -0.0237  0.1074  0.0033
31451W        W46582   0.036  11.099   1.426  0.0390 -0.0429 -0.0226
31452W        W46583   1.174   7.007  13.269 -0.0427 -0.0756  0.0004
31453W        W46584  18.237  10.062  13.783  0.0907  0.0975  0.0042
31454W        W46585   2.401   7.119  11.449 -0.0789 -0.0230 -0.1034
31455W        W46586   2.667  10.164   4.021  0.0355  0.0928 -0.2151
31456W        W46587   2.657  10.918  15.823  0.0016 -0.1999  0.0711
31457W        W46588   6.019   7.298  10.842  0.1644  0.0957  0.4077
31458W        W46589  12.816   3.582  11.285  0.1665 -0.1826 -0.0975
31459W        W46590   0.335  16.454   4.869 -0.0866 -0.0992 -0.1441
31460W        W46591   6.815  12.706   4.054 -0.4222 -0.0541 -0.0724
31461W        W46592   7.818   2.837  12.152 -0.1882  0.2600  0.3172
31462W        W46593   5.533   5.929   4.701 -0.0997  0.0436  0.2210
31463W        W46594  18.144   1.327  13.484 -0.0921  0.0279 -0.3997
31464W        W46595  17.184   7.069   2.738  0.0434  0.1221 -0.0047
31465W        W46596  14.139  15.927   5.182  0.3082  0.0208  0.0443
31466W        W46597   1.623   6.869  14.358  0.0255  0.1833 -0.1002
31467W        W46598   3.841  18.004   4.449 -0.2171 -0.1845  0.0233
31468W        W46599  13.093  10.378   0.718 -0.3438 -0.2334 -0.1179
31469W        W46600  17.389  11.909  12.273 -0.4894 -0.1450  0.1214
31470W        W46601  12.247   6.948   3.699 -0.1785  0.4352 -0.2095
31471W        W46602   6.585   0.546  12.424 -0.0186 -0.1919 -0.2222
31472W        W46603   0.199   5.710   1.339  0.0886  0.5909 -0.0454
31473W        W46604   1.405   8.091  11.460 -0.0998 -0.3341  0.0321
31474W        W46605  10.490   0.221  13.886  0.1818  0.2128 -0.3135
31475W        W46606  18.292  15.366  14.140  0.0431  0.3095 -0.0330
31476W        W46607  16.319   2.438  12.077  0.1904  0.0793 -0.0872
31477W        W46608  15.368  14.240  13.559  0.0650 -0.2599 -0.0617
31478W        W46609   4.138   7.032   0.184 -0.1796 -0.0000 -0.1149
31479W        W46610   9.198  18.316  11.987 -0.2756 -0.2465  0.0679
31480W        W46611  14.908   7.564   2.337  0.1337  0.0977  0.0387
31481W        W46612  11.920   6.743   4.980 -0.1210 -0.1334 -0.0311
31482W        W46613   7.679  17.778  10.737 -0.1842 -0.1063  0.1493
31483W        W46614  14.513   9.390  15.126 -0.0084  0.1222 -0.3302
31484W        W46615   5.059   4.170   3.685 -0.5084  0.2275 -0.2297
31485W        W46616   6.651  10.985   9.694  0.1005  0.1342 -0.2538
31486W        W46617  16.013   6.517   2.992 -0.1935 -0.0442 -0.1477
31487W        W46618   6.679  10.296   3.724 -0.0262 -0.1330  0.1511
31488W        W46619   3.058  12.087  12.268  0.0831 -0.4279 -0.0351
31489W        W46620  12.688  12.224   1.469 -0.0597 -0.1598 -0.2567
31490W        W46621  10.845   6.219   3.042  0.1871 -0.0300  0.2128
31491W        W46622  12.062  11.525   3.814 -0.0706 -0.2671 -0.0909
31492W        W46623   6.333  17.745   0.873 -0.0158 -0.0243  0.0653
31493W        W46624  10.727  13.804   1.524  0.1367  0.0753 -0.1427
31494W        W46625   2.286  16.168  13.141 -0.2782  0.1524 -0.1577
31495W        W46626   0.258  10.296  15.287  0.2109 -0.3744 -0.1150
31496W        W46627  14.126   8.698   5.339 -0.0486 -0.1139 -0.4770
31497W        W46628   7.884   9.087  10.913  0.0750 -0.2279  0.0633
31498W        W46629   6.150   0.817   0.233  0.0233 -0.1095  0.3419
31499W        W46630   9.600   6.745  14.749  0.0616 -0.0668 -0.1022
31500W        W46631   5.368   8.750   5.770  0.3233 -0.2348  0.0787
31501W        W46632  13.260   7.265   1.879  0.2036 -0.1497 -0.1500
31502W        W46633   9.178  11.353   4.133  0.1038  0.2028  0.3604
31503W        W46634   2.260   0.460  11.699 -0.2557  0.0653 -0.2594
31504W        W46635  18.151  14.502  13.844  0.0185 -0.0492 -0.0943
31505W        W46636   9.316  15.749  12.958  0.0402 -0.0987 -0.3877
31506W        W46637  15.658  17.181   6.157 -0.2397  0.0409 -0.1285
31507W        W46638   1.591  12.645  13.141  0.0721 -0.0580  0.1609
31508W        W46639   1.596   1.817   5.060 -0.0538 -0.2103  0.2199
31509W        W46640   3.902  12.644   1.735  0.2988 -0.1613  0.0832
31510W        W46641  16.962  12.311   0.866  0.1789  0.2066  0.0013
31511W        W46642  13.313   0.185  15.688 -0.1406 -0.0214  0.0569
31512W        W46643   0.612   4.083   4.462 -0.2896 -0.1437 -0.2044
31513W        W46644  12.896  16.522  15.355 -0.3128  0.0850 -0.1374
31514W        W46645  18.243   5.552   1.731 -0.0309 -0.0987 -0.2101
31515W        W46646  15.811  17.961   3.892  0.3181  0.0742 -0.0391
31516W        W46647   5.624   2.140   5.807 -0.1871  0.2411 -0.0918
31517W        W46648   9.118  12.305   0.137  0.3673 -0.1715  0.3331
31518W        W46649  15.829   3.067   1.697 -0.1575  0.0696 -0.2486
31519W        W46650  14.196   6.919   4.042  0.2680  0.1776 -0.2183
31520W        W46651  12.133  14.114   5.156 -0.1437  0.0819  0.2797
31521W        W46652   8.940  16.803  13.778  0.1129  0.1777 -0.2577
31522W        W46653   6.796   6.131  13.360 -0.2947 -0.0223  0.1966
31523W        W46654   5.243   4.942  15.026 -0.0064 -0.2432 -0.0809
31524W        W46655   4.481   0.861   4.471  0.2187  0.0138 -0.1849
31525W        W46656  15.968   4.720   5.775 -0.2416  0.2059  0.2077
31526W        W46657   4.042  13.514   4.468 -0.1720  0.3840 -0.0988
31527W        W46658  17.815  12.754  12.477  0.2983 -0.4073 -0.1282
31528W        W46659  16.146   7.900  12.109  0.0885  0.2656  0.1105
31529W        W46660  15.806   3.701  13.210 -0.0916  0.0044 -0.1826
31530W        W46661   2.898  13.697  15.040  0.0165 -0.2449 -0.1565
31531W        W46662  14.278   3.434   2.264 -0.5319  0.0424  0.1968
31532W        W46663  11.567  10.219  12.501  0.0337 -0.1265 -0.0291
31533W        W46664   6.701   8.275   4.149  0.1652  0.0566 -0.0513
31534W        W46665  17.140  11.570   4.568  0.0647 -0.3125 -0.0267
31535W        W46666  14.775  13.126   5.201  0.2118 -0.1260 -0.1699
31536W        W46667   4.697   0.215   1.583 -0.0196 -0.1840 -0.0845
31537W        W46668   5.301  10.296   5.536  0.0581  0.2693 -0.1421
31538W        W46669   2.810  12.037   5.897  0.0288  0.1751 -0.0041
31539W        W46670   6.180   2.312  15.071  0.0623 -0.1086  0.0060
31540W        W46671  15.390   4.011  13.403 -0.4462 -0.0270 -0.2657
31541W        W46672   3.062   4.979   6.418  0.2020  0.1314 -0.1316
31542W        W46673  15.295  15.718   3.648 -0.0539  0.3549 -0.2644
31543W        W46674   1.261  16.859   0.366 -0.1944 -0.4536 -0.1350
31544W        W46675  13.347  16.056   3.474 -0.1644  0.1781  0.1981
31545W        W46676   1.473  17.945   2.022  0.0540 -0.1840 -0.0995
31546W        W46677  14.845   0.647  14.380 -0.1630  0.3200 -0.2058
31547W        W46678   8.218  12.183  11.347  0.0114 -0.0155  0.0995
31548W        W46679  11.586   5.865   0.470  0.0126  0.4265  0.1033
31549W        W46680   5.112  17.120   1.851 -0.1105 -0.1552 -0.0202
31550W        W46681  18.503   2.932   4.926  0.2336  0.0108 -0.3348
31551W        W46682   1.247   0.336  15.730  0.1134 -0.1580 -0.1979
31552W        W46683  13.865   1.161  13.626 -0.3170 -0.1719 -0.1398
31553W        W46684   1.355  16.753   2.063  0.2179  0.1720 -0.1017
31554W        W46685  17.797  14.522  13.420 -0.1606 -0.0393  0.3521
31555W        W46686   6.117   4.954  15.613  0.3893  0.0329 -0.2067
31556W        W46687   2.924   6.181  13.675 -0.2004 -0.1246  0.0049
31557W        W46688  13.608  15.366  13.107 -0.1422 -0.1059 -0.0270
31558W        W46689   8.178   3.746   3.174 -0.0321 -0.2275  0.1158
31559W        W46690   0.111   7.969   0.734 -0.1677 -0.2398 -0.3592
31560W        W46691   5.367   3.175  15.912  0.0517 -0.0423 -0.0840
31561W        W46692  11.363   4.174   5.430 -0.3966 -0.0456  0.0656
31562W        W46693   1.120  10.707   0.047  0.0128 -0.2581 -0.0720
31563W        W46694   5.872   1.859   2.894 -0.2592 -0.1202 -0.0088
31564W        W46695  13.393   2.113  11.346  0.1381 -0.2656 -0.1454
31565W        W46696  13.625   8.734  14.374 -0.1064 -0.3594 -0.0043
31566W        W46697   4.841  17.473  10.805 -0.5109  0.2315  0.5055
31567W        W46698   2.463   3.207   4.299 -0.0065 -0.1100 -0.4899
31568W        W46699  11.311   4.460  15.221 -0.2265 -0.0781 -0.1590
31569W        W46700  12.681  16.712  10.411 -0.0285  0.0009 -0.0103
31570W        W46701  17.194   5.844   3.544 -0.1250 -0.0755 -0.0160
31571W        W46702   8.557  13.199  10.328 -0.2798 -0.2994 -0.1163
31572W        W46703   1.214   8.609  13.453  0.1442 -0.0812  0.3186
31573W        W46704  11.953  16.102  12.535  0.3119  0.0615 -0.1987
31574W        W46705   6.567   9.832  11.529 -0.0888 -0.0525 -0.1068
31575W        W46706   4.802   5.221  10.901  0.1306 -0.0300  0.2372
31576W        W46707   6.701   4.725  14.322 -0.1479 -0.0346  0.2078
31577W        W46708   0.669  16.572  15.004 -0.0564  0.1156 -0.3099
31578W        W46709  13.926  13.086  10.861 -0.0705  0.0952 -0.1943
31579W        W46710  15.237   1.635   2.840 -0.1395  0.0616  0.6984
31580W        W46711   2.702   0.010   3.669  0.1967  0.0386  0.1911
31581W        W46712   7.094   1.839  14.058  0.1005  0.0155  0.0419
31582W        W46713  18.302  12.575  12.588 -0.3246  0.0660  0.1581
31583W        W46714   8.388  11.636   2.878  0.0247 -0.2419  0.2051
31584W        W46715  10.028  13.797  10.948  0.1959  0.2102 -0.2728
31585W        W46716  10.160   0.239  14.777 -0.0406  0.0222 -0.1668
31586W        W46717   2.359   4.357   5.130 -0.3396  0.0548 -0.3939
31587W        W46718  10.627   5.270   2.235 -0.1538 -0.0935  0.1341
31588W        W46719   8.726  14.149  15.089  0.0268  0.1519 -0.1148
31589W        W46720   9.634   0.334  11.531  0.1788  0.0980  0.1897
31590W        W46721  12.609   1.502   5.068 -0.1166  0.0299  0.2169
31591W        W46722   1.445  11.967  15.346 -0.0927  0.4495 -0.0294
31592W        W46723   7.644   0.042   3.878 -0.0406  0.4086  0.1612
31593W        W46724   2.215  12.054  12.077 -0.1622  0.1993  0.1420
31594W        W46725   6.513  13.004  11.756 -0.2111  0.0042 -0.1515
31595W        W46726  17.851   4.442   4.475  0.3043 -0.1718 -0.0842
31596W        W46727  16.294   0.681  14.421 -0.1830  0.1033 -0.2538
31597W        W46728  12.544   4.762   5.112 -0.3877  0.3429 -0.2078
31598W        W46729  12.438   3.599  14.123  0.2750 -0.2115  0.0240
31599W        W46730  10.315  12.979   2.437 -0.1701 -0.1476  0.0573
31600W        W46731   3.834   0.197  12.306 -0.2804 -0.1436 -0.2268
31601W        W46732   7.083   7.729  15.825  0.1261 -0.1010  0.0363
31602W        W46733  16.970   1.734   3.848  0.4066  0.0776 -0.1959
31603W        W46734  10.103   2.224  14.718 -0.1739  0.0788  0.0632
31604W        W46735   7.193   2.520   1.802 -0.3647 -0.1755 -0.2326
31605W        W46736  14.462   2.870  11.789 -0.2202  0.0445  0.2530
31606W        W46737  14.668   2.150   2.444 -0.1699  0.1371 -0.1333
31607W        W46738   0.132   1.879   0.638  0.1606 -0.4575 -0.0800
31608W        W46739   4.123  10.319   1.314 -0.1349 -0.0181  0.1282
31609W        W46740   4.995   6.420  13.456  0.1079  0.1589  0.1454
31610W        W46741  11.509   3.896   1.445  0.0537  0.0966 -0.3666
31611W        W46742   0.650   3.843   3.537  0.2852  0.0307  0.2196
31612W        W46743  14.552   4.927   3.742 -0.1113  0.2092 -0.1186
31613W        W46744  12.822   6.912   2.534  0.0490  0.1923  0.0702
31614W        W46745   9.612   8.942  14.755  0.2220 -0.1131 -0.0073
31615W        W46746  16.502  13.828  13.831 -0.0213  0.0727  0.0392
31616W        W46747  14.062  18.440  11.905 -0.2764 -0.3448  0.1636
31617W        W46748  10.229   8.469   0.027 -0.1206  0.1935 -0.0506
31618W        W46749   3.584  11.661  12.712 -0.2313 -0.1132 -0.0482
31619W        W46750   3.801  17.544  12.207 -0.5816 -0.0349 -0.2866
31620W        W46751   8.021  17.543   1.256 -0.1334  0.0215  0.0213
31621W        W46752   6.743   5.985  11.414  0.0594  0.2462  0.2761
31622W        W46753   7.964  15.407  12.750  0.2250 -0.0113 -0.0811
31623W        W46754  11.110  10.441  11.115  0.1110 -0.2911  0.2154
31624W        W46755   7.782   1.091  13.064 -0.2659 -0.0684  0.3483
31625W        W46756   1.182  15.146   3.773 -0.2559  0.1771 -0.1316
31626W        W46757  11.710   3.073   1.444 -0.1354  0.1686  0.0602
31627W        W46758   8.569  12.556   3.472 -0.1774 -0.0094  0.0044
31628W        W46759   4.177   3.687   5.440  0.2071  0.1967 -0.2001
31629W        W46760   3.983  12.498   1.173 -0.2071  0.2306  0.0581
31630W        W46761  13.093  18.447  13.304 -0.1046  0.2092  0.1230
31631W        W46762   9.749   1.814  13.966  0.0637 -0.0243 -0.4301
31632W        W46763  11.257   1.507  11.998  0.1059 -0.2595  0.0047
31633W        W46764   6.086  14.825   3.775 -0.2540 -0.2152 -0.1097
31634W        W46765   5.606  11.211   3.597 -0.0171  0.2033 -0.2362
31635W        W46766  10.885   2.638   2.005 -0.0071  0.4858 -0.1993
31636W        W46767   6.426  18.117   1.309 -0.1858 -0.1948  0.1632
31637W        W46768  15.236   4.781  14.858 -0.0967  0.1363 -0.2377
31638W        W46769   2.104   2.296  13.913 -0.2044 -0.0199  0.0498
31639W        W46770  14.229   2.233  14.747 -0.1697 -0.0431 -0.1444
31640W        W46771  18.136   6.025  14.383  0.5907 -0.0052  0.2282
31641W        W46772   1.093   5.817   4.033 -0.1315 -0.1364 -0.3601
31642W        W46773   3.733  16.489   4.943  0.0672 -0.1473  0.3044
31643W        W46774  18.362   7.489   0.984 -0.1145  0.1601  0.0498
31644W        W46775   0.296   3.044   5.843  0.1606 -0.0759 -0.1564
31645W        W46776  16.003  10.300  10.213  0.0412  0.0298 -0.1612
31646W        W46777  17.397  12.902   2.118 -0.3502  0.0626  0.1021
31647W        W46778   6.580  11.211   0.286 -0.0029 -0.2124  0.1063
31648W        W46779   6.119   6.865   4.065 -0.2731  0.6113  0.1327
31649W        W46780   9.559   4.995   5.098 -0.1014 -0.1153  0.1102
31650W        W46781   8.567   3.274  15.586  0.1530  0.3580  0.1880
31651W        W46782   0.454   5.781  13.812 -0.0345 -0.0686 -0.1196
31652W        W46783   7.631   9.315  14.349 -0.1986  0.1618 -0.1211
31653W        W46784   5.111  14.975  13.107  0.2211 -0.0793 -0.1252
31654W        W46785   3.385  18.002  10.072  0.1842  0.2591  0.0286
31655W        W46786  15.478   2.553  12.788 -0.1737 -0.2230  0.1935
31656W        W46787   7.544   3.930  12.210 -0.2934 -0.3121  0.0214
31657W        W46788  18.218  14.460  14.404 -0.1421  0.2265  0.0747
31658W        W46789   6.235  15.587   4.262  0.1220 -0.0687  0.0044
31659W        W46790  11.537  13.800   1.938 -0.2952 -0.3752 -0.0567
31660W        W46791   0.324   2.694  13.519 -0.1480  0.2598 -0.0198
31661W        W46792  14.460  10.348   3.448 -0.5399  0.2031 -0.0488
31662W        W46793  14.650  17.947  13.671  0.0626  0.0952  0.2042
31663W        W46794   0.054  10.161  12.542  0.0178 -0.0443 -0.0893
31664W        W46795   0.534   4.418   2.026  0.1699 -0.0012 -0.3610
31665W        W46796  16.949   0.395   2.100  0.3185 -0.3552 -0.3237
31666W        W46797  12.847   1.808  14.979 -0.0443  0.2502  0.0520
31667W        W46798  15.816  16.627   4.585 -0.0024 -0.0647 -0.0084
31668W        W46799   3.045  14.499  10.246  0.0701 -0.2053  0.0264
31669W        W46800   0.488  14.993  12.903 -0.0520 -0.0503 -0.4833
31670W        W46801   3.149   0.898   5.006  0.2925 -0.1016  0.3326
31671W        W46802  10.698   2.626   0.967 -0.0157 -0.1109 -0.0794
31672W        W46803   0.956  12.995  14.833 -0.2488 -0.0979  0.0224
31673W        W46804   5.192   1.997  11.078 -0.0752  0.1262 -0.1052
31674W        W46805   6.645   1.031   0.253 -0.0277 -0.0580 -0.0110
31675W        W46806   9.755   5.256  11.512  0.1355 -0.0401  0.1853
31676W        W46807   0.649  17.435  11.166  0.0098 -0.0154  0.0616
31677W        W46808   7.322  16.406  15.289 -0.0416  0.1439  0.0129
31678W        W46809   5.635  18.014   4.815 -0.1454  0.1478  0.2135
31679W        W46810   4.665  17.354  11.608 -0.3826 -0.0204 -0.2840
31680W        W46811   9.530  11.995   4.164  0.0208 -0.2638  0.2619
31681W        W46812   1.049  18.319   1.477 -0.0410 -0.1383 -0.0067
31682W        W46813   7.775   3.730  15.831  0.1161 -0.0880 -0.0144
31683W        W46814   6.808   2.546   3.301  0.0774 -0.1069  0.1523
31684W        W46815   9.891  16.258  11.593 -0.0959  0.1470  0.1908
31685W        W46816   7.555  13.473  10.497  0.2285  0.0930  0.4856
31686W        W46817  16.038  17.890  12.222  0.1197  0.3484 -0.1242
31687W        W46818  12.200  15.748   1.691 -0.1658  0.2540  0.0409
31688W        W46819   6.623  14.161   1.324  0.2978 -0.1074  0.0548
31689W        W46820  14.163  14.781  11.494 -0.0909  0.0393  0.0749
31690W        W46821  14.934  17.576   2.112 -0.2119  0.5310 -0.0457
31691W        W46822  12.328  14.053   2.794  0.1100 -0.0307  0.2924
31692W        W46823  10.619  12.791   4.354  0.3387  0.3028 -0.1862
31693W        W46824  12.633   0.812  13.241 -0.2102 -0.1493  0.0081
31694W        W46825  14.419   4.021   2.227  0.0915 -0.0179  0.1946
31695W        W46826  16.352   9.603   3.538 -0.0467  0.2383 -0.0116
31696W        W46827  16.361   5.548  11.086 -0.2512 -0.0767 -0.0968
31697W        W46828  14.442  16.867   0.736  0.2511 -0.1411  0.1507
31698W        W46829  13.945  12.055  11.033 -0.1167  0.0274 -0.1368
31699W        W46830  16.911  13.224   5.356  0.2027  0.3126  0.0104
31700W        W46831  10.072  14.547  10.324  0.1535 -0.2233  0.0474
31701W        W46832  14.682   0.371   4.437 -0.0888  0.0659  0.0771
31702W        W46833  17.908   7.725   5.719  0.1420  0.0849  0.2936
31703W        W46834  10.449  11.164   0.713  0.1905 -0.1523  0.1649
31704W        W46835  16.363  10.905  15.757  0.1751 -0.4922  0.0739
31705W        W46836   8.456  18.504  12.640 -0.1151  0.5365  0.0130
31706W        W46837   5.004   8.348  13.321  0.1693 -0.0693  0.1031
31707W        W46838  18.219  10.869   3.711 -0.1039 -0.2455  0.4018
31708W        W46839   3.356   7.590   1.760 -0.0497  0.0533  0.2007
31709W        W46840   1.881   0.754  11.631 -0.1377  0.0093  0.0775
31710W        W46841   9.891   7.350   4.028  0.1681 -0.0887  0.0504
31711W        W46842  10.531   0.071  10.695 -0.0131 -0.2645 -0.2737
31712W        W46843   4.250  16.757  13.917 -0.1374  0.4242  0.0343
31713W        W46844  12.127   2.879   1.587 -0.1294 -0.0894 -0.1244
31714W        W46845  16.967  13.169   3.106 -0.0165 -0.0384  0.0841
31715W        W46846   0.814  13.852  12.403 -0.0988  0.0481 -0.2149
31716W        W46847   2.539   9.872   2.953 -0.1255 -0.1180  0.0602
31717W        W46848   0.234  17.944   1.528  0.0760 -0.0523 -0.1926
31718W        W46849  10.501   7.981  11.100  0.0992  0.1322 -0.2834
31719W        W46850  14.456   6.684  11.026  0.2130 -0.2294  0.2403
31720W        W46851   1.214   6.130  10.176  0.1098 -0.1308 -0.3490
31721W        W46852  14.124   2.850  14.092  0.1800  0.2828 -0.0699
31722W        W46853  13.658   2.307  11.774 -0.0009  0.2176 -0.1252
31723W        W46854   4.023  10.958  12.861  0.1099  0.2833 -0.2437
31724W        W46855  17.932   7.356   2.333  0.3858  0.0139 -0.0537
31725W        W46856   5.517   2.379   2.847  0.0080 -0.0683 -0.2553
31726W        W46857  13.696   1.254   2.127  0.1884  0.3567 -0.1150
31727W        W46858  12.149  13.618  12.006  0.0254 -0.0609 -0.1024
31728W        W46859   5.748  14.470  14.099  0.1757 -0.0681 -0.0287
31729W        W46860  17.272   4.816  13.870  0.2193 -0.3869  0.1603
31730W        W46861   4.012   4.110   5.700 -0.2462 -0.0068  0.0905
31731W        W46862  10.767   6.077  11.616 -0.0186 -0.0062  0.3084
31732W        W46863  17.259   1.156   1.556 -0.3788 -0.0909  0.1275
31733W        W46864  10.701   8.749   0.509  0.0936 -0.0795 -0.3518
31734W        W46865   2.862  15.194  11.342  0.0118 -0.3284 -0.2923
31735W        W46866  16.887   1.827  12.026 -0.0074  0.1425 -0.2646
31736W        W46867   4.571   6.056  15.859  0.2739 -0.0021  0.0205
31737W        W46868   9.870  16.983  12.643  0.2215  0.0005  0.1449
31738W        W46869   2.528   3.739   1.671  0.1096  0.1409 -0.0685
31739W        W46870  11.349  10.629   1.372  0.1510 -0.4124  0.1520
31740W        W46871  16.321   8.791   6.055  0.1388  0.0849 -0.0083
31741W        W46872  12.091   2.981  11.644 -0.5408 -0.0665  0.1544
31742W        W46873   3.839  16.733  12.608 -0.0293 -0.1697 -0.2998
31743W        W46874  10.908  17.819   4.677 -0.5214 -0.1293  0.0294
31744W        W46875  16.109  13.493  14.065 -0.0956  0.1576  0.0299
31745W        W46876   1.299   5.172  10.117  0.2257 -0.1577 -0.1285
31746W        W46877  17.142   5.997   5.831 -0.0016  0.0159  0.2365
31747W        W46878  15.482   4.562  11.803  0.4128 -0.0900  0.2834
31748W        W46879  18.193   5.742   2.378  0.1063  0.2312 -0.6034
31749W        W46880   4.663  13.545  10.766 -0.1974 -0.1490 -0.0510
31750W        W46881  10.607  10.176  12.553 -0.2375 -0.2216 -0.0755
31751W        W46882   2.869   1.603  12.320 -0.3257  0.1381 -0.3006
31752W        W46883   7.681  14.924  12.654  0.2015 -0.0935 -0.1513
31753W        W46884  15.267  10.585   2.899 -0.3959  0.4358 -0.0238
31754W        W46885   5.294   2.499   2.076  0.2334 -0.0770 -0.0201
31755W        W46886   6.475   7.052  10.923 -0.1337  0.1547  0.0011
31756W        W46887   9.832   5.767  12.929  0.0476  0.0520  0.2089
31757W        W46888  17.183   0.931  12.805 -0.0233 -0.0750  0.0686
31758W        W46889   1.356   8.033  14.855  0.1660  0.3162  0.0581
31759W        W46890   7.774   7.031   3.734 -0.0473 -0.3124  0.1772
31760W        W46891   5.452  17.116   5.402 -0.1619 -0.1710 -0.2196
31761W        W46892  14.161  14.589  15.649  0.1561 -0.1688  0.1471
31762W        W46893  18.322  12.239  11.020  0.1833 -0.2162 -0.0637
31763W        W46894  10.710  13.318   9.313  0.1304  0.1086  0.2928
31764W        W46895   8.566  12.970  12.633  0.2402 -0.2093  0.1112
31765W        W46896   8.868   4.138  11.274 -0.0051  0.0855 -0.3578
31766W        W46897   6.591   9.059   5.543  0.1369 -0.1289 -0.3900
31767W        W46898  10.606  10.612  14.910  0.0273  0.0214  0.1070
31768W        W46899   9.816  18.251   0.014  0.2373  0.0699  0.0642
31769W        W46900  18.461   4.182  10.472  0.1930 -0.0981 -0.2233
31770W        W46901  15.767  10.303  14.508  0.2004 -0.2296 -0.2410
31771W        W46902   8.428   7.323  10.314 -0.0057 -0.1045  0.0229
31772W        W46903   7.210  10.569   4.514  0.0065 -0.2214 -0.1845
31773W        W46904  13.343  15.299   2.636 -0.0558 -0.0678 -0.0164
31774W        W46905  17.754   8.215   4.234 -0.1314  0.0466 -0.0049
31775W        W46906   7.618   9.017  14.863 -0.0840 -0.1693 -0.2854
31776W        W46907  17.154   9.008  14.736  0.0122  0.0448 -0.1129
31777W        W46908   9.228   0.390   2.353 -0.1173  0.3186  0.1640
31778W        W46909  18.153  11.417   3.615  0.1887 -0.0929  0.0553
31779W        W46910   3.000   0.663   5.459 -0.2685  0.0867  0.1166
31780W        W46911  12.489  12.613  14.376 -0.1613  0.1267 -0.0553
31781W        W46912  17.783   9.434   3.031  0.0821 -0.2220  0.1159
31782W        W46913   1.747  14.320   0.357 -0.3479 -0.1253  0.0019
31783W        W46914   3.683  11.568   4.163 -0.0686 -0.1857  0.1721
31784W        W46915  11.965   9.849  11.681 -0.1323 -0.2343 -0.0042
31785W        W46916  15.910  14.185   1.054  0.0613 -0.0695  0.0609
31786W        W46917   3.742  16.259   4.512  0.4743 -0.0926  0.2749
31787W        W46918  10.366  11.576  11.289  0.0640  0.1002  0.2852
31788W        W46919   9.142  17.226   4.026 -0.1367  0.5342  0.0996
31789W        W46920   9.272   2.654   3.557  0.0454 -0.3172 -0.0867
31790W        W46921   4.444  12.448  11.723  0.2781  0.1783 -0.1320
31791W        W46922   6.155  13.835  15.443 -0.0999 -0.4429  0.1790
31792W        W46923   8.559   7.291   4.653  0.1866  0.4657 -0.3644
31793W        W46924   0.702  17.073   1.395  0.0228  0.1410 -0.2564
31794W        W46925   5.517   5.244   5.961  0.0087 -0.2548 -0.0084
31795W        W46926   5.510   7.989   0.168  0.2321  0.1177  0.0767
31796W        W46927   6.666  14.191   3.873  0.0818  0.1485  0.1259
31797W        W46928  12.851  12.660  11.737  0.1624  0.1744  0.1836
31798W        W46929   5.448  13.373  13.615  0.4717 -0.1452 -0.0819
31799W        W46930  16.240  10.686  15.233  0.2720  0.1192  0.2082
31800W        W46931   4.759   9.717   4.071 -0.1175  0.0816 -0.1158
31801W        W46932  11.535  15.360   0.793  0.4467  0.0640  0.2112
31802W        W46933   6.195   7.311   4.226  0.0171 -0.1360 -0.0030
31803W        W46934   3.852   3.289   2.475  0.1046 -0.1199  0.0192
31804W        W46935   5.573   3.550  12.937 -0.1078 -0.0534  0.2681
31805W        W46936   6.826   0.520   1.374 -0.0047 -0.0074  0.4879
31806W        W46937   4.265  15.143  14.819  0.1880  0.2582  0.0091
31807W        W46938  15.962   6.793   2.095  0.2352 -0.3335  0.0984
31808W        W46939   4.407   9.502  14.221  0.1344 -0.1587 -0.2150
31809W        W46940  13.504   8.893  11.916 -0.5268 -0.3086  0.0538
31810W        W46941   0.349  13.823  14.897 -0.0734 -0.1265  0.0928
31811W        W46942   1.329  13.067  13.042 -0.0331 -0.1541 -0.0679
31812W        W46943   0.233  11.549  10.163 -0.0844  0.6017 -0.1147
31813W        W46944   1.240   9.294  12.686  0.1165  0.2371  0.0771
31814W        W46945   9.351   2.769  11.098  0.1121 -0.0033  0.0675
31815W        W46946   6.529   6.392  15.002  0.0739 -0.0668 -0.0491
31816W        W46947  17.824  18.375  12.817 -0.0960 -0.0237  0.0114
31817W        W46948   2.760   1.126  12.066 -0.0928 -0.0181  0.1238
31818W        W46949   3.175  12.249  14.733  0.0785 -0.0279 -0.1191
31819W        W46950  13.876  10.024   4.128 -0.2350 -0.2397  0.2070
31820W        W46951  14.490  14.491   3.738  0.1149 -0.0238  0.3103
31821W        W46952  10.105   8.963   2.954  0.0126  0.2667 -0.2808
31822W        W46953  15.115  13.702   0.682 -0.1062 -0.0676  0.0706
31823W        W46954  10.718  10.457  15.943 -0.1522  0.1513  0.1226
31824W        W46955  16.338   0.982   1.474  0.1363 -0.1271  0.0319
31825W        W46956   8.643  11.207   5.008 -0.0857  0.0589 -0.1528
31826W        W46957  18.486  11.779  15.513 -0.0133 -0.2865 -0.0513
31827W        W46958  13.302  12.431  10.285 -0.2258 -0.1113 -0.2684
31828W        W46959   0.588   2.193  11.483  0.0113 -0.0771  0.2921
31829W        W46960   6.640  11.421   4.014  0.0735 -0.0104  0.1488
31830W        W46961  11.239  13.684  13.872 -0.0685  0.4749  0.3368
31831W        W46962   1.755   9.563   1.176 -0.2681 -0.4717  0.0785
31832W        W46963  17.785  11.885  12.740  0.0697 -0.0450  0.0687
31833W        W46964  16.197  13.794  15.604  0.4263  0.3204  0.0479
31834W        W46965  16.796  16.262  11.702 -0.2631 -0.2008  0.0424
31835W        W46966   0.822  18.260   4.996 -0.1023 -0.1135  0.0456
31836W        W46967   2.900   9.721   1.041 -0.0642  0.1662  0.0107
31837W        W46968   1.829   0.755  13.729 -0.0256 -0.3415 -0.2358
31838W        W46969  14.311  14.971   2.486  0.1593 -0.4364 -0.3545
31839W        W46970  11.439  17.473   4.627 -0.2756 -0.1461 -0.0158
31840W        W46971  14.944  16.119  12.563  0.0338  0.0602  0.0542
31841W        W46972  10.428  18.478  12.504  0.0293 -0.2794  0.1475
31842W        W46973   0.894  11.592   5.698 -0.0463  0.2194 -0.1789
31843W        W46974   8.713  10.238  12.672 -0.2370 -0.2093 -0.0492
31844W        W46975   4.719   3.992  12.593 -0.3274 -0.0882  0.2365
31845W        W46976  10.514   0.044  11.298 -0.0179 -0.0424  0.0214
31846W        W46977  13.442  15.190   0.761  0.1200  0.0544 -0.2347
31847W        W46978   1.096   4.158   3.108 -0.1125  0.0331  0.1184
31848W        W46979   9.155  16.724   5.107  0.1229  0.0970  0.0920
31849W        W46980  16.640   2.826   3.285 -0.2532  0.0543 -0.1494
31850W        W46981   5.701  12.934   2.350 -0.2883  0.0884 -0.0828
31851W        W46982   0.530  15.637  11.067  0.2134 -0.4481 -0.1886
31852W        W46983  10.689   0.151  11.761  0.1118 -0.2306  0.0039
31853W        W46984   4.818   2.517  13.533 -0.1559  0.2500 -0.0186
31854W        W46985  11.222   1.912  15.391 -0.0837  0.2588 -0.0186
31855W        W46986  15.110  13.184  14.377 -0.0567 -0.1246 -0.3081
31856W        W46987  13.133   4.175  14.376 -0.2051 -0.1443  0.2405
31857W        W46988  13.696   0.380   0.732 -0.2396  0.2447 -0.0715
31858W        W46989  11.209  14.302   0.643  0.0854 -0.1700  0.1308
31859W        W46990   6.129  12.668   1.739 -0.2522 -0.2166  0.3796
31860W        W46991  17.382  18.559  13.763  0.0441 -0.0341  0.0526
31861W        W46992   6.179  16.621  10.732  0.1754 -0.3757 -0.1250
31862W        W46993   7.280  15.423   3.910 -0.0858  0.1547  0.0222
31863W        W46994  16.943   7.897  13.610  0.0272  0.1296  0.2662
31864W        W46995   8.793   7.448   0.741 -0.1905  0.1327  0.0959
31865W        W46996  13.452   7.293  13.193 -0.3167 -0.0908 -0.0325
31866W        W46997   8.925  11.880   4.764 -0.0163 -0.3007  0.1231
31867W        W46998  15.041  16.631   1.048  0.0243 -0.0728 -0.0902
31868W        W46999  17.857  14.826  10.173 -0.1842  0.0711 -0.0017
31869W        W47000   9.353   7.400   4.058 -0.1868  0.0175 -0.2082
31870W        W47001   2.697   5.570   0.102  0.2537 -0.0890  0.0429
31871W        W47002   0.741  13.832   2.022  0.1923  0.0712  0.1596
31872W        W47003   3.245   8.034   2.047 -0.2597  0.0520  0.5413
31873W        W47004   0.281   4.223  15.664  0.3590  0.3485 -0.2517
31874W        W47005  10.329   6.373  11.466  0.3103  0.4902 -0.4724
31875W        W47006  15.884  10.137  11.552 -0.0245 -0.2707 -0.0750
31876W        W47007   5.344  14.669   1.743  0.2337  0.2501 -0.0427
31877W        W47008  11.936  13.696  12.447 -0.1608  0.1581 -0.1822
31878W        W47009  15.608  14.200   2.465 -0.1133  0.3757 -0.0549
31879W        W47010  11.276   9.756   1.334  0.2517  0.2417 -0.2053
31880W        W47011  16.604   1.641   1.427  0.0221 -0.3610 -0.3331
31881W        W47012   3.722  16.871  13.747  0.1471 -0.1716  0.0215
31882W        W47013   8.825   6.295  14.378  0.1157  0.0569  0.1595
31883W        W47014  11.755   0.015  14.589  0.0904  0.0533 -0.1330
31884W        W47015   5.212   7.930  11.994  0.3597 -0.1662  0.1615
31885W        W47016   9.453   4.548   0.707 -0.2565 -0.0173 -0.3521
31886W        W47017  14.355  10.434   2.968 -0.3069 -0.2047 -0.4212
31887W        W47018   9.081  10.139  15.005 -0.2053  0.0530  0.4002
31888W        W47019   6.489   9.702   2.963  0.0196  0.1468  0.0519
31889W        W47020   0.856  17.376   3.733  0.4187 -0.1841 -0.1019
31890W        W47021  12.226   9.903   0.891 -0.3574  0.0062  0.0315
31891W        W47022   9.467   2.547   9.936 -0.1222 -0.3009  0.0351
31892W        W47023  12.292  15.848  15.127 -0.2844  0.0115 -0.0763
31893W        W47024  13.651   2.509  14.846 -0.1209 -0.1540  0.0673
31894W        W47025  13.318  16.055  12.019  0.3048  0.0979 -0.0831
31895W        W47026  13.615  15.590  10.745 -0.1662  0.0867 -0.0469
31896W        W47027  15.153  15.056   9.888  0.1573  0.0554  0.1129
31897W        W47028   1.589  13.503   1.755  0.0900 -0.4028 -0.5405
31898W        W47029   1.549   1.492   0.707  0.0419 -0.3588 -0.0213
31899W        W47030  10.589  14.358  13.750 -0.1148  0.0603 -0.1340
31900W        W47031   9.175   3.186   4.548 -0.1083 -0.2689  0.2633
31901W        W47032  10.523   7.628  13.075 -0.1241  0.1200  0.2399
31902W        W47033  14.887   0.213   5.703  0.1405  0.4645  0.2142
31903W        W47034   8.753   6.875   2.498 -0.0222  0.0431  0.2116
31904W        W47035  18.079  17.569   3.874  0.0990 -0.0417 -0.0019
31905W        W47036   1.511   0.619   1.516  0.0965 -0.1784  0.0004
31906W        W47037  12.956   4.663  15.661  0.1935 -0.2211  0.2838
31907W        W47038  14.481   8.397  13.215  0.4519  0.0746 -0.0164
31908W        W47039   0.673   4.902   1.022 -0.1922  0.1587 -0.1544
31909W        W47040   8.862   4.602  12.347 -0.2981 -0.2760 -0.2718
31910W        W47041   6.913   5.873  15.750  0.1461  0.2448 -0.2111
31911W        W47042  13.687   6.599  14.815  0.1305 -0.4895 -0.0557
31912W        W47043   0.526   9.478   0.662  0.2234 -0.1793 -0.0572
31913W        W47044   4.831   7.771  14.632 -0.1506 -0.0867 -0.1974
31914W        W47045   6.721  16.096   2.191 -0.2349  0.3634 -0.2071
31915W        W47046  16.954  10.953  12.305 -0.0142  0.0298  0.1444
31916W        W47047  14.925  14.288   1.371 -0.1132 -0.1435  0.0970
31917W        W47048  13.887   8.756   3.837  0.0559  0.0126  0.3690
31918W        W47049   7.257  12.303   4.280 -0.2243 -0.1866  0.0853
31919W        W47050  12.545   6.561  11.661  0.0278  0.3822 -0.3824
31920W        W47051   5.822   1.570   4.922 -0.0053 -0.4783  0.0416
31921W        W47052  14.016   1.161   2.583 -0.2820 -0.0257 -0.2046
31922W        W47053   9.849  18.208  13.123  0.0895 -0.1716 -0.1769
31923W        W47054   1.316  10.449  13.234  0.2205  0.0337 -0.2678
31924W        W47055   5.653  11.947  12.512  0.1637 -0.1024  0.0859
31925W        W47056   8.408   5.554  13.586 -0.1142 -0.0204  0.2140
31926W        W47057  12.916   6.828   1.331 -0.0314 -0.1247  0.0169
31927W        W47058  13.735  13.475   0.865 -0.4438  0.0706 -0.2065
31928W        W47059   9.984   1.165  15.121  0.2670  0.6289  0.2984
31929W        W47060  12.176   2.580  14.427 -0.1584 -0.0781  0.1891
31930W        W47061   5.933  12.534  14.927  0.1489 -0.2314  0.0089
31931W        W47062  12.488   6.575  13.840 -0.1236 -0.1612  0.0013
31932W        W47063   9.014  10.855  15.671  0.1399  0.0074 -0.1539
31933W        W47064   1.222   3.431   1.242 -0.1425  0.0195 -0.0410
31934W        W47065   2.696   8.383   0.519 -0.1852  0.0593  0.1121
31935W        W47066   9.647  11.619   4.998  0.2551  0.0911 -0.0837
31936W        W47067  15.182   7.556  14.072 -0.0340 -0.3286  0.1099
31937W        W47068   9.841   3.179   2.044 -0.2123  0.4017 -0.0665
31938W        W47069   6.237  10.739   4.776  0.3759 -0.0449 -0.0465
31939W        W47070   1.723  14.855   4.426 -0.0406  0.0818 -0.1259
31940W        W47071   0.609  12.003  13.224  0.0709  0.2030  0.3501
31941W        W47072  16.512  17.080   5.411 -0.1422  0.1753 -0.5198
31942W        W47073   1.418  18.077   9.721  0.2219 -0.1428 -0.0856
31943W        W47074   7.238   5.510  14.449  0.0616 -0.0077 -0.0283
31944W        W47075   7.694  17.172  14.442 -0.2304  0.0081  0.0599
31945W        W47076  12.336  12.385  13.290 -0.1042  0.1258 -0.3074
31946W        W47077  15.248   3.524   2.224  0.0770  0.0058  0.1530
31947W        W47078   4.546   8.849  12.506  0.3230 -0.0777  0.1024
31948W        W47079  13.946   8.483  13.515 -0.0078  0.1369  0.0328
31949W        W47080  11.035  15.523   3.642 -0.0737  0.2308 -0.0395
31950W        W47081   5.028  11.454   2.286  0.1393 -0.0973 -0.1995
31951W        W47082   4.033   3.403  12.035 -0.4149  0.1155  0.0694
31952W        W47083   1.349   1.408   4.852  0.0516 -0.1467 -0.3874
31953W        W47084   6.626   8.883  11.367 -0.0442 -0.1848  0.1646
31954W        W47085  18.043  10.736  14.212  0.2201 -0.2973  0.1846
31955W        W47086  11.674  15.695  15.363 -0.1445  0.1396 -0.0445
31956W        W47087  17.329   4.906   3.630 -0.2245 -0.3269  0.3221
31957W        W47088  16.639  18.117   4.733 -0.0231 -0.0836  0.0400
31958W        W47089   7.859  16.774   0.584  0.0544 -0.1782 -0.0427
31959W        W47090  16.700  14.957   1.809  0.1792  0.1406 -0.0850
31960W        W47091   9.984  14.127  13.241 -0.3384 -0.2890  0.0735
31961W        W47092  18.419   8.060   5.872 -0.0474  0.0351 -0.3951
31962W        W47093  15.554   9.810  11.396 -0.1107  0.0486 -0.1225
31963W        W47094  10.391  15.945  12.153  0.0208 -0.1940  0.2043
31964W        W47095  13.185   9.467   6.583  0.0316  0.0290  0.0182
31965W        W47096  16.206  15.064   3.473 -0.1623 -0.2703 -0.0595
31966W        W47097   8.723  13.357   9.794  0.0120 -0.1299  0.1544
31967W        W47098  12.564   6.967  13.496  0.0647  0.2639  0.1178
31968W        W47099  16.105  10.042   3.441  0.5071  0.4055 -0.2430
31969W        W47100   2.412  16.074   4.063  0.0647  0.1225  0.3122
31970W        W47101   4.023  11.025  11.444 -0.1932 -0.0993  0.1306
31971W        W47102   9.561   3.379   4.067  0.0214  0.0825 -0.0600
31972W        W47103  17.786  13.152   0.087  0.2236  0.0595 -0.1287
31973W        W47104   8.682   4.729  13.924  0.3618 -0.0668  0.0664
31974W        W47105  16.104   9.259  11.962  0.5645 -0.1057 -0.1152
31975W        W47106  12.637  17.189   0.628  0.0846 -0.0409  0.1223
31976W        W47107  11.373  10.353  12.023 -0.1611  0.0427 -0.1751
31977W        W47108  12.848   2.237   1.487  0.2514  0.1583 -0.0788
31978W        W47109  15.819  12.493  14.867  0.3363 -0.2471 -0.1399
31979W        W47110   2.394  12.768   3.326 -0.0851 -0.1360  0.0643
31980W        W47111   6.962  11.986  11.011  0.2405 -0.0334 -0.0057
31981W        W47112   7.720   8.238   3.120 -0.3410 -0.2598 -0.2819
31982W        W47113  18.339  10.271  13.314 -0.3177  0.2929  0.2847
31983W        W47114   9.930  16.023   1.446  0.0088 -0.0080 -0.3996
31984W        W47115  14.483  11.788  14.176 -0.1999  0.1370  0.0762
31985W        W47116   9.895  15.853   2.573 -0.0526 -0.0109  0.0253
31986W        W47117  16.801   4.137   3.864 -0.1260 -0.2243 -0.0922
31987W        W47118   1.261   1.896  14.048  0.1053 -0.1960  0.1196
31988W        W47119  16.801   5.871   0.427 -0.0893  0.1662 -0.1547
31989W        W47120  17.818   4.663   5.280  0.1481  0.0334  0.0864
31990W        W47121   1.545   4.918   1.272 -0.2810  0.0572 -0.0036
31991W        W47122  10.678   2.799  14.238 -0.1251 -0.2506 -0.0097
31992W        W47123   3.529  15.442   4.660 -0.0634  0.0610  0.0740
31993W        W47124  13.485  11.093  15.508 -0.1071  0.0016  0.2237
31994W        W47125   9.016  16.595   9.283  0.0272  0.0732 -0.1246
31995W        W47126   5.210   3.357   1.058  0.0110  0.1766  0.2331
31996W        W47127  16.020   1.979  13.977 -0.0306  0.0872  0.0781
31997W        W47128   7.554   8.421  15.047 -0.0706 -0.2324  0.0792
31998W        W47129   1.470  15.998   4.727 -0.1370 -0.0633  0.1477
31999W        W47130   5.396  18.078   3.039  0.0485  0.0204 -0.2016
32000W        W47131   5.822  16.210   2.179 -0.0074  0.2294 -0.1992
32001W        W47132   5.962  11.621  12.231  0.0124 -0.0380 -0.0389
32002W        W47133  16.262  12.717   3.655 -0.1439 -0.3130  0.2976
32003W        W47134   7.452   4.389  12.582 -0.3173 -0.0169  0.0493
32004W        W47135   6.141   9.152   3.436  0.0383 -0.1267  0.0408
32005W        W47136   0.110   2.818  11.478  0.0374  0.1714  0.6089
32006W        W47137  16.251   7.581  12.459  0.2182 -0.4083  0.0965
32007W        W47138  13.902   3.335  11.668  0.2082  0.0109  0.2082
32008W        W47139  14.183  16.493  10.964 -0.1597 -0.3004  0.1279
32009W        W47140  14.969  17.353  10.568  0.0885  0.3461 -0.0256
32010W        W47141  12.194  13.640  10.287 -0.1069  0.0929 -0.1375
32011W        W47142  11.981  16.300  15.056 -0.3160  0.1919  0.1164
32012W        W47143  15.237  10.571   3.537  0.0309 -0.1937  0.1728
32013W        W47144  12.080   6.854  13.751  0.3683 -0.1311  0.1763
32014W        W47145  15.543   4.602   4.692  0.0932 -0.4226 -0.1763
32015W        W47146  17.721  12.007  11.904 -0.0390 -0.3227 -0.0368
32016W        W47147  11.321   5.247   5.312  0.2569 -0.0909  0.1346
32017W        W47148   5.555  16.375  14.464  0.1699  0.1564  0.0059
32018W        W47149   9.409  13.673   3.462 -0.1647  0.0927  0.0502
32019W        W47150  10.072   4.827  13.958  0.2284  0.0956 -0.0798
32020W        W47151   0.284   9.287   0.234  0.1540 -0.0168 -0.1951
32021W        W47152  12.476   9.517   0.161  0.4783 -0.0406 -0.0782
32022W        W47153   4.377   1.792  14.163 -0.0942  0.1034  0.0460
32023W        W47154   9.804   5.935  13.612 -0.0277  0.0932 -0.1441
32024W        W47155  11.115  11.449  14.382 -0.0126  0.0090 -0.2598
32025W        W47156  16.247   5.462  13.405  0.3215  0.1108  0.1065
32026W        W47157   8.855  11.027  14.465  0.0666 -0.0058  0.0800
32027W        W47158  13.749   9.778  15.525  0.0506  0.0411  0.1104
32028W        W47159  11.152   3.408   4.244  0.1651 -0.0334 -0.0155
32029W        W47160   7.672   0.504   0.479 -0.1494  0.2365  0.3035
32030W        W47161   9.953   4.734   2.391  0.2541 -0.2402  0.2534
32031W        W47162  16.822   3.413   0.169 -0.1751 -0.0641  0.1296
32032W        W47163   3.519  13.631  12.854  0.1660  0.0967  0.2850
32033W        W47164   3.493  15.647   0.790 -0.2001 -0.3421  0.0639
32034W        W47165  13.466   1.785  15.824 -0.5253 -0.1111  0.2973
32035W        W47166  16.169  13.350  15.827 -0.2367 -0.0171  0.1227
32036W        W47167   0.646   0.262  13.227  0.2543 -0.0017 -0.1390
32037W        W47168   5.021  11.911   1.976 -0.0883  0.0378  0.3588
32038W        W47169  10.289   5.616   0.252  0.3966  0.0359 -0.3674
32039W        W47170   8.119  10.539   0.966  0.0200 -0.0921  0.0043
32040W        W47171   0.977  17.741   5.133 -0.0775  0.0064 -0.2210
32041W        W47172   1.040  15.387  14.737 -0.2407 -0.3757  0.3739
32042W        W47173  13.060   6.043  12.526  0.0706  0.2119  0.1628
32043W        W47174   2.692   8.414  12.087  0.2002  0.1280  0.1617
32044W        W47175   3.341   6.827   3.003 -0.0230  0.4738 -0.0665
32045W        W47176   3.692   3.148   4.893 -0.2880 -0.0512 -0.0608
32046W        W47177  11.305   1.139  10.378  0.1717 -0.1465 -0.1691
32047W        W47178  13.961   5.786  14.584  0.2680  0.2475  0.0620
32048W        W47179  10.584   9.503  14.728  0.1862  0.0280  0.1156
32049W        W47180  10.925   6.564  15.088 -0.5156  0.0649 -0.1373
32050W        W47181  15.160   5.858  13.054 -0.1140  0.1419  0.0789
32051W        W47182   8.786  12.768  13.460  0.0464  0.0700 -0.2309
32052W        W47183   9.283   7.549   0.539  0.2049  0.3549 -0.0194
32053W        W47184   4.450  17.259  12.042  0.2656 -0.1393  0.0807
32054W        W47185  17.407   5.543   5.150  0.1605 -0.0213 -0.0511
32055W        W47186  16.345   8.947  12.235 -0.2323 -0.0272  0.0752
32056W        W47187  11.821   2.125  14.183 -0.3670  0.2327  0.0473
32057W        W47188   8.671   6.139   1.811 -0.0888 -0.0035 -0.1407
32058W        W47189  15.334   0.964   2.741 -0.3244  0.0325 -0.2629
32059W        W47190  15.510  17.551  11.102 -0.1233  0.3300 -0.2557
32060W        W47191  11.878   3.209  15.076 -0.2871 -0.1523  0.1573
32061W        W47192   0.178   4.827   4.261  0.0181  0.1242  0.0950
32062W        W47193   2.446  17.568  12.368  0.1176 -0.3779 -0.1661
32063W        W47194   5.427   2.865  15.421  0.1485  0.0789 -0.0070
32064W        W47195  18.463   5.838   6.668  0.0619  0.3886  0.0430
32065W        W47196   3.126   3.704  12.321 -0.1067  0.0311 -0.2144
32066W        W47197  11.623   7.304   3.196 -0.2941  0.1410  0.1154
32067W        W47198  13.697  13.721   5.726  0.2414 -0.3126 -0.1186
32068W        W47199  16.813   4.731   5.580  0.0997 -0.1873 -0.2006
32069W        W47200  13.105  13.419   1.165  0.0816  0.0603  0.0949
32070W        W47201  14.298   3.767  12.417 -0.1340 -0.0568 -0.0087
32071W        W47202  15.444  16.246   3.349 -0.1682  0.0082  0.0438
32072W        W47203   4.538  11.240  13.551  0.2616 -0.1407  0.0109
32073W        W47204   8.711   6.960   3.358 -0.3093  0.3700  0.1990
32074W        W47205   2.270   8.499  10.576  0.0706 -0.1261  0.1040
32075W        W47206  18.065  16.496   3.272  0.0299  0.2020 -0.0085
32076W        W47207   7.664   7.353   4.129  0.1436  0.2121  0.2517
32077W        W47208  14.177  13.830  11.260 -0.1516  0.0206 -0.0659
32078W        W47209  13.231  11.360   1.283 -0.0357 -0.1313 -0.0254
32079W        W47210  15.952   8.925  10.033  0.0686  0.0532  0.2263
32080W        W47211   4.961  17.276   0.311  0.1350 -0.0137  0.0872
32081W        W47212   6.350   0.648   3.922 -0.0357 -0.1725  0.0133
32082W        W47213  16.655  16.332  10.731 -0.4740 -0.0684  0.2308
32083W        W47214   1.037   5.023  15.030  0.1949 -0.3253 -0.1617
32084W        W47215   0.729   3.908   5.314  0.0077  0.1251  0.1407
32085W        W47216  10.094   0.659  11.818 -0.0072  0.1150  0.0713
32086W        W47217  12.174   9.432  14.835 -0.1765 -0.1724 -0.0704
32087W        W47218   0.502  18.432  12.088  0.2302  0.2113  0.0324
32088W        W47219  11.108  15.410   1.791  0.0447 -0.0315 -0.1326
32089W        W47220  15.359  16.610   1.398  0.1109  0.0198 -0.1234
32090W        W47221   6.223  11.210  10.966 -0.0432 -0.1955  0.0337
32091W        W47222   4.620   2.206  14.491  0.3471  0.1344 -0.1687
32092W        W47223   3.589  15.196   3.019  0.0270 -0.2473  0.0887
32093W        W47224  11.183   5.641   0.644  0.1569  0.0572  0.2931
32094W        W47225  16.922   1.303  12.483  0.5593  0.1900 -0.0384
32095W        W47226   7.516   5.125  14.074  0.2374  0.0769 -0.1509
32096W        W47227   6.778   9.330  14.071 -0.1441 -0.0419  0.0491
32097W        W47228  16.841   9.267   4.970 -0.0539  0.1710  0.1413
32098W        W47229   0.625   5.458   2.329 -0.0568  0.1624 -0.2274
32099W        W47230  15.723   2.217  13.694  0.1615  0.3441 -0.1026
32100W        W47231  17.694   1.882  14.957  0.1420  0.0484  0.0248
32101W        W47232   2.953   4.896  11.767 -0.0210  0.0085  0.2525
32102W        W47233  10.219   5.830  11.502  0.0363 -0.0655  0.0096
32103W        W47234  10.049  18.176   1.262 -0.0280  0.0869 -0.2724
32104W        W47235   5.211  11.558   0.356  0.0766  0.2097 -0.0178
32105W        W47236   0.133  18.187  10.215  0.1837  0.1633 -0.0431
32106W        W47237   1.608  12.562   3.206 -0.0632  0.0352  0.0561
32107W        W47238  15.092   3.173  14.488  0.0031  0.0726 -0.0872
32108W        W47239  12.634   0.355  14.759  0.2301  0.0043  0.0593
32109W        W47240   6.663  13.477  13.180  0.1588 -0.1064  0.1558
32110W        W47241  15.679  17.078   2.382 -0.0509 -0.1014  0.3020
32111W        W47242  13.344  16.689   0.792  0.1836  0.0545  0.0224
32112W        W47243  11.648   7.764   1.820 -0.0993  0.0118  0.2372
32113W        W47244   6.562  13.359  12.090 -0.1597 -0.1148 -0.0864
32114W        W47245   0.050  13.113  13.174  0.0773 -0.4147  0.0928
32115W        W47246   4.527   7.135   1.047  0.1421  0.1278 -0.0553
32116W        W47247  13.381  10.117   4.169 -0.0656  0.1477 -0.1332
32117W        W47248  10.842  13.716  11.079  0.0265 -0.2092 -0.0634
32118W        W47249  13.777   9.264  15.663 -0.0049 -0.0759  0.1772
32119W        W47250   7.015   3.828  11.453  0.1794  0.0309  0.4126
32120W        W47251   9.948   1.070  10.873 -0.1566 -0.0463 -0.0423
32121W        W47252   8.424   2.569  13.630 -0.1414 -0.1520 -0.1008
32122W        W47253   1.921   4.219   5.729  0.2275  0.1892  0.1080
32123W        W47254  10.385   8.260   1.773  0.3356  0.0640 -0.3800
32124W        W47255   9.715   5.122   3.435 -0.1877  0.0622 -0.1104
32125W        W47256   5.457   5.706   4.223 -0.1389 -0.1993  0.2454
32126W        W47257  13.765   6.673  11.581 -0.0329 -0.2216  0.1740
32127W        W47258  18.178  15.424  12.871  0.1071 -0.3398  0.1646
32128W        W47259   4.119  17.273   0.036  0.2863 -0.2123 -0.0584
32129W        W47260   2.156   4.499   3.480 -0.1655 -0.0875 -0.2581
32130W        W47261   9.788   0.376   1.009  0.0129  0.1189  0.0846
32131W        W47262  14.344   2.509   2.534 -0.0682  0.1339  0.3549
32132W        W47263   7.130   6.949  13.965  0.1251 -0.3214 -0.3929
32133W        W47264  10.163   3.326  10.915  0.0163  0.0059 -0.0633
32134W        W47265  14.313   9.435  12.401 -0.2171 -0.1274  0.0186
32135W        W47266  10.303  10.808  10.836 -0.1363  0.1663 -0.0579
32136W        W47267  15.726  17.363   1.603 -0.0039 -0.1369 -0.1240
32137W        W47268  10.498   0.511  11.015  0.1068 -0.0845 -0.1990
32138W        W47269  17.398   1.704  12.119 -0.1771 -0.0927  0.1243
32139W        W47270   5.951   1.089  10.510  0.2227  0.1179  0.2364
32140W        W47271  17.344  11.589   5.861 -0.2113  0.1125  0.1260
32141W        W47272   5.852  14.059  15.138  0.1300 -0.0686 -0.0572
32142W        W47273  16.160  18.075  15.083 -0.0701  0.1305 -0.3913
32143W        W47274   0.506  13.148   2.643 -0.0453 -0.3097 -0.0386
32144W        W47275   9.833   7.977  15.005 -0.3308 -0.2780 -0.4009
32145W        W47276  17.261   6.008  12.267 -0.0607 -0.0186 -0.0526
32146W        W47277   4.294   6.090   5.127  0.5888  0.3305 -0.0380
32147W        W47278   2.396   6.303  13.431  0.3972  0.2475  0.0413
32148W        W47279   7.382  17.972  14.131  0.2165 -0.3099  0.2750
32149W        W47280   0.008  16.081   2.300 -0.1537  0.0618 -0.0598
32150W        W47281   4.147  17.451   0.687  0.0659  0.1581 -0.2468
32151W        W47282   4.677   6.325  15.397  0.2158  0.2276  0.0310
32152W        W47283  16.408   9.959   1.077 -0.1012  0.3334 -0.1060
32153W        W47284  17.529  17.975   0.491 -0.0087  0.0305 -0.2534
32154W        W47285   5.569   2.556  14.218  0.0762 -0.0162  0.1477
32155W        W47286   8.513   5.465  13.095  0.0585 -0.3307 -0.0660
32156W        W47287   0.621  13.663   1.192  0.0756  0.2260  0.3597
32157W        W47288   8.273   8.758  12.197  0.0023  0.0792 -0.0410
32158W        W47289  10.227  11.424  13.868 -0.3514  0.1676 -0.0995
32159W        W47290   9.805   2.423   3.171  0.0969 -0.0364 -0.4171
32160W        W47291   0.313   3.690  11.524 -0.0105 -0.2264 -0.4646
32161W        W47292   9.235  10.483   4.219 -0.3231  0.0676 -0.3821
32162W        W47293  10.302  15.589  10.888 -0.1405  0.1609  0.1459
32163W        W47294  11.091   7.125  11.923  0.1035 -0.0655 -0.0421
32164W        W47295  14.600  12.366   1.738  0.1231 -0.1629 -0.2090
32165W        W47296   6.718  12.414  11.008  0.1667 -0.2105 -0.1043
32166W        W47297   2.672  10.709   4.154 -0.1066  0.3180  0.1594
32167W        W47298  16.456   1.718   2.450 -0.2148 -0.2814 -0.1913
32168W        W47299  18.508   0.063   4.314 -0.1809 -0.1127  0.1137
32169W        W47300   3.950  17.615   1.632  0.1248 -0.0190  0.1723
32170W        W47301  10.579   9.505   5.589  0.6593  0.2210 -0.4566
32171W        W47302  14.101   6.227   0.243 -0.2183  0.0642 -0.1471
32172W        W47303   8.200  12.062   0.490 -0.0240 -0.0890 -0.1588
32173W        W47304  15.456   6.902  14.497  0.2348  0.1870  0.0491
32174W        W47305  12.947   4.642   1.624  0.0048 -0.1114 -0.2427
32175W        W47306   8.305  12.972   0.579 -0.0896 -0.0531  0.1979
32176W        W47307   7.814   5.186  13.039  0.1465 -0.1804 -0.0654
32177W        W47308   6.351   4.356  13.736 -0.1336  0.2033 -0.3769
32178W        W47309   9.688   5.429   2.841  0.0622 -0.3702  0.1274
32179W        W47310   7.244   6.214  11.476  0.3101  0.2302  0.1034
32180W        W47311  15.616  18.567  12.871 -0.1017 -0.2003 -0.1649
32181W        W47312   0.460   6.403  12.886  0.1652  0.4076  0.1093
32182W        W47313   0.087  12.584  13.817  0.0363  0.1132  0.0792
32183W        W47314   8.232  11.422  12.441 -0.1372  0.1855 -0.2547
32184W        W47315  12.114   7.241  14.066  0.0011  0.0368 -0.0808
32185W        W47316   3.175   8.353   1.621  0.1215 -0.2141  0.1147
32186W        W47317  15.068   4.639   4.466  0.1599  0.0276 -0.0409
32187W        W47318  13.784   9.414   5.390 -0.2336  0.2718  0.0828
32188W        W47319  13.070  15.158   1.398 -0.4213 -0.1347 -0.1569
32189W        W47320   1.540   6.844   5.089 -0.1203  0.1040 -0.1422
32190W        W47321   1.673   4.777   3.335 -0.1630  0.1696 -0.2588
32191W        W47322   2.888   4.809  13.055  0.2886  0.0152  0.2805
32192W        W47323   3.363  10.371  14.076 -0.2068  0.1117 -0.1154
32193W        W47324  18.345  16.974   0.049 -0.1363 -0.0836  0.3426
32194W        W47325   5.040  17.644  12.629 -0.0022 -0.0453  0.1782
32195W        W47326   3.564   6.724  10.945  0.5204  0.3314  0.3430
32196W        W47327  18.425   8.361  12.839 -0.1243 -0.0181 -0.2089
32197W        W47328   8.135   5.537  12.298 -0.2760 -0.1133  0.0346
32198W        W47329   5.597   0.835  15.235  0.3067  0.2742 -0.1230
32199W        W47330   9.320   6.439  14.254  0.0854  0.2071  0.0430
32200W        W47331   2.978   1.917  13.304 -0.1888  0.0477  0.1644
32201W        W47332  14.603   1.551   2.838  0.2052  0.0434  0.1710
32202W        W47333   9.877  11.600   2.517 -0.1243 -0.5318 -0.0340
32203W        W47334  17.398  16.399  10.636  0.2419 -0.1105 -0.2958
32204W        W47335   2.234   3.769   2.190  0.1446 -0.0189  0.3119
32205W        W47336   7.690  15.592   2.141 -0.1519  0.0350  0.4231
32206W        W47337  18.151   7.019   2.706 -0.0877 -0.0623 -0.0368
32207W        W47338   0.809   5.058   2.729 -0.1425  0.1055 -0.0409
32208W        W47339   8.322  14.226   2.132 -0.1344 -0.3144 -0.0677
32209W        W47340   2.977   6.401   0.624 -0.0534 -0.1161 -0.2247
32210W        W47341  17.964  16.740   2.224  0.0866 -0.1701 -0.2477
32211W        W47342  11.275   6.071  11.632 -0.0917  0.1155  0.0953
32212W        W47343   9.266   7.236  12.266  0.0431  0.2085  0.0263
32213W        W47344  15.294  13.591   2.815  0.0866 -0.0691  0.1109
32214W        W47345   9.875  10.519  13.200 -0.0754  0.1582 -0.1659
32215W        W47346  11.398   4.491   5.021  0.0816 -0.0722  0.1464
32216W        W47347   6.747   2.097   3.107  0.1684 -0.3734 -0.0782
32217W        W47348   7.733   2.320   5.161 -0.0107  0.1370  0.2011
32218W        W47349  10.025  13.648   0.360  0.2413  0.0933  0.2944
32219W        W47350  17.710   4.836   0.175  0.0229  0.0247 -0.1142
32220W        W47351   3.912   6.358   2.567 -0.0369 -0.2742 -0.1540
32221W        W47352   0.903   2.084   2.345 -0.2866  0.1774 -0.1529
32222W        W47353   2.979   8.016  15.590 -0.1899 -0.2324  0.0604
32223W        W47354   2.533   2.587  15.913  0.2839  0.3633  0.1942
32224W        W47355  18.106   9.979   0.403 -0.0141 -0.2561 -0.1067
32225W        W47356  17.843   0.661  12.223  0.0093 -0.2713  0.1185
32226W        W47357  11.477  14.594  15.098 -0.1830  0.1034 -0.1785
32227W        W47358   2.990   4.971   5.466 -0.1691 -0.0866 -0.0597
32228W        W47359  14.739   7.289  11.319 -0.0497  0.0291  0.0855
32229W        W47360  17.364   1.018   2.489 -0.0463  0.4284 -0.0433
32230W        W47361   7.432   4.881   3.413  0.1536  0.2274 -0.0518
32231W        W47362   6.457  11.736   5.150  0.0452  0.1171  0.1315
32232W        W47363   3.287   6.634  11.677 -0.1663 -0.0600  0.0217
32233W        W47364   7.992   1.409  15.364  0.0377  0.1911  0.1934
32234W        W47365   9.634   7.748   0.218  0.0466  0.1914  0.0723
32235W        W47366   0.014  16.687   3.445  0.3445 -0.1257  0.2379
32236W        W47367   0.330  16.230  14.008  0.1450  0.1956  0.1370
32237W        W47368  12.197   9.105  12.681  0.2068  0.1030  0.4072
32238W        W47369   0.208   8.517  13.123 -0.1300 -0.0505  0.2566
32239W        W47370  16.479  17.589   1.977  0.0083 -0.2633  0.2303
32240W        W47371  15.832   7.827  14.774 -0.0371  0.0557 -0.1473
32241W        W47372  11.453   6.170  12.536  0.0311  0.1549  0.0552
32242W        W47373   8.371  12.037  12.254  0.2941  0.3376  0.1457
32243W        W47374  12.475  13.643   1.232  0.0556 -0.2351 -0.3438
32244W        W47375   4.011   8.990  13.121  0.3698 -0.0255 -0.3201
32245W        W47376   7.076  11.034   1.410 -0.2978 -0.0278 -0.1657
32246W        W47377   1.378  18.481  15.467 -0.1593 -0.0005  0.3553
32247W        W47378  15.247  17.545   2.957 -0.4041  0.1368  0.1512
32248W        W47379  13.781   5.208   4.153 -0.0737  0.0078 -0.0908
32249W        W47380  10.448   6.431  12.411  0.0719  0.2000 -0.0021
32250W        W47381   1.815   8.738   1.766 -0.0684  0.1580 -0.0501
32251W        W47382  13.918  10.894  11.900  0.0700 -0.1287 -0.1717
32252W        W47383   8.297   4.720   0.769 -0.0776 -0.0585  0.0632
32253W        W47384  11.488   9.774   1.932  0.1352 -0.2189 -0.1043
32254W        W47385   3.376   4.206  14.479  0.0725 -0.3407 -0.3334
32255W        W47386   7.693   2.139  12.046 -0.0240  0.1071  0.1931
32256W        W47387   1.033  11.973  14.993 -0.0154 -0.1050 -0.2125
32257W        W47388  17.504   5.137  12.956  0.0129 -0.0471  0.0683
32258W        W47389   8.106   6.768   2.318 -0.0463 -0.1836  0.2231
32259W        W47390   2.972   3.417   1.583  0.1143  0.0353  0.3126
32260W        W47391  13.493   0.304   3.826  0.3728 -0.2562  0.1861
32261W        W47392   3.891  15.352   3.490  0.0435  0.0549  0.1383
32262W        W47393   9.070   9.230  12.752  0.0056  0.5724 -0.1217
32263W        W47394   2.111   2.812  14.209 -0.1682 -0.1650  0.1190
32264W        W47395   2.181  15.839   3.060 -0.0630  0.1203  0.0426
32265W        W47396   5.932   9.165   2.041  0.1146  0.0160 -0.3890
32266W        W47397  14.870  14.641  11.237  0.0999 -0.2819 -0.1042
32267W        W47398   5.873   8.726  13.491  0.1963 -0.1643  0.3392
32268W        W47399   2.305   7.323   5.600  0.3825  0.2273  0.1144
32269W        W47400   7.931   1.177   5.195  0.0341  0.1077 -0.1283
32270W        W47401   4.197  11.302  14.660 -0.1051  0.2907  0.0787
32271W        W47402   3.704   0.234  13.714  0.1594 -0.0669  0.0821
32272W        W47403  12.433   8.415  15.223 -0.0479  0.0179  0.1444
32273W        W47404   1.870  10.152  15.052 -0.1607 -0.0467 -0.2399
32274W        W47405   0.851   4.263   0.802 -0.0870 -0.0447 -0.0640
32275W        W47406   8.407  11.012  11.418 -0.2400  0.0708 -0.0249
32276W        W47407   4.529   6.127  14.516  0.0132 -0.0235 -0.1058
32277W        W47408   8.726  16.942   1.682 -0.1743 -0.4183  0.3817
32278W        W47409   9.022  10.518  14.407 -0.4963  0.0453 -0.0797
32279W        W47410  11.829  14.712  15.482  0.0764 -0.0669  0.0091
32280W        W47411   6.407  10.157   2.529  0.1601 -0.0386  0.0740
32281W        W47412  10.765   2.091  15.247  0.0758  0.1889  0.0353
32282W        W47413   9.985  11.117  11.144  0.3890 -0.0320 -0.0412
32283W        W47414  17.908   7.504  11.922  0.0962 -0.2065 -0.0179
32284W        W47415   1.947  13.418   2.688  0.0462  0.2111  0.0394
32285W        W47416  17.318   3.758   1.784  0.1654 -0.2363  0.1468
32286W        W47417  17.073   2.007   1.484 -0.4309  0.0616  0.0523
32287W        W47418  18.124   8.627   4.235  0.0844  0.0193 -0.0233
32288W        W47419  10.647   7.249  11.747  0.0405  0.2964 -0.0052
32289W        W47420   9.130  11.698   1.932 -0.2778 -0.0091 -0.5252
32290W        W47421   2.186   2.802   2.342 -0.5477 -0.0824 -0.2898
32291W        W47422  18.356   1.917  11.629  0.2503 -0.2633  0.4297
32292W        W47423   3.421  11.948   1.133  0.0204  0.1149 -0.1584
32293W        W47424   7.264   3.527   9.982  0.0428 -0.2529  0.2354
32294W        W47425   5.346  10.922  13.579 -0.0694  0.1503 -0.1888
32295W        W47426   4.785  12.339  15.802  0.4392 -0.0348  0.1074
32296W        W47427   6.354  18.395  10.114 -0.2186  0.1016  0.1442
32297W        W47428  16.153   2.557   3.197 -0.2869 -0.0613  0.2353
32298W        W47429   7.514  11.512  12.549 -0.0278 -0.2743  0.2726
32299W        W47430   4.756  10.679  15.011  0.0940  0.1458  0.2248
32300W        W47431   0.673  16.560   1.536  0.0547  0.0408  0.1350
32301W        W47432   2.160   6.382   1.775  0.2378 -0.3099  0.0549
32302W        W47433   3.011  14.266  15.083 -0.1375 -0.0492  0.3589
32303W        W47434  17.182   4.479   6.515 -0.2478 -0.2244  0.4172
32304W        W47435   4.271  11.732  12.730 -0.2825  0.0693  0.1000
32305W        W47436  17.410   0.485   6.351 -0.0023  0.0826 -0.1114
32306W        W47437  18.178   6.601   3.800  0.1416 -0.2039  0.2062
32307W        W47438  15.585   1.736  14.182  0.0981  0.0086  0.1402
32308W        W47439  16.198   3.792   0.315 -0.1708  0.0660  0.1957
32309W        W47440   1.171  11.175  13.897 -0.0655  0.2458  0.0609
32310W        W47441  15.785  10.515   4.838 -0.1152  0.0006  0.1263
32311W        W47442  12.227  13.992  11.699 -0.1675 -0.1939  0.0880
32312W        W47443  13.360   7.272  13.747  0.0326 -0.2736  0.0044
32313W        W47444  12.140   0.458  13.925  0.1372  0.0327 -0.0525
32314W        W47445  18.210  12.929   0.185  0.1233 -0.0105 -0.2350
32315W        W47446   6.500  15.578  13.628  0.0673 -0.2399  0.1911
32316W        W47447  16.138   1.738  13.509  0.1531  0.0468 -0.1751
32317W        W47448   6.000  15.534  13.444  0.2253 -0.2624  0.0911
32318W        W47449   2.290  11.672  13.348  0.0211  0.1600 -0.0549
32319W        W47450  11.297   1.541  15.755  0.0829  0.1037  0.2055
32320W        W47451   8.998   3.934   2.738 -0.2909 -0.1925 -0.0696
32321W        W47452   8.328   4.405  13.780 -0.0168  0.1859  0.2932
32322W        W47453  14.703   0.320  13.451  0.1357 -0.1414 -0.0337
32323W        W47454  10.270  12.512  14.603 -0.1611 -0.2191  0.2895
32324W        W47455  17.383   3.450   3.265  0.1517 -0.1479 -0.2647
32325W        W47456  13.021  14.505   0.746  0.1958 -0.0371  0.0761
32326W        W47457   7.907   5.586  12.829  0.0691 -0.1460  0.0199
32327W        W47458   7.083   7.137   0.318  0.0337 -0.0687 -0.1919
32328W        W47459  12.523   5.118  12.421 -0.0146  0.3245  0.2454
32329W        W47460   3.308  12.462   5.730  0.0005 -0.0040 -0.0416
32330W        W47461  12.153   1.116  11.517  0.2113  0.1685  0.0292
32331W        W47462  15.999  15.757  14.165 -0.0549  0.2745 -0.1085
32332W        W47463  15.154   4.361  13.795  0.0224  0.2452 -0.3088
32333W        W47464  10.555  13.183   3.907 -0.2005 -0.1100 -0.0981
32334W        W47465  13.489   4.772   4.948 -0.0987  0.1195 -0.3653
32335W        W47466  14.270   8.708   0.429  0.0649  0.0104  0.2344
32336W        W47467   7.822   8.127   4.032  0.1099 -0.0716  0.3620
32337W        W47468   0.215  17.089   2.772 -0.1211  0.0141  0.0332
32338W        W47469  10.345  10.544   1.914  0.0280  0.2520 -0.0542
32339W        W47470  17.347   5.944   4.900 -0.4055 -0.1289 -0.1471
32340W        W47471   9.016  17.087  11.793  0.0010 -0.2177 -0.0500
32341W        W47472   8.995  11.237   2.271 -0.1829  0.0852 -0.0250
32342W        W47473  14.007  13.279   0.423  0.2095 -0.2311  0.1710
32343W        W47474   2.065  15.230   5.477 -0.4952  0.2133 -0.1078
32344W        W47475   0.683  17.588   1.587 -0.0863 -0.0296  0.0773
32345W        W47476  14.953  16.780   4.641  0.1642 -0.1046 -0.2538
32346W        W47477   1.436  15.702   0.431  0.2888  0.2432 -0.0583
32347W        W47478  14.364  12.658   5.233  0.0838 -0.0071  0.0771
32348W        W47479  15.575  15.449   4.712  0.3361 -0.3062  0.4268
32349W        W47480   9.833  11.128  15.736  0.0694 -0.0364  0.1200
32350W        W47481   6.319   9.053   4.718  0.0285 -0.2399  0.2038
32351W        W47482   4.207   4.898   1.099 -0.0146 -0.0837  0.3841
32352W        W47483   5.936   5.008  15.127  0.4028  0.2033 -0.0723
32353W        W47484  14.021   9.470  14.202 -0.5948 -0.0283  0.0558
32354W        W47485   9.811  13.225  14.067  0.1942 -0.0893  0.0726
32355W        W47486  17.978   1.125  12.029  0.0779  0.2191  0.1074
32356W        W47487   5.028  16.108  10.738  0.2013 -0.0362 -0.2193
32357W        W47488  11.846   2.542   3.949  0.4436 -0.0208  0.1530
32358W        W47489  17.157   9.655   6.559  0.1093 -0.0993  0.2763
32359W        W47490   6.040   4.181   2.650  0.0209 -0.1702  0.0347
32360W        W47491   7.368  18.022  13.539  0.0531  0.0049 -0.1463
32361W        W47492   6.601   3.022  11.679 -0.0402  0.0415  0.0398
32362W        W47493  17.701  13.461   4.292  0.1648  0.4343 -0.0160
32363W        W47494  15.480  16.438   1.868 -0.0214  0.0208 -0.0426
32364W        W47495  16.507   6.560  14.551 -0.0987 -0.1997 -0.1815
32365W        W47496   5.253  11.527  12.668  0.0255 -0.0703  0.1971
32366W        W47497   5.797  14.732   1.947 -0.3100 -0.3243  0.2417
32367W        W47498   9.761   7.643   2.257 -0.0426 -0.0373 -0.2047
32368W        W47499  12.430   7.758  15.260 -0.1556  0.1713 -0.3098
32369W        W47500   4.676   5.502  13.676  0.0838 -0.0594  0.2963
32370W        W47501   9.703   7.350   2.664  0.0316 -0.2962 -0.0239
32371W        W47502   7.376   8.120  13.720 -0.1130  0.0338  0.0829
32372W        W47503   2.464   8.137  12.441 -0.0943 -0.5649  0.1512
32373W        W47504  17.880  11.339   2.574  0.0187  0.0701 -0.0619
32374W        W47505   7.831   2.015   5.621 -0.1215  0.0373  0.0966
32375W        W47506  11.484   9.323  15.698  0.1516 -0.0295 -0.0807
32376W        W47507  15.130  16.341   0.392  0.0572 -0.1024 -0.5147
32377W        W47508   0.704   6.735   5.036  0.2024  0.2080 -0.0041
32378W        W47509  12.052  14.374   1.763  0.0086  0.0624 -0.0895
32379W        W47510   3.916  18.020  12.399 -0.2427 -0.0471 -0.1092
32380W        W47511  10.004  16.712  13.091  0.0788 -0.0978 -0.1809
32381W        W47512   7.925   8.005  14.400 -0.2621  0.3264 -0.2479
32382W        W47513  10.629   9.453   0.278  0.0894  0.0269  0.0968
32383W        W47514   7.055   9.487   4.606  0.1565  0.0782 -0.2720
32384W        W47515   4.499   4.316   4.722  0.1008  0.3819 -0.0506
32385W        W47516  12.281  15.281  15.473  0.3148 -0.1242 -0.2912
32386W        W47517  15.936  12.354   1.036 -0.1539  0.0059  0.0973
32387W        W47518  10.198   3.994   0.233  0.0615 -0.1761 -0.2252
32388W        W47519   0.146   0.339  14.870 -0.1056 -0.0347 -0.0458
32389W        W47520  15.028   0.734  11.545 -0.1106 -0.0737 -0.1329
32390W        W47521   7.191  12.454  11.466  0.2217  0.0347  0.0105
32391W        W47522   6.042   5.701  11.297 -0.0128  0.3074  0.2815
32392W        W47523   1.625  16.512   9.530 -0.1613  0.1104 -0.3337
32393W        W47524  14.062  16.990  11.770 -0.1033 -0.0592 -0.1202
32394W        W47525  11.661  17.831  11.042  0.0707 -0.1849 -0.1215
32395W        W47526  15.445  14.148  11.540  0.0909  0.0632 -0.2809
32396W        W47527   8.786  11.733   1.164 -0.2223  0.2563  0.0166
32397W        W47528   5.962   5.583  15.071  0.0880  0.0573 -0.1533
32398W        W47529  12.829   0.378  13.202  0.1056 -0.0450  0.0938
32399W        W47530   1.478   7.934   0.363  0.0433  0.3583 -0.1016
32400W        W47531  18.299   9.377  14.272 -0.2805  0.1719  0.0611
32401W        W47532   5.740   4.616  12.481 -0.2510  0.4003  0.0861
32402W        W47533   7.283   3.264   6.099  0.1813  0.4581 -0.1245
32403W        W47534  12.124   9.780   3.813 -0.0257  0.0122 -0.0845
32404W        W47535  11.996  11.815  12.660  0.2671  0.0440  0.0400
32405W        W47536  11.376   3.424  12.302 -0.0744 -0.2447 -0.1130
32406W        W47537   5.754  10.983  13.186 -0.3585  0.2496 -0.0899
32407W        W47538   1.605   8.912  14.736 -0.1996  0.0549  0.1628
32408W        W47539   5.695   9.019  12.332 -0.3697 -0.0208 -0.1247
32409W        W47540  11.119  10.208   2.992 -0.3596  0.4852 -0.1792
32410W        W47541   4.375  12.059  13.084  0.0454  0.0431 -0.2031
32411W        W47542  18.517   5.729   3.047 -0.0438  0.0567  0.0176
32412W        W47543   2.493  11.133  14.928  0.2165 -0.2627 -0.1419
32413W        W47544  12.948  13.840   1.971  0.1572 -0.1249  0.1079
32414W        W47545   6.588  16.026   9.949  0.1361 -0.1316 -0.3291
32415W        W47546  10.376  12.721  10.141 -0.1407 -0.1127  0.1535
32416W        W47547  11.244   7.482   0.708 -0.1569  0.0281  0.0596
32417W        W47548  12.423  12.633   1.393  0.1480  0.1547 -0.2343
32418W        W47549   1.228  18.214   3.606  0.0027  0.2855 -0.1178
32419W        W47550   9.127   3.010   1.067 -0.0514 -0.0685 -0.0437
32420W        W47551  12.975  12.268   9.824 -0.0524  0.2084  0.0632
32421W        W47552  14.712   2.680   5.212 -0.1073  0.2556  0.0276
32422W        W47553  15.802  11.451   2.054  0.0728 -0.0900  0.1151
32423W        W47554  15.908   3.085  15.450  0.1611  0.0271 -0.0990
32424W        W47555   5.378  14.324   2.141  0.1542 -0.3360  0.1086
32425W        W47556   0.785   9.949   1.818 -0.2058 -0.3779 -0.2717
32426W        W47557  11.564  16.041  15.060 -0.3170 -0.4883 -0.1034
32427W        W47558  13.514   7.877   2.913  0.5097  0.1691  0.0479
32428W        W47559   8.190  17.544   4.170 -0.2976  0.3497 -0.2728
32429W        W47560   4.308   2.239   2.002  0.0694 -0.1763 -0.0046
32430W        W47561  17.853   2.613  14.226  0.0484  0.0018  0.2331
32431W        W47562   5.157   5.653  11.037  0.3887 -0.0357 -0.1209
32432W        W47563  16.184   8.426  12.165 -0.0399 -0.0456  0.1522
32433W        W47564   7.880  10.443   1.838  0.1119  0.1797 -0.0146
32434W        W47565  16.758  16.131  10.045  0.0404  0.3329 -0.1343
32435W        W47566  18.520  10.952  14.655 -0.0294 -0.3651  0.3241
32436W        W47567   4.847   4.390   2.623 -0.1416  0.0081  0.1015
32437W        W47568   2.413  11.460   2.429 -0.1839 -0.1608 -0.0523
32438W        W47569  12.977   5.351   0.430 -0.2705 -0.0943 -0.0619
32439W        W47570   4.517   9.428  13.699 -0.2798  0.2283 -0.0717
32440W        W47571  17.861  16.875  10.789 -0.3943 -0.1358 -0.1003
32441W        W47572   1.568   5.606  15.507 -0.1577  0.3960  0.0042
32442W        W47573   6.703   7.127   1.880 -0.0277  0.1014  0.0959
32443W        W47574   9.210  18.397   1.461  0.1293 -0.4158  0.0541
32444W        W47575  16.160  15.224  13.219  0.2146 -0.1136 -0.4211
32445W        W47576   5.251   8.267  14.651 -0.2064 -0.3401  0.0767
32446W        W47577   2.004  10.984   4.098  0.2774 -0.0530  0.0571
32447W        W47578  16.914  11.669  13.046  0.0669  0.0967  0.0021
32448W        W47579  14.417  14.261   1.940 -0.0920 -0.0178 -0.1094
32449W        W47580  14.266  12.700   0.788  0.0272  0.1813 -0.1308
32450W        W47581   5.868  10.568  13.457 -0.0887 -0.1309 -0.1134
32451W        W47582  10.774   6.805  13.479 -0.0230 -0.2331  0.4160
32452W        W47583  15.657   0.994   1.022 -0.0853 -0.0059 -0.1754
32453W        W47584   7.957  11.952  13.129  0.2636  0.2262 -0.0115
32454W        W47585   1.509   4.914  14.796 -0.3930 -0.3836 -0.1322
32455W        W47586   9.659  13.540  12.463 -0.1132 -0.1594  0.2069
32456W        W47587   4.656  13.715  13.940  0.3443  0.0846  0.2204
32457W        W47588   6.586  16.541   0.787  0.1076 -0.1637 -0.0506
32458W        W47589   5.237   9.068   3.848 -0.0488 -0.0868 -0.0031
32459W        W47590   2.451   1.831   4.245  0.0425  0.1412 -0.0677
32460W        W47591   3.055  15.695  10.411 -0.0305  0.0651 -0.1962
32461W        W47592  11.262  17.220   2.804  0.0432  0.1204 -0.2643
32462W        W47593  10.562  12.205  14.349 -0.0476  0.0578 -0.3261
32463W        W47594   5.180   5.957   5.121 -0.0878  0.3233  0.4204
32464W        W47595   9.998  17.178  11.578 -0.3753 -0.0933  0.0148
32465W        W47596   7.475   2.831  11.341  0.2955 -0.1377 -0.0711
32466W        W47597   6.804   9.895   9.664  0.0369 -0.0946  0.2136
32467W        W47598   6.565   9.388  11.318 -0.0229  0.0501  0.0833
32468W        W47599   7.963  11.033  13.140 -0.1547 -0.1179  0.0578
32469W        W47600   4.505   2.190   4.949 -0.1585 -0.1254 -0.0862
32470W        W47601   8.006  13.474  15.192  0.1505  0.1575  0.0832
32471W        W47602   3.921   2.093   3.460 -0.2498 -0.0840  0.0723
32472W        W47603  18.529   3.115  13.560 -0.0557 -0.2536 -0.1827
32473W        W47604   7.166  15.029  12.127 -0.0252 -0.0337  0.0776
32474W        W47605   8.117   4.025  13.333  0.1783  0.2204 -0.1921
32475W        W47606   7.004   8.127   5.596 -0.3315 -0.2104 -0.0298
32476W        W47607   2.430  10.050   1.856 -0.0179 -0.4026  0.0139
32477W        W47608   8.441   0.828   0.819 -0.2167  0.0742  0.2206
32478W        W47609  13.208   7.617   1.426  0.1440  0.0819 -0.1023
32479W        W47610  18.169   9.200  12.449  0.1766  0.0368  0.3789
32480W        W47611  17.615   0.919  14.829  0.0131  0.0500 -0.5911
32481W        W47612  15.582   5.015   0.701 -0.0892 -0.2746 -0.1679
32482W        W47613   3.435   8.111  11.580  0.0702  0.4662 -0.1959
32483W        W47614   6.491   5.239   0.414  0.2302  0.0226  0.0365
32484W        W47615  14.795  15.458  14.219  0.2184 -0.1733 -0.3357
32485W        W47616  15.723  14.362  15.916  0.0013 -0.0149 -0.1637
32486W        W47617  15.160   7.164  14.949  0.2408 -0.2006  0.0899
32487W        W47618   1.632  16.231   0.366  0.0341 -0.4964 -0.0055
32488W        W47619  11.604  10.747  12.220  0.3605 -0.0505  0.1264
32489W        W47620   9.044  13.966  13.287  0.1779  0.1484  0.1184
32490W        W47621  15.386   0.808   3.983  0.0806  0.0127 -0.0146
32491W        W47622   5.087   6.083  11.756  0.0199  0.0204 -0.2095
32492W        W47623  13.742  12.023   1.782  0.2086 -0.2492 -0.0329
32493W        W47624  14.405  12.784  14.232  0.0419 -0.2442  0.1063
32494W        W47625   9.743  18.343   2.852 -0.0328 -0.2271  0.4454
32495W        W47626  14.589  13.832   4.117  0.2418  0.2469 -0.1746
32496W        W47627   8.514   5.299   1.299  0.2152 -0.0642 -0.1674
32497W        W47628  13.139  13.600  14.958  0.0927 -0.0337 -0.0153
32498W        W47629   8.287  10.860   1.412  0.0027  0.0224  0.2745
32499W        W47630   9.431   9.220  11.327 -0.0135  0.0012  0.2852
32500W        W47631   8.212   4.451   5.533 -0.0597  0.0902 -0.0863
32501W        W47632   2.924   9.512  10.577 -0.0173 -0.1912 -0.5168
32502W        W47633   8.027  13.902   4.341 -0.1068 -0.1845  0.2258
32503W        W47634  15.910   8.259   0.219 -0.0399 -0.0097  0.1576
32504W        W47635   2.933   1.147  12.558 -0.0687  0.2519  0.1014
32505W        W47636   2.800  15.228   4.812  0.0574  0.0283  0.1522
32506W        W47637  13.536  13.216   2.350  0.2466  0.5317  0.0697
32507W        W47638  12.312  13.500   2.545 -0.2589  0.0089 -0.0379
32508W        W47639  12.660  10.860  11.155  0.2326 -0.1101 -0.1046
32509W        W47640  14.762  17.169  12.567  0.0118 -0.1636 -0.0409
32510W        W47641   1.506  16.811  10.828  0.2272  0.0076  0.1045
32511W        W47642   7.252  14.616  11.878  0.0634  0.1888 -0.0784
32512W        W47643   1.022  11.304   4.172  0.0145 -0.0456  0.6300
32513W        W47644   1.971  13.469   3.547 -0.0176  0.2348 -0.2660
32514W        W47645  15.862  17.187   1.048 -0.1448 -0.2269 -0.1697
32515W        W47646  17.820   2.441  15.129  0.3902  0.1207 -0.0256
32516W        W47647  10.987  17.633   0.138 -0.0314 -0.0870  0.1601
32517W        W47648   7.752  10.364  11.271 -0.1572  0.0959 -0.0816
32518W        W47649  14.656  14.631  10.762  0.1509  0.1596  0.1925
32519W        W47650   8.494  17.832   1.071  0.0180  0.3157 -0.3087
32520W        W47651   5.429  13.225  13.002  0.0651 -0.2201  0.1498
32521W        W47652   6.102   8.616   4.836  0.0121 -0.2130  0.4909
32522W        W47653   8.834  12.631  12.394  0.0032  0.1026 -0.0603
32523W        W47654  18.216   8.717   0.429  0.0501 -0.2231 -0.0515
32524W        W47655   2.041   7.008   4.770  0.3055 -0.1075 -0.2503
32525W        W47656   0.838  17.933  14.222  0.1249 -0.1550  0.0295
32526W        W47657   3.423   3.732   4.076  0.0450  0.0252  0.0653
32527W        W47658   0.121   7.389  11.245  0.2059 -0.1176  0.0600
32528W        W47659  13.546   8.529   5.579  0.1080  0.2538 -0.2401
32529W        W47660   3.706  11.052   1.414  0.0424 -0.1266  0.0242
32530W        W47661   7.324   9.983  12.865  0.0361 -0.0535  0.2080
32531W        W47662  10.257  17.257  15.665  0.0246 -0.0459  0.0243
32532W        W47663   5.193   7.821   1.152  0.1662 -0.0897 -0.0369
32533W        W47664  12.537  11.542  13.796  0.0464 -0.0620  0.2444
32534W        W47665  11.355   6.224  10.826 -0.3796  0.1120 -0.1115
32535W        W47666   9.778   4.717  15.597 -0.2344 -0.0717  0.0666
32536W        W47667  13.551   1.745  11.779  0.0435 -0.1033  0.1881
32537W        W47668   0.071  17.264  15.094  0.2224 -0.1449  0.2984
32538W        W47669   5.874  11.162   2.389  0.0625  0.0690 -0.0545
32539W        W47670   9.138  16.843  10.759 -0.1361  0.0118  0.0627
32540W        W47671   7.562   6.046  11.064 -0.1135  0.4228  0.3318
32541W        W47672  11.224  11.545   3.525 -0.0762  0.1945 -0.1164
32542W        W47673  10.983  14.765  10.964 -0.1664 -0.0788  0.0196
32543W        W47674   4.252   7.800  13.183 -0.1866  0.2096 -0.1629
32544W        W47675   1.655  10.272   3.485  0.0448 -0.1212 -0.0691
32545W        W47676   0.667  13.066  14.325 -0.0700  0.2658 -0.2276
32546W        W47677  10.888  12.818  15.128  0.1811  0.2948 -0.0236
32547W        W47678   6.834   7.003  11.348  0.3425  0.2193 -0.1425
32548W        W47679  17.255  18.444   2.834  0.0483  0.0847  0.0616
32549W        W47680   1.048  18.070  12.722 -0.2050  0.0837 -0.1404
32550W        W47681   1.729   7.016   4.117  0.2084 -0.2263  0.1639
32551W        W47682   0.045   3.958  13.123  0.1883  0.0046 -0.4012
32552W        W47683   2.786  14.660   1.091 -0.2422 -0.1270  0.1434
32553W        W47684   9.877   8.329  15.386  0.1988  0.1499  0.2673
32554W        W47685   7.349   4.033  12.921 -0.1855  0.3320  0.0165
32555W        W47686   4.934   3.515   4.450  0.0108 -0.3931  0.2476
32556W        W47687   2.877  14.532   2.784  0.1935  0.0975 -0.1523
32557W        W47688  16.301  15.039  15.837 -0.0198 -0.0631 -0.3982
32558W        W47689  14.858   0.048   0.806  0.1623 -0.0026  0.0876
32559W        W47690  10.187  10.858   1.056 -0.0392 -0.0963  0.2504
32560W        W47691   8.641  10.059   1.772  0.0302 -0.0197  0.0081
32561W        W47692  16.787   4.475   2.078 -0.0884 -0.0601  0.0887
32562W        W47693   7.620   3.121   2.876  0.0063 -0.1213 -0.5628
32563W        W47694   6.694  10.068  12.067  0.1084  0.0862  0.1961
32564W        W47695  10.558   6.899   0.848 -0.0291  0.1713 -0.2858
32565W        W47696   7.350  18.482  15.170  0.0215  0.1355 -0.2023
32566W        W47697   4.474   5.640   4.365 -0.2364  0.0852  0.1034
32567W        W47698   8.481   9.684   0.399  0.0139 -0.3530  0.0256
32568W        W47699  10.643   9.873   2.184  0.0599 -0.0348  0.3101
32569W        W47700   3.792   3.616   5.740 -0.2829  0.1661 -0.0862
32570W        W47701   8.728  15.497   0.662  0.0701  0.1452  0.0697
32571W        W47702  10.419  12.723   0.500  0.6028 -0.2694 -0.1142
32572W        W47703  18.240  13.919   1.063  0.2962  0.2941 -0.0756
32573W        W47704  10.456   9.144   4.597 -0.2948 -0.0637  0.0729
32574W        W47705   4.485   6.662   3.396  0.0579 -0.1716  0.1227
32575W        W47706   9.248  17.338   2.001  0.0370 -0.3212  0.3232
32576W        W47707   3.670   0.340   0.630 -0.0826  0.2294 -0.0084
32577W        W47708  14.385   3.142   1.302 -0.2151  0.0649 -0.0525
32578W        W47709  16.787  13.209  15.675  0.1853 -0.0804  0.0384
32579W        W47710   7.580  10.520   3.166 -0.3559  0.1667 -0.2501
32580W        W47711  12.648  18.300   0.057  0.0098  0.0116  0.0864
32581W        W47712   8.601   4.212  14.207  0.1537 -0.0212  0.0202
32582W        W47713   8.161   8.823   1.817  0.2104 -0.0909  0.0285
32583W        W47714   9.711  15.243  14.744 -0.3458 -0.2398 -0.0547
32584W        W47715   6.352   1.697   3.018  0.1121 -0.0820  0.1066
32585W        W47716  11.303  11.150  14.034 -0.5086 -0.4325  0.3786
32586W        W47717   8.115  11.621  15.254 -0.2413  0.1677  0.2003
32587W        W47718  17.083  11.229  12.712 -0.0684 -0.1279  0.1547
32588W        W47719  11.940  12.489  15.891 -0.1378 -0.0091 -0.0329
32589W        W47720   3.697   4.634  12.946 -0.0023  0.3352 -0.1028
32590W        W47721  14.481   7.619   2.583 -0.0465  0.1368  0.2058
32591W        W47722   4.388  13.429   5.049 -0.2531 -0.5283 -0.4104
32592W        W47723   4.434   8.096   4.483  0.0335 -0.1055  0.1890
32593W        W47724   3.421   7.000   2.083  0.0811 -0.1015 -0.1620
32594W        W47725  17.341   2.733   0.158 -0.1966  0.2119 -0.1210
32595W        W47726   3.763   3.797  15.156  0.0108 -0.0889 -0.0857
32596W        W47727   0.829   5.203   0.575  0.0022 -0.2031 -0.0260
32597W        W47728  16.527  11.827  12.175 -0.1108  0.3725  0.2149
32598W        W47729  11.311  17.467  15.219 -0.6030 -0.2938 -0.0244
32599W        W47730   8.009   5.873   1.014 -0.0566 -0.1120  0.1304
32600W        W47731   1.112   8.229   1.605  0.0805  0.0234  0.2032
32601W        W47732  13.639  10.740  14.130 -0.2302  0.0056 -0.2783
32602W        W47733   9.639   7.423  11.958 -0.0081  0.0111 -0.0767
32603W        W47734   4.421  12.639   0.678 -0.1663  0.0757  0.0044
32604W        W47735  10.847  12.344  11.599 -0.1095  0.4145  0.1707
32605W        W47736  10.642   5.800   2.822 -0.1592 -0.2515  0.0648
32606W        W47737   0.263  14.903   2.613 -0.1796  0.0445 -0.1932
32607W        W47738  14.454   6.092   0.659 -0.2656  0.0304  0.0491
32608W        W47739   7.283  13.947  14.251  0.0162 -0.0500 -0.0488
32609W        W47740  16.560  18.242  11.419 -0.0295 -0.3002 -0.0116
32610W        W47741   7.450   8.105   5.932  0.2843 -0.2480 -0.1182
32611W        W47742   7.404   5.641   2.677  0.0976  0.1534  0.3617
32612W        W47743  18.133  12.650  14.750  0.3045 -0.2851 -0.3189
32613W        W47744  13.558  12.048   4.359  0.2063 -0.1336 -0.1079
32614W        W47745  16.834  13.494   1.952  0.0716 -0.3651 -0.1738
32615W        W47746  10.037  12.805  10.537  0.1826 -0.1529 -0.1157
32616W        W47747   0.615   2.173   2.825  0.0687 -0.2217 -0.2738
32617W        W47748  13.149  11.893  14.313  0.1228 -0.0669  0.1595
32618W        W47749   5.488   6.837   0.074 -0.1446  0.2960  0.0059
32619W        W47750   8.365  10.449   4.524  0.1445 -0.1107  0.2063
32620W        W47751   8.440  13.947   4.013 -0.2068  0.3819 -0.3266
32621W        W47752   3.149  10.874  11.707  0.1454 -0.0791 -0.0623
32622W        W47753   2.228   3.656   3.584  0.0275  0.1190  0.0278
32623W        W47754  14.490  16.950  10.946 -0.2190 -0.0446 -0.1152
32624W        W47755  11.748  17.533  11.579 -0.1877  0.0876  0.0989
32625W        W47756  15.563   1.612   2.453 -0.1887  0.0327  0.1927
32626W        W47757  11.254  15.229   2.356 -0.0644  0.0252 -0.1823
32627W        W47758   8.291  12.183  15.865  0.3932  0.2527 -0.0247
32628W        W47759   2.461  13.176   4.984  0.0432  0.4159 -0.1924
32629W        W47760  13.161   3.978  13.905 -0.2209 -0.0926  0.0525
32630W        W47761   6.499   2.463   5.441 -0.1205 -0.0102  0.3794
32631W        W47762   6.765   0.034  12.340  0.0315 -0.0060 -0.0816
32632W        W47763   0.443   3.160   2.459 -0.1840  0.2102  0.0360
32633W        W47764  12.307   0.849  12.795  0.3420  0.1383 -0.2916
32634W        W47765   4.314   4.344   4.275 -0.3085 -0.0938  0.0705
32635W        W47766  11.636  16.052   4.816 -0.0129 -0.3186  0.3664
32636W        W47767   7.700   7.699  13.429 -0.0116  0.2268  0.0180
32637W        W47768   2.753  18.229  10.527  0.0927 -0.3899 -0.0346
32638W        W47769  13.122  14.901   3.636 -0.0286 -0.1476 -0.2265
32639W        W47770   3.513   2.641   0.269  0.0511 -0.0022  0.1564
32640W        W47771   6.839  11.879  13.148 -0.2845  0.6416  0.2196
32641W        W47772  12.116  16.857   3.905  0.0740 -0.0789  0.1401
32642W        W47773  14.773   6.421  11.289 -0.1547  0.0501  0.1304
32643W        W47774   4.129   9.620   6.000 -0.1110  0.4166  0.0915
32644W        W47775  13.186   0.230  12.358 -0.0087 -0.1049 -0.3155
32645W        W47776   8.262  13.689  12.655  0.1312 -0.3124  0.1131
32646W        W47777   5.597  13.188   0.698 -0.0849  0.3740 -0.2892
32647W        W47778   8.972   5.849  15.602  0.1842 -0.1001 -0.0574
32648W        W47779   4.408  10.161   1.814  0.2893 -0.0688 -0.1631
32649W        W47780   8.711  10.622   1.563  0.1276 -0.1768  0.1060
32650W        W47781  10.499   0.587  11.547  0.0897 -0.2029  0.0000
32651W        W47782   1.623   6.811  12.003 -0.2568  0.2064 -0.1995
32652W        W47783  11.339   3.201   3.100  0.1672 -0.0427  0.1503
32653W        W47784  15.014   8.420  12.071  0.0721  0.1884  0.1441
32654W        W47785  16.457  12.381   1.872 -0.0685 -0.0295 -0.1354
32655W        W47786  15.575   0.322  12.418 -0.1667 -0.2562 -0.2752
32656W        W47787  18.110  10.900  15.040  0.2787  0.2933 -0.1639
32657W        W47788  16.728   3.942   2.769 -0.0580 -0.1084  0.2349
32658W        W47789   2.000   8.520  15.886  0.2149 -0.0599  0.0243
32659W        W47790  11.408   2.991  11.709 -0.1228 -0.4381  0.1605
32660W        W47791   9.894  18.333  12.221 -0.0515  0.1145  0.3053
32661W        W47792  12.232   4.426  12.563  0.2347 -0.0428  0.0885
32662W        W47793  17.832  12.707   5.468  0.2398  0.1926 -0.1085
32663W        W47794  11.762  18.136   4.214  0.0377  0.1093  0.2204
32664W        W47795   0.634   2.721  12.398 -0.0903  0.0619  0.0232
32665W        W47796   1.489   0.175   1.262 -0.3090  0.0413  0.1266
32666W        W47797   9.167   7.418  10.666  0.0281 -0.0847 -0.2231
32667W        W47798   4.851   5.317   3.164 -0.2528 -0.2938  0.0087
32668W        W47799   2.376  14.847   5.042 -0.0869 -0.2169 -0.1264
32669W        W47800   0.295  12.041  11.986 -0.2816 -0.0818 -0.3423
32670W        W47801   4.557   5.182  14.109  0.2002  0.1583 -0.0314
32671W        W47802   4.720  13.396   3.238 -0.0634  0.0357  0.0080
32672W        W47803  13.497   6.040  14.804  0.1808 -0.0013 -0.0618
32673W        W47804   8.480  13.317  15.775  0.0690 -0.0223 -0.0616
32674W        W47805   2.176  18.004   0.460  0.2013 -0.2404  0.0812
32675W        W47806   3.912  14.716   3.462  0.1807  0.0964  0.3652
32676W        W47807   9.466   1.396   9.952 -0.1197  0.0819 -0.1286
32677W        W47808  12.085   5.678   5.237  0.3639 -0.0232 -0.0547
32678W        W47809   2.155  15.447   6.108 -0.0015  0.1134  0.0780
32679W        W47810  15.241   6.156  15.256  0.2388 -0.1802 -0.1526
32680W        W47811   6.861   2.122   5.341  0.1895  0.1697 -0.1267
32681W        W47812   7.238   6.428   4.356 -0.1664 -0.0092  0.2047
32682W        W47813   4.627  14.814  14.931  0.0048 -0.2077 -0.1477
32683W        W47814  16.493   5.737   3.375 -0.1771  0.0704 -0.0501
32684W        W47815  14.942   0.917  15.410 -0.3716  0.0139 -0.0513
32685W        W47816   0.694   6.013   4.295  0.1805 -0.0158 -0.0170
32686W        W47817   1.389   5.104   4.664 -0.1097  0.2435  0.2758
32687W        W47818   4.181   6.239   1.161  0.1107  0.1357 -0.3171
32688W        W47819   7.662  16.825   3.983 -0.1183 -0.0128  0.0208
32689W        W47820   6.545   5.750   2.794 -0.2022 -0.3000  0.2685
32690W        W47821  11.991  14.027  13.281  0.2209  0.0553 -0.0277
32691W        W47822   2.934   9.906   0.185  0.1675 -0.0891  0.0177
32692W        W47823  17.362   9.651   3.190 -0.1544 -0.2254 -0.0019
32693W        W47824   3.143   5.179   2.073  0.2890 -0.3153 -0.3532
32694W        W47825  18.312  11.626   4.055 -0.0169  0.1794  0.2204
32695W        W47826  16.122  10.689   0.325  0.0043  0.1246 -0.0019
32696W        W47827  13.138   9.829   3.846 -0.1149  0.0491  0.3440
32697W        W47828  12.390   6.447  12.978 -0.0043  0.0051 -0.0802
32698W        W47829   6.804   2.150  12.783 -0.1364  0.0944 -0.1820
32699W        W47830  11.065  16.427  11.842 -0.2663  0.0364 -0.1762
32700W        W47831  14.424   2.523  14.284 -0.2318  0.4573 -0.0716
32701W        W47832   0.769   9.435   5.262  0.1055 -0.1265  0.0733
32702W        W47833   5.023  18.045   2.651 -0.0633 -0.1552  0.0573
32703W        W47834  17.692  18.199  13.977 -0.2935 -0.0488 -0.5206
32704W        W47835  15.408  16.263  15.534  0.1905  0.0897 -0.2966
32705W        W47836   8.405  16.272  15.370  0.2332 -0.0883 -0.1401
32706W        W47837   2.301   1.838   3.535  0.0686  0.0857  0.0223
32707W        W47838  15.154   9.606   2.530  0.3845 -0.1522 -0.2865
32708W        W47839  11.410  11.115  14.545 -0.0145  0.0255  0.1740
32709W        W47840   0.021  18.532  12.196  0.1687 -0.2825  0.0423
32710W        W47841   0.739   1.011   5.186 -0.0595 -0.3101  0.3128
32711W        W47842   4.563   4.305  10.699 -0.2337 -0.1649 -0.1924
32712W        W47843   6.851   5.546   3.242  0.1387 -0.0620  0.1061
32713W        W47844  18.045   3.134   4.892 -0.1344  0.2807  0.0732
32714W        W47845   8.987  12.943  10.456 -0.0829 -0.1710  0.0770
32715W        W47846   0.846   1.964  15.447  0.0686 -0.1378  0.0772
32716W        W47847  10.554   7.484   1.727 -0.1239  0.1177 -0.0170
32717W        W47848   3.304  13.218  13.001 -0.3874 -0.1077 -0.1594
32718W        W47849   6.025  10.373  14.063 -0.1819  0.0725  0.0402
32719W        W47850  12.100   5.624   0.649 -0.0274  0.0380 -0.1299
32720W        W47851   0.978  15.387   5.285 -0.1281 -0.0133 -0.3078
32721W        W47852  14.974  11.527   1.144 -0.3233 -0.2988 -0.0263
32722W        W47853   8.777   2.449   4.263 -0.2281  0.0263  0.3753
32723W        W47854  16.872  11.896  13.505  0.1696  0.3679  0.3937
32724W        W47855   0.104   1.083  11.312 -0.4379 -0.1190 -0.1502
32725W        W47856  12.340  12.458   6.107 -0.1420 -0.2733 -0.0805
32726W        W47857  15.975   7.958   6.449  0.1046 -0.0731 -0.1043
32727W        W47858   7.033  16.270  13.368  0.2548  0.1972 -0.4577
32728W        W47859  16.665   2.493   6.442  0.0232 -0.0955  0.1196
32729W        W47860   2.284  12.395   5.048 -0.1714  0.2768  0.0960
32730W        W47861  13.900   7.487  14.126  0.0273 -0.3167 -0.0318
32731W        W47862   6.499   6.662  11.724  0.2289 -0.4324 -0.0313
32732W        W47863  14.128  14.388   1.509  0.0477 -0.1853  0.0564
32733W        W47864  14.450  15.750   2.295  0.1147  0.0474  0.2240
32734W        W47865  11.948  18.087  15.540  0.2796 -0.0707 -0.5704
32735W        W47866  15.635  12.423   4.725  0.2397  0.0327  0.3369
32736W        W47867   9.265   6.897   1.398  0.1787 -0.0583  0.0118
32737W        W47868  10.384  18.532   9.840  0.2228 -0.0396 -0.0320
32738W        W47869  16.798  10.379  11.360  0.0464 -0.2025 -0.0977
32739W        W47870   9.870  10.091  11.265 -0.0847 -0.3116  0.2501
32740W        W47871  10.113  14.113   0.303 -0.0452 -0.1485 -0.2017
32741W        W47872   8.126  15.428  11.506  0.1268  0.0891  0.2216
32742W        W47873  14.887   2.979  15.001 -0.2106  0.2757 -0.0239
32743W        W47874  11.239  16.239  11.402  0.1355  0.0363  0.1715
32744W        W47875   7.306   4.352  15.466 -0.0454  0.1055 -0.0233
32745W        W47876   7.665   6.909   6.168  0.2547  0.2363  0.1451
32746W        W47877  11.168   5.864   2.752 -0.2210 -0.0988  0.2389
32747W        W47878   0.328   5.087   2.528 -0.1185  0.0431  0.0369
32748W        W47879  17.554   3.191  15.603  0.0579 -0.1850 -0.1383
32749W        W47880  10.500  10.551   5.323 -0.0956  0.0748 -0.1104
32750W        W47881   8.122   4.901  11.479 -0.0729  0.0377  0.1740
32751W        W47882  10.095  12.856   4.357  0.1375 -0.0545  0.0824
32752W        W47883   7.640  12.779  15.270 -0.1200 -0.1843 -0.2681
32753W        W47884   5.900   3.371   5.365 -0.1414 -0.1442  0.0016
32754W        W47885  10.077   7.809   4.825 -0.0832  0.0065  0.0617
32755W        W47886  11.340   1.732  11.520  0.1814 -0.1278 -0.4226
32756W        W47887   7.204   8.311   2.937  0.0490 -0.2420 -0.1201
32757W        W47888   1.548   1.507  14.363  0.0702 -0.1172  0.0611
32758W        W47889  15.205  14.918  14.846 -0.0421 -0.0621  0.0227
32759W        W47890  13.479  11.498   0.863  0.1522 -0.0128 -0.0417
32760W        W47891   8.973  17.577  14.228  0.2471 -0.1667 -0.5445
32761W        W47892  17.061   0.630   5.121  0.3294  0.0318  0.4945
32762W        W47893  17.850   6.794   5.344  0.0068 -0.0446 -0.0854
32763W        W47894  17.891  16.098  10.661  0.2279  0.3296  0.1454
32764W        W47895   9.772  14.462  14.308 -0.0396  0.1898 -0.1041
32765W        W47896   4.815   3.756  13.130 -0.3634  0.0100 -0.1916
32766W        W47897   0.205  18.265   4.135  0.0584  0.2597 -0.2314
32767W        W47898   8.161  14.557  12.125 -0.2380 -0.0493 -0.0931
32768W        W47899  10.232  11.303   4.326  0.0461 -0.1140  0.0725
32769W        W47900  13.724   0.425   2.873 -0.0483  0.3429 -0.0589
32770W        W47901  17.599   4.940   3.216 -0.0827  0.2402 -0.0573
32771W        W47902   5.053   2.813  12.600  0.3737 -0.1795 -0.0555
32772W        W47903   3.730   0.918  12.009 -0.0365  0.0512  0.2649
32773W        W47904   5.559  16.990   1.683 -0.2832 -0.3121  0.0514
32774W        W47905   7.154  13.301   4.282  0.0734  0.3614  0.2089
32775W        W47906  17.731   0.183  13.324  0.0088  0.0625  0.0724
32776W        W47907   5.461  16.388   2.461 -0.1907 -0.0226 -0.0054
32777W        W47908  16.490  10.112   3.745 -0.3473 -0.1861 -0.2330
32778W        W47909  15.914   1.585  14.649 -0.1421 -0.1453 -0.1432
32779W        W47910   0.745   8.274   2.500  0.1807 -0.0145  0.0927
32780W        W47911   9.231  12.877   2.505 -0.0648  0.0076  0.0955
32781W        W47912   4.605  18.245   4.940 -0.1721 -0.1046 -0.2581
32782W        W47913  13.973   7.154   5.022  0.0303  0.0513 -0.2366
32783W        W47914  13.177  11.933   4.889  0.3805  0.1690  0.1241
32784W        W47915  12.722   9.047   5.285 -0.1199  0.1397 -0.0831
32785W        W47916   2.035  10.148  14.297 -0.0602  0.0683 -0.2172
32786W        W47917  14.285   9.848   2.204  0.2332  0.2452  0.0920
32787W        W47918  15.581   0.341   1.315 -0.1300  0.0431 -0.2056
32788W        W47919   7.234  13.968   2.087  0.0753  0.0308 -0.3837
32789W        W47920   9.869   3.685   4.322  0.0007  0.0747  0.0374
32790W        W47921  10.799   8.072   3.798  0.2054  0.0532 -0.0181
32791W        W47922   8.392   6.986   0.243  0.0942  0.0535 -0.3987
32792W        W47923   7.296   4.690   1.406 -0.1503  0.1759 -0.0987
32793W        W47924   7.503  16.121  11.031 -0.2370 -0.1083  0.1214
32794W        W47925   6.571  11.898  12.698  0.1332 -0.3022 -0.0533
32795W        W47926   8.497   1.720   4.154 -0.0109 -0.2391  0.3187
32796W        W47927  16.223  11.438   2.365  0.1957  0.2060 -0.2400
32797W        W47928   3.907  12.582   2.527 -0.0119 -0.0899  0.2651
32798W        W47929   3.608   8.049   0.892  0.1143 -0.1962  0.1125
32799W        W47930  12.859   9.266  13.425 -0.3766 -0.2976 -0.1033
32800W        W47931   1.666   9.004  13.389  0.1402  0.1125  0.0922
32801W        W47932  13.958  11.751  11.529  0.4189  0.0706  0.2408
32802W        W47933  11.290  11.221   4.340 -0.0466  0.0205 -0.0897
32803W        W47934   5.733   7.504   2.832  0.0544 -0.2129 -0.0218
32804W        W47935   4.221   9.359  12.388  0.1683 -0.0164  0.0666
32805W        W47936   5.343   2.894   2.343  0.2171  0.2485  0.0784
32806W        W47937  14.238   1.338   0.014  0.0051 -0.1907  0.1512
32807W        W47938  16.711  12.012  14.040  0.0461  0.4557 -0.1899
32808W        W47939  10.425   4.133  12.065 -0.0346 -0.0602 -0.0563
32809W        W47940  12.551  18.061   0.541 -0.0985 -0.0033 -0.2243
32810W        W47941  15.216  10.248   4.806  0.3605  0.0051  0.0400
32811W        W47942  16.706   3.523   4.018 -0.0096  0.0456  0.1092
32812W        W47943  17.364  15.992  13.319 -0.0978 -0.6105 -0.0312
32813W        W47944  17.025  10.689   6.140  0.1897  0.1041 -0.1354
32814W        W47945  10.692   7.555   2.224  0.1691 -0.2025  0.3422
32815W        W47946   0.302   1.204   2.488 -0.2958 -0.0094  0.0227
32816W        W47947   1.224   4.079   1.094  0.1276  0.0818  0.0999
32817W        W47948   8.681   4.611  13.294  0.1364 -0.0634  0.1347
32818W        W47949   8.099   4.546  10.482 -0.0516  0.3487  0.3871
32819W        W47950   6.407   7.935   5.351  0.1633 -0.0450 -0.4224
32820W        W47951  12.891   8.655  13.244  0.0800  0.2313  0.0559
32821W        W47952  16.790   6.911  13.340  0.1794  0.0405 -0.2680
32822W        W47953   4.895   2.264  11.433 -0.4109 -0.0455 -0.0484
32823W        W47954   2.388   7.365   4.960  0.1903 -0.1308 -0.0492
32824W        W47955  14.090   5.759   2.753 -0.0261  0.0013  0.0097
32825W        W47956   8.031  17.607  13.181  0.2755 -0.0272  0.3328
32826W        W47957  15.356  12.833  10.910  0.0468 -0.1233  0.2581
32827W        W47958   1.217   1.973   1.550 -0.0549 -0.2105 -0.0023
32828W        W47959   7.562  17.233  15.374  0.1343  0.1050 -0.0948
32829W        W47960   4.853  12.289  12.121 -0.2376  0.0888 -0.1075
32830W        W47961  12.551  14.819  13.328 -0.2126 -0.0498  0.1234
32831W        W47962  13.895   9.523   4.540 -0.0479 -0.0214 -0.5078
32832W        W47963   9.308  11.223   5.313  0.0305  0.1519 -0.2471
32833W        W47964   7.768   5.192  12.404 -0.2291 -0.2478 -0.2166
32834W        W47965   0.301   7.249  15.240 -0.1248 -0.1582 -0.1279
32835W        W47966   2.336   7.770   4.557  0.0133  0.1007 -0.4614
32836W        W47967   2.624   1.776   0.542 -0.1566 -0.0466 -0.0021
32837W        W47968   2.631  10.487  13.365 -0.0244  0.1523  0.1221
32838W        W47969  14.544  14.989  12.613  0.1190  0.1258  0.1965
32839W        W47970  10.731   8.386  15.012 -0.0491 -0.0176  0.0419
32840W        W47971   2.515  17.074   3.724  0.3247  0.1413 -0.1338
32841W        W47972  11.236  14.055   3.781 -0.1606  0.2916  0.1856
32842W        W47973  16.538  13.437  13.523  0.2656  0.1554  0.0819
32843W        W47974   6.298   1.609  13.376 -0.1018 -0.0376  0.1603
32844W        W47975  11.336  12.356   4.558  0.0800  0.1934  0.0321
32845W        W47976   7.073  15.311   1.023  0.1239 -0.0445  0.2914
32846W        W47977   6.777  16.426  11.532  0.2519 -0.0376 -0.0835
32847W        W47978   1.516   8.993   5.437  0.0437  0.2951  0.0320
32848W        W47979  17.987  10.842  12.676 -0.2892 -0.2001 -0.4414
32849W        W47980  14.031   0.328   3.764 -0.0211 -0.4005  0.0857
32850W        W47981   9.981   9.580   5.118  0.3667 -0.0960  0.1722
32851W        W47982  15.440   3.608   5.833 -0.2163  0.0095  0.0324
32852W        W47983   5.685  15.040   1.559  0.0180 -0.1539  0.0376
32853W        W47984  17.017   9.928   3.383  0.0100  0.3049  0.1028
32854W        W47985  13.794  14.798   1.247 -0.3130 -0.1071 -0.1012
32855W        W47986  10.977  16.292   1.441  0.0176  0.0122  0.0698
32856W        W47987  17.187  14.421  14.084  0.1955 -0.3857 -0.0118
32857W        W47988   3.944   4.804   2.152  0.0042 -0.2673  0.0946
32858W        W47989  15.376  17.981  12.508 -0.1178 -0.2227 -0.0306
32859W        W47990  13.704  16.434   4.300 -0.4839 -0.1869 -0.1797
32860W        W47991  16.744  10.255   4.682 -0.2201 -0.3649  0.0370
32861W        W47992   3.281   4.333   2.586 -0.3757 -0.0117  0.3672
32862W        W47993  14.531   1.255  13.886  0.0033 -0.0665 -0.1454
32863W        W47994   6.519   8.417  14.769 -0.1461 -0.0158  0.0433
32864W        W47995  14.263   8.611   2.781 -0.0104  0.0733 -0.0482
32865W        W47996   6.341   9.393  12.626 -0.3572  0.1713 -0.0548
32866W        W47997  14.437   0.236   2.115  0.0934  0.0444 -0.0862
32867W        W47998   4.005  13.801   2.453  0.2627 -0.0264 -0.0174
32868W        W47999   5.642  12.742  15.936 -0.0208 -0.1793  0.3582
32869W        W48000  11.978  14.205  12.816  0.4585  0.0370  0.0701
32870W        W48001  16.931   8.331   6.471 -0.2784  0.2893  0.2051
32871W        W48002   6.003  13.797   1.921 -0.3199 -0.1662 -0.0723
32872W        W48003   1.360  18.499   4.430  0.1047 -0.1630 -0.0569
32873W        W48004  17.292  14.962   3.884 -0.1396 -0.1480  0.1390
32874W        W48005   5.671   7.972   1.535  0.2260 -0.0719  0.0960
32875W        W48006   3.868  11.993   1.246  0.1336 -0.2443  0.4866
32876W        W48007   1.320  14.988  12.238 -0.1006 -0.0939 -0.4041
32877W        W48008   1.055  11.612  14.080  0.0664 -0.0870 -0.0768
32878W        W48009   4.305   6.196   9.769 -0.1260 -0.2653 -0.0331
32879W        W48010  18.194   3.881   4.320 -0.0891  0.0002  0.2412
32880W        W48011   8.125   7.702   4.278 -0.0136 -0.3619 -0.2418
32881W        W48012  18.551   2.551  12.926  0.0082  0.3280 -0.0512
32882W        W48013   9.059  11.873  13.054  0.2345 -0.1480 -0.1853
32883W        W48014  13.216   0.646  14.835 -0.0097  0.1256  0.2247
32884W        W48015  12.894   9.649   0.536  0.2166  0.3214  0.1133
32885W        W48016  17.562   3.249   1.968  0.2258 -0.0125  0.0071
32886W        W48017  16.341  15.409   1.311 -0.0009 -0.1143 -0.0965
32887W        W48018  14.896   8.254  12.541 -0.2834  0.1290 -0.4022
32888W        W48019   3.448  10.513   0.692  0.0527 -0.0175  0.0322
32889W        W48020  13.084   7.566   4.760  0.2079 -0.1221  0.2187
32890W        W48021   4.716   9.496   2.186  0.0107  0.3054  0.2786
32891W        W48022  12.116   6.283   1.980  0.0623  0.1373  0.1432
32892W        W48023  15.224  14.829   2.516  0.0466  0.3629 -0.2212
32893W        W48024  10.752   1.701  15.667  0.0156  0.3712 -0.0872
32894W        W48025  16.508  12.758   2.330  0.0048 -0.2413  0.1127
32895W        W48026   2.233  17.986   2.267  0.5496 -0.0918 -0.0673
32896W        W48027   8.328  18.190   2.499 -0.0625  0.1047  0.2662
32897W        W48028  17.061  17.747   4.915 -0.0928 -0.1853 -0.0693
32898W        W48029   1.950  14.222  15.403  0.0111  0.0859  0.0787
32899W        W48030  16.676  13.744   3.356 -0.5342  0.3051  0.0649
32900W        W48031   4.863  11.178  14.931  0.1764 -0.0561  0.1701
32901W        W48032   0.385   2.613   1.453  0.1569  0.1469 -0.0122
32902W        W48033   5.717   7.466   1.633 -0.0693 -0.2562  0.0320
32903W        W48034   7.507  14.598  15.137  0.1228  0.4065 -0.0713
32904W        W48035   5.522   0.430   0.912 -0.0555  0.0755  0.0077
32905W        W48036  12.644   6.439   5.473  0.1579 -0.0002 -0.0230
32906W        W48037   8.999   5.480   1.066 -0.2977 -0.0285  0.2015
32907W        W48038  14.208  11.395  13.897 -0.0878  0.2347 -0.1220
32908W        W48039   5.754  18.334   9.409 -0.3111  0.0276 -0.3111
32909W        W48040  11.708  11.331  13.749 -0.3989 -0.2382  0.1094
32910W        W48041  16.434  12.233   2.966  0.2537  0.2592  0.3229
32911W        W48042   0.799  10.952   0.965 -0.1947 -0.0289 -0.0871
32912W        W48043  12.317  15.040   5.100 -0.0920 -0.5165  0.0036
32913W        W48044  14.420  13.172  12.015 -0.1830 -0.4276 -0.1773
32914W        W48045   9.612   7.981   4.892  0.0329 -0.2932  0.1229
32915W        W48046   5.475  14.036  11.456  0.0467  0.2883  0.1499
32916W        W48047  14.792   5.293   2.147 -0.0643  0.2094  0.0757
32917W        W48048  17.937  17.766  15.559  0.0496 -0.0159 -0.1478
32918W        W48049  16.028  13.157   3.730 -0.0871 -0.0137  0.0100
32919W        W48050   8.024  10.040   3.842  0.2812  0.2849 -0.1599
32920W        W48051   2.991   5.302  13.205  0.2814  0.1671  0.0279
32921W        W48052   5.349  11.154  12.245 -0.2175 -0.0496 -0.0012
32922W        W48053   5.826  18.569   2.783  0.2525  0.2580 -0.2868
32923W        W48054  11.291   4.188  11.068 -0.1930 -0.3064  0.0076
32924W        W48055   6.782   0.999  15.384  0.1701  0.0670  0.0387
32925W        W48056   1.875  10.741   1.518 -0.3203  0.2429  0.0592
32926W        W48057  17.032  16.039   3.947  0.0718 -0.0765 -0.1639
32927W        W48058  17.925   6.094  13.674 -0.1660  0.0322  0.0362
32928W        W48059  14.589   3.122  15.918  0.2658  0.5164 -0.3759
32929W        W48060  13.085   5.282   3.208  0.0797 -0.0893  0.2338
32930W        W48061  10.819   3.752  11.974  0.0987 -0.0951  0.0421
32931W        W48062  11.975  10.236  15.573  0.1104 -0.1970 -0.0087
32932W        W48063   9.429  12.741  14.177  0.1290  0.0403  0.1872
32933W        W48064   2.382  16.443  14.931  0.1017 -0.3491  0.1910
32934W        W48065  11.764   9.643   2.376 -0.0733  0.0032  0.3993
32935W        W48066  12.356  16.518  14.617 -0.0738  0.2407  0.0403
32936W        W48067  13.255   1.743  13.423 -0.0982 -0.0746  0.0870
32937W        W48068   9.141   0.883  13.239 -0.1281  0.1436 -0.4839
32938W        W48069  10.158  13.649  11.520  0.1668 -0.1246  0.0614
32939W        W48070   2.581  15.607  12.064  0.0095  0.3873 -0.0034
32940W        W48071   0.200   0.396  14.343  0.3250 -0.2380  0.2238
32941W        W48072   8.258   8.959   4.266  0.0075  0.1952  0.2983
32942W        W48073   4.170  14.657  13.129  0.0226 -0.1050  0.1503
32943W        W48074   5.926  17.867  10.927 -0.2032 -0.2275  0.1855
32944W        W48075  12.373   4.117  13.834  0.2785 -0.4169  0.1320
32945W        W48076  16.759   4.476   2.590  0.1150 -0.3630 -0.2578
32946W        W48077   5.401   3.136  13.056 -0.0992  0.0993  0.1536
32947W        W48078   1.169   6.183   2.109  0.3183 -0.0239 -0.1988
32948W        W48079   3.224   5.988   0.619 -0.1899  0.1177  0.0028
32949W        W48080   6.604  13.870  10.622  0.2707  0.2253 -0.0377
32950W        W48081  18.501   6.310  12.038 -0.1537  0.1301 -0.1706
32951W        W48082  15.867  13.204  11.465  0.0864 -0.0423  0.4331
32952W        W48083   9.665  14.790   2.738  0.0286  0.0271  0.4693
32953W        W48084  13.435  10.218  13.982  0.0213 -0.0159  0.0077
32954W        W48085  15.389  12.860  14.162  0.0602 -0.0033  0.1186
32955W        W48086   4.005   5.643  14.276  0.1574 -0.0075  0.2005
32956W        W48087   6.468  11.072   4.341 -0.1101 -0.0766 -0.0287
32957W        W48088   5.551  14.807   0.447 -0.0905 -0.2861  0.0019
32958W        W48089   6.405  15.146  13.209 -0.0542  0.0078  0.0764
32959W        W48090   0.289   8.711   9.933 -0.2494  0.3871  0.3657
32960W        W48091  15.552  15.887  12.883  0.0743 -0.0302  0.1510
32961W        W48092  11.108  15.169   9.715  0.1386 -0.0034  0.1637
32962W        W48093   4.957  17.959  11.418 -0.2588 -0.2366 -0.2126
32963W        W48094  11.194   3.693   2.779  0.0204 -0.1706  0.3040
32964W        W48095   7.447   1.342   5.093  0.2414  0.1888 -0.3056
32965W        W48096   1.440  15.701  13.825 -0.0546  0.1789 -0.0763
32966W        W48097   9.508  12.996  13.713  0.1291 -0.1283 -0.0368
32967W        W48098   6.890   4.148  15.925  0.2495  0.2059 -0.1352
32968W        W48099   2.869   2.029   1.382 -0.2054  0.1424 -0.0977
32969W        W48100   2.230  12.146  14.550 -0.1638 -0.0921 -0.1959
32970W        W48101  11.838   2.347   2.487 -0.1056 -0.1860  0.0751
32971W        W48102  16.900  14.153  12.491  0.0256  0.2105  0.0719
32972W        W48103   1.118   3.230   1.774 -0.0607  0.1379  0.0562
32973W        W48104   3.240   0.927   2.221  0.3747  0.2251  0.0007
32974W        W48105  11.869   5.902  15.429  0.0380  0.0470 -0.0094
32975W        W48106   4.016  15.305   1.538  0.3434  0.5791 -0.3421
32976W        W48107   7.962   9.662   3.087  0.1977  0.0651 -0.0063
32977W        W48108  17.865   6.154   2.576  0.4319  0.0670 -0.2061
32978W        W48109   1.476   1.527   1.694  0.0091  0.0213 -0.0315
32979W        W48110   9.496  17.287  10.701 -0.1556 -0.4324  0.1816
32980W        W48111  17.456   7.612   0.208 -0.0847  0.1445  0.0048
32981W        W48112   2.401   3.308   0.832  0.1338 -0.2090 -0.0113
32982W        W48113  17.807   5.072   3.690 -0.3642 -0.0237 -0.3403
32983W        W48114   5.612   1.942  10.771  0.0164  0.2334  0.0285
32984W        W48115   4.263  16.083   4.695  0.3285  0.0996 -0.0587
32985W        W48116  14.585  18.497   3.884  0.0653  0.2695 -0.0536
32986W        W48117  12.569  13.966   1.646  0.1302 -0.1540 -0.0231
32987W        W48118   2.060  16.389  14.193  0.2104 -0.0196 -0.1150
32988W        W48119   2.174   1.978  11.811  0.1347  0.1931  0.1199
32989W        W48120  10.549   6.957   2.438 -0.5269  0.0061  0.0159
32990W        W48121   4.633  12.384   4.915 -0.2847  0.0171  0.1743
32991W        W48122   1.530   8.104   1.171 -0.0242  0.2289 -0.0551
32992W        W48123  14.864   8.347   1.179 -0.0689 -0.1972 -0.0142
32993W        W48124   5.371  14.198   4.288  0.0969  0.2516  0.0554
32994W        W48125  12.543  15.725  15.902 -0.0107  0.1993 -0.4066
32995W        W48126   8.646   9.482  11.876  0.3873  0.0910 -0.0784
32996W        W48127  16.153   0.579  11.448 -0.4940 -0.1083 -0.1369
32997W        W48128   6.829  10.961   3.093  0.1200 -0.0796  0.2115
32998W        W48129   3.582   0.609  11.619  0.0762  0.1792  0.1813
32999W        W48130  14.445   2.673   3.425 -0.3869 -0.2767 -0.0356
33000W        W48131  18.517  11.159   2.776  0.0723 -0.3027 -0.0101
33001W        W48132  10.725   1.262   0.691 -0.3961 -0.3643 -0.1213
33002W        W48133   7.890   7.650   3.708 -0.0141  0.2274 -0.2989
33003W        W48134  12.524  18.178   5.124  0.1363  0.1365  0.1459
33004W        W48135   1.077   3.711  11.945  0.0412  0.1624  0.2327
33005W        W48136   4.347  13.549   3.551  0.0449  0.1105  0.2742
33006W        W48137  16.515   0.756   5.334 -0.1633 -0.1636 -0.0471
33007W        W48138   6.507  14.705  13.456 -0.1539 -0.1717  0.1323
33008W        W48139  14.462   7.045   5.585 -0.2906 -0.0950 -0.2817
33009W        W48140  15.518   9.573  11.850  0.2581  0.1114 -0.1211
33010W        W48141   1.113   6.611   5.795  0.0076  0.0250  0.2753
33011W        W48142  17.623  16.567   4.892  0.0933  0.0546  0.1977
33012W        W48143   8.647   5.104  13.624  0.1434  0.1076  0.0991
33013W        W48144   6.004   3.474  15.914  0.0792 -0.4501 -0.1073
33014W        W48145  16.488  14.154  12.107  0.0812 -0.1918  0.1362
33015W        W48146   1.681  17.199   3.809 -0.0186  0.0141  0.0932
33016W        W48147  15.521  11.847   1.921 -0.2166  0.2358  0.3111
33017W        W48148   4.750  15.068  11.843 -0.0644 -0.1301 -0.0400
33018W        W48149  14.389   4.570  15.283 -0.2104  0.0176  0.3028
33019W        W48150   2.920  15.338  10.833 -0.0927 -0.0149 -0.1023
33020W        W48151  14.202  11.028  14.723 -0.1744 -0.4553 -0.1214
33021W        W48152  13.657  11.332   0.004  0.5667 -0.0431  0.0579
33022W        W48153  14.327  12.712   0.139 -0.0681 -0.1768 -0.4972
33023W        W48154   0.376   5.447  15.880  0.0605 -0.0784  0.0154
33024W        W48155   2.496  13.699  14.139  0.0828  0.2270  0.1633
33025W        W48156   8.459   1.244   5.133  0.5126 -0.2112 -0.3034
33026W        W48157   1.768   8.436   4.208  0.3440  0.1720  0.2244
33027W        W48158   6.401  16.424  15.475  0.1872  0.1082 -0.3423
33028W        W48159   6.988   5.369  15.456 -0.3018  0.0160  0.0376
33029W        W48160   4.999   1.334   1.295  0.4197  0.4858 -0.1963
33030W        W48161   9.265   2.342  15.361 -0.2405 -0.2155 -0.2878
33031W        W48162  13.501  10.146   1.236  0.0276 -0.1504 -0.3302
33032W        W48163  14.560  15.618  13.510  0.4227 -0.3400  0.0145
33033W        W48164   6.699   0.443  13.799 -0.2104  0.0008 -0.0279
33034W        W48165   4.114  12.753   0.069 -0.1668  0.0885 -0.0401
33035W        W48166  12.165  16.706   2.892  0.4464 -0.0147 -0.1142
33036W        W48167   6.177   8.753   5.747 -0.0094  0.1403 -0.0497
33037W        W48168   3.958   9.968   5.718  0.2217  0.3217  0.0382
33038W        W48169   1.955  11.710  12.925 -0.0048  0.0197 -0.3004
33039W        W48170  17.216  15.680  14.636 -0.1705  0.0786 -0.0842
33040W        W48171  16.945  17.752   1.818 -0.0354  0.0991  0.1471
33041W        W48172   1.700   3.858  11.925 -0.3103 -0.2704  0.1858
33042W        W48173   4.710  18.441  11.659 -0.0180  0.2472  0.0615
33043W        W48174  13.491  16.324   4.775  0.0958 -0.2323  0.1239
33044W        W48175  18.320  11.184   4.217  0.0007  0.0474  0.0790
33045W        W48176   0.203  17.073   0.179 -0.4494 -0.2107 -0.3181
33046W        W48177  18.505   6.854   2.277 -0.0432 -0.0785  0.2162
33047W        W48178  18.559   0.332  11.771  0.2312 -0.0561 -0.1796
33048W        W48179   5.432  18.447   0.745 -0.1051 -0.3832  0.0523
33049W        W48180  14.907   8.478   0.704 -0.0849  0.0499 -0.1037
33050W        W48181  16.471   3.965   1.208  0.1417 -0.0293  0.2651
33051W        W48182   3.768   2.197  14.912 -0.1851 -0.4975 -0.0806
33052W        W48183   4.165   8.491   4.429  0.0470 -0.2855  0.1963
33053W        W48184  17.632  18.562  15.887  0.2316 -0.2282 -0.1384
33054W        W48185   1.374   7.636   1.114  0.1973  0.2406 -0.0270
33055W        W48186   3.380   6.054  13.884  0.0065  0.2545 -0.2432
33056W        W48187  18.475   9.301  15.283  0.1001  0.1068 -0.1499
33057W        W48188  15.159  14.523  15.860  0.0711 -0.0014  0.2622
33058W        W48189   3.832   4.431   2.561 -0.2260  0.3241  0.1665
33059W        W48190   0.976  12.228  12.768 -0.1138  0.2091 -0.3478
33060W        W48191  12.401  16.362   3.188  0.0126 -0.0631 -0.3297
33061W        W48192   9.592  11.281  11.886  0.1450  0.0782 -0.0416
33062W        W48193  16.382  16.590   3.676  0.0657 -0.0574 -0.0238
33063W        W48194  16.682  13.090   1.125 -0.0964 -0.0864  0.1561
33064W        W48195  14.571   8.510  14.681 -0.0598 -0.1886 -0.0111
33065W        W48196   2.644   2.253  11.102  0.0657 -0.3272 -0.0497
33066W        W48197   9.665   7.113   5.285 -0.0601 -0.2345 -0.1434
33067W        W48198   7.418  12.552  13.621 -0.2102  0.1122  0.0809
33068W        W48199  11.382   2.423  12.576  0.4356  0.2214  0.1793
33069W        W48200   2.682   3.519  13.762 -0.0633 -0.0250  0.0291
33070W        W48201   7.066   2.771  13.662  0.0920 -0.2679 -0.1685
33071W        W48202  13.963   1.129  14.617  0.0320 -0.0193  0.0820
33072W        W48203   4.617  12.166  12.586  0.0694  0.2299 -0.1849
33073W        W48204  17.715   0.979   2.141  0.2825  0.0612  0.2934
33074W        W48205   9.370  13.040  12.471  0.0306 -0.2026  0.2133
33075W        W48206   0.057   8.795  15.000  0.2574  0.0312 -0.2191
33076W        W48207   7.554  15.582   3.042 -0.0908  0.2001 -0.1592
33077W        W48208  16.457   9.414  14.795 -0.0160 -0.0538  0.1329
33078W        W48209  14.885   5.814   2.344  0.0050  0.0015  0.0130
33079W        W48210  18.264   4.368  15.003 -0.3089  0.2850 -0.0002
33080W        W48211  13.350  10.473   0.275 -0.0147 -0.0669  0.2782
33081W        W48212   5.952  18.074   3.021  0.0671 -0.0216  0.1213
33082W        W48213  11.444  16.675  15.077 -0.1029  0.0260  0.0783
33083W        W48214  12.424   8.929  11.655  0.1470 -0.0809 -0.1261
33084W        W48215   8.527  12.942   1.936 -0.0610  0.1453  0.0671
33085W        W48216  14.215   8.631   1.770  0.2181  0.1348 -0.1942
33086W        W48217   4.084  14.062   3.596 -0.1174  0.0217 -0.1021
33087W        W48218  18.191   8.022   3.955  0.1432 -0.2799 -0.2107
33088W        W48219  18.248   7.514  11.588 -0.0465 -0.1559  0.0718
33089W        W48220   4.160  14.050  11.361  0.0105  0.0467 -0.2793
33090W        W48221  13.241   3.514   2.603  0.1533  0.1543  0.5236
33091W        W48222   1.292   0.842   4.993 -0.1072 -0.2810  0.0085
33092W        W48223  16.770  17.806  15.693 -0.1747 -0.0068 -0.3318
33093W        W48224   2.562  14.020  13.092  0.0459  0.0047 -0.3127
33094W        W48225  18.437  15.941   1.877 -0.1323  0.1279  0.3475
33095W        W48226   6.830  18.540   2.638 -0.1353 -0.0346 -0.5257
33096W        W48227   1.239  11.141  11.903 -0.3020  0.1403 -0.2195
33097W        W48228  13.545   2.020   5.931  0.2124  0.0244 -0.1572
33098W        W48229  17.316  18.287   4.976 -0.0126  0.0105 -0.0424
33099W        W48230   8.258  17.272  10.719 -0.5303 -0.1981  0.1021
33100W        W48231  16.668  14.588  12.233  0.1347 -0.1369  0.0371
33101W        W48232  13.294  12.541  11.928 -0.2397 -0.3013  0.1003
33102W        W48233  12.089   4.731   0.293  0.1276 -0.1771 -0.0930
33103W        W48234  16.085   5.456   3.167  0.0542  0.0717 -0.1173
33104W        W48235  11.713   5.091   0.035 -0.0739 -0.0249  0.1157
33105W        W48236  14.611  11.957   2.858  0.0183  0.3693 -0.1376
33106W        W48237  15.624   5.043   5.836  0.1642 -0.0947  0.1837
33107W        W48238  15.197   9.602  12.719 -0.3014 -0.1827 -0.0141
33108W        W48239  11.287   6.123   4.077 -0.2121 -0.1131  0.0319
33109W        W48240   2.162  12.441  14.955 -0.0820 -0.0576 -0.1816
33110W        W48241  15.361  17.069   4.057 -0.1067  0.2728 -0.0245
33111W        W48242  15.100   2.844   4.900  0.2402 -0.0646 -0.2244
33112W        W48243   2.924  11.119   3.077  0.0437 -0.1204 -0.2844
33113W        W48244   0.282   8.254  11.603 -0.3054 -0.2580  0.0047
33114W        W48245   5.582  14.179   0.619  0.1497 -0.3345 -0.2113
33115W        W48246   9.920   8.441  12.402 -0.0683 -0.0037 -0.0336
33116W        W48247   7.950  11.835  15.708 -0.5093  0.1174 -0.1291
33117ION     NA48248   2.217  10.740  14.777 -0.0500 -0.0392  0.0864
33118ION     NA48249   7.167   2.706   4.204  0.2697 -0.0918  0.1682
33119ION     NA48250   7.552   6.627  10.102  0.0475 -0.3103  0.1571
33120ION     NA48251   4.724   3.552  14.704 -0.1047 -0.0058  0.0203
33121ION     NA48252   6.411   6.537   5.367 -0.2402  0.1805 -0.0569
33122ION     NA48253  17.297   8.466  14.402  0.3320  0.0035 -0.1100
33123ION     NA48254  12.271  12.108   5.704  0.0270  0.2678  0.0065
33124ION     NA48255   2.147  12.711   0.345  0.1238 -0.1688 -0.1133
33125ION     NA48256  11.432  16.855  15.614 -0.0496  0.1195 -0.0908
33126ION     NA48257  17.176   7.442  10.300  0.1739 -0.0805  0.1735
33127ION     NA48258  10.810  15.340   3.236  0.0537  0.1952 -0.0567
33128ION     NA48259  12.061   5.969   5.680  0.2971  0.0924  0.0263
33129ION     NA48260  10.759   8.908  10.406 -0.0139  0.0907  0.2138
33130ION     NA48261  16.517   6.777   0.430 -0.0610  0.0009 -0.3669
33131ION     NA48262  15.668   6.313   4.530 -0.0740 -0.2201 -0.1200
33132ION     NA48263   3.450  12.510   5.228 -0.0503  0.1304 -0.2650
33133ION     NA48264  11.346   0.794   3.473 -0.4402  0.1222 -0.0827
33134ION     NA48265  10.727  10.981  15.725 -0.1186  0.0795  0.0199
33135ION     NA48266   8.106  16.040   0.276 -0.0989 -0.0211  0.0212
33136ION     NA48267  10.808   1.319  11.825 -0.2853  0.1136 -0.2808
33137ION     NA48268  11.401   3.130   5.748 -0.0451  0.5852 -0.0635
33138ION     NA48269  17.670   5.927   6.017  0.1445  0.1851  0.2657
33139ION     NA48270   4.262   1.863   5.867 -0.1545 -0.1805  0.2121
33140ION     NA48271  11.458   0.895   1.166  0.1997  0.1075  0.0226
33141ION     NA48272  17.495   9.149   0.715  0.1318 -0.3474  0.0571
33142ION     NA48273   7.803   0.553   3.409 -0.4188 -0.0898  0.2267
33143ION     NA48274  10.002   5.581  10.248  0.1017 -0.0835 -0.1508
33144ION     NA48275  16.216  13.061   6.341 -0.4990 -0.1342 -0.0075
33145ION     NA48276  10.522   0.592   5.517  0.1759  0.0082 -0.1413
33146ION     NA48277   9.516  13.810  14.954  0.2289 -0.0764  0.1328
33147ION     NA48278  10.167  17.158   5.282 -0.0933  0.1486 -0.2184
33148ION     NA48279  14.149   0.130  11.388  0.2441  0.0684  0.0297
33149ION     NA48280  14.894   9.309   5.685  0.1188 -0.0592  0.1160
33150ION     NA48281   8.219  17.778   9.619  0.1824  0.0826  0.0514
33151ION     NA48282  16.610   5.713  10.635 -0.1710  0.0104 -0.1215
33152ION     NA48283   7.847  14.669   9.837 -0.0246 -0.1829 -0.0289
33153ION     NA48284   3.077   9.805  11.038  0.2502  0.2075  0.0060
33154ION     NA48285  16.908  16.912   5.119  0.1928  0.1822 -0.0825
33155ION     NA48286   7.348  17.530   5.040  0.1957 -0.0546  0.1923
33156ION     NA48287   8.567   1.468   3.431 -0.1227  0.2679  0.1517
33157ION     NA48288   2.697   9.557   5.790 -0.2765  0.1073  0.0258
33158ION     NA48289   5.775   0.854  13.527  0.0159 -0.0192  0.1031
33159ION     NA48290   1.977  11.789   4.305 -0.0600 -0.1485 -0.1140
33160ION     NA48291  10.869   7.940   5.343 -0.2061  0.1531 -0.0570
33161ION     NA48292   1.417   9.966  14.112  0.1808  0.0380 -0.0314
33162ION     NA48293   1.768   0.343   5.718 -0.3410 -0.1330  0.0556
33163ION     NA48294   0.920   4.206   4.960 -0.1444  0.1907 -0.2751
33164ION     NA48295  14.653   5.746   6.312  0.0555  0.1375 -0.1890
33165ION     NA48296   6.739   3.227  12.172 -0.0025  0.2599 -0.1217
33166ION     NA48297   1.875  12.603   5.474 -0.3207  0.1930 -0.0997
33167ION     NA48298  10.929   8.541   5.868 -0.1214 -0.2093 -0.1114
33168ION     NA48299   5.801  17.518  13.504 -0.1070 -0.1321 -0.1565
33169ION     NA48300   9.580   5.401   5.950  0.3118 -0.2421 -0.1550
33170ION     NA48301   4.775   5.387   2.144  0.1974  0.1759  0.1843
33171ION     NA48302   1.845  11.411   2.711 -0.1094 -0.0686  0.0432
33172ION     NA48303   2.196  15.635  10.290  0.1687 -0.0431 -0.2091
33173ION     NA48304  16.628   6.528   5.731  0.1103 -0.0589  0.2198
33174ION     NA48305   9.458   5.461   1.279 -0.2144  0.1434  0.0151
33175ION     NA48306  13.938  17.244   1.401  0.3576  0.0839 -0.0366
33176ION     NA48307   2.461  10.451   0.938 -0.3275  0.1806  0.0297
33177ION     NA48308   5.536  16.888   4.925  0.0347  0.2975  0.0270
33178ION     NA48309   7.895   3.456   9.945  0.0321  0.0436  0.0547
33179ION     NA48310   2.940  18.205  10.041 -0.2164 -0.2491  0.1301
33180ION     NA48311  17.653   4.477  12.354  0.1154  0.1534  0.0187
33181ION     NA48312   3.643   0.375   1.737  0.0326 -0.1968  0.1107
33182ION     NA48313   2.795   6.967  10.590  0.0629 -0.2735 -0.1047
33183ION     NA48314  12.231   8.722  10.398  0.2156  0.1025 -0.0094
33184ION     NA48315   5.911   0.342   4.276  0.1244 -0.3353  0.0475
33185ION     NA48316  18.182   5.767   3.422  0.1877  0.0694  0.1248
33186ION     NA48317   1.337  15.114   2.492 -0.0834  0.1932 -0.1084
33187ION     NA48318   8.536  11.174  10.005 -0.2585  0.1229  0.0265
33188ION     NA48319   4.883  18.548   0.063  0.0624 -0.2235 -0.2333
33189ION     NA48320   5.294  11.348  15.816 -0.2702 -0.1293 -0.1069
33190ION     NA48321   7.707   2.063  12.553  0.2500 -0.0663  0.3462
33191ION     NA48322   7.957  10.347   5.297 -0.2016  0.1535  0.1095
33192ION     NA48323   4.217  11.495   3.970 -0.1733  0.0683 -0.2324
33193ION     NA48324  13.088  13.338  14.564  0.0531  0.0708  0.3387
33194ION     NA48325   8.849  14.494   5.487 -0.0936  0.1899  0.0419
33195ION     NA48326  11.004   6.511   1.703 -0.2142 -0.0732  0.0514
33196ION     NA48327  12.721  18.154   2.595  0.0183  0.0136 -0.2960
33197ION     NA48328   6.080  12.917  14.634  0.1093  0.1216  0.0849
33198ION     NA48329   0.739  10.904  14.722  0.2499  0.0020 -0.0159
33199ION     NA48330   5.876   9.219  12.803  0.0934 -0.0186  0.2983
33200ION     NA48331  14.068   5.838  14.074  0.1448  0.1230 -0.1289
33201ION     NA48332   1.604   5.917   6.198  0.3105  0.0345  0.3101
33202ION     NA48333   8.673  10.570   5.623  0.0117  0.3894 -0.1985
33203ION     NA48334  15.149  10.645  10.155  0.0290 -0.1749 -0.0345
33204ION     NA48335   1.034  12.576   5.821 -0.0527 -0.0208  0.2489
33205ION     NA48336   7.704  15.473  15.132  0.0200  0.3182 -0.2441
33206ION     NA48337   7.692   7.423   5.934  0.1192 -0.1617 -0.1141
33207ION     NA48338   8.624   0.820   1.740  0.1710  0.2086  0.2408
33208ION     NA48339  16.673   0.384  15.297  0.2297  0.0231 -0.4196
33209ION     NA48340  17.045   8.046  10.623 -0.3860 -0.1903 -0.0236
33210ION     NA48341  14.636  16.950   9.864 -0.1370 -0.0269  0.0343
33211ION     NA48342   3.951  14.837   9.948  0.0844  0.1329 -0.1254
33212ION     NA48343   5.698  10.274   3.594  0.0971 -0.5005  0.0071
33213ION     NA48344   8.536  11.305  15.120  0.3760 -0.0399  0.1036
33214ION     NA48345   9.419  17.658  14.761 -0.1488 -0.1814  0.1092
33215ION     NA48346  10.295  13.772   1.274  0.3645 -0.2253  0.3804
33216ION     NA48347   9.500   1.884   5.670 -0.0105  0.1140  0.1785
33217ION     NA48348   4.829  15.752   9.785 -0.1118 -0.0340  0.0282
33218ION     NA48349   9.537  11.666   5.468 -0.2412  0.2745  0.1700
33219ION     NA48350  12.640   1.125  10.364 -0.1238  0.2651 -0.0403
33220ION     NA48351   4.666   7.219   3.221 -0.4323 -0.2264  0.0350
33221ION     NA48352  17.799   1.767   6.284  0.0519 -0.0782 -0.1853
33222ION     NA48353   5.420   9.825  10.304 -0.0218  0.1489  0.0405
33223ION     NA48354   9.361   1.276   1.951 -0.3705  0.1351 -0.0154
33224ION     NA48355   9.733   8.436   5.123 -0.1908 -0.1387 -0.0023
33225ION     NA48356  16.730   1.097  10.356 -0.0160 -0.2666 -0.0128
33226ION     NA48357  10.937  12.408   1.980  0.2251 -0.0827  0.1618
33227ION     NA48358   5.521  17.567   5.137 -0.2677 -0.1675  0.0815
33228ION     NA48359  16.047  10.676   6.248 -0.1521  0.2597 -0.0367
33229ION     NA48360   4.689   2.077   0.619 -0.0694  0.1415 -0.0231
33230ION     NA48361  10.217  13.347   5.419 -0.2323 -0.2265 -0.0556
33231ION     NA48362  14.364   9.147  12.803  0.1092  0.0643  0.3613
33232ION     NA48363   6.626   3.190   0.614  0.1662 -0.3127  0.2949
33233ION     NA48364   3.856   6.649   5.979  0.0264  0.1078 -0.0768
33234ION     NA48365  12.650  13.964  14.714  0.0169 -0.1236  0.1292
33235ION     NA48366  11.667   2.719  10.783 -0.0732  0.1957 -0.0604
33236ION     NA48367  17.437  13.986  10.103 -0.0970  0.0114 -0.2379
33237ION     NA48368   3.458   1.563  12.446  0.0013  0.0822 -0.2737
33238ION     NA48369   9.550  10.772   5.180 -0.6246 -0.0335 -0.3382
33239ION     NA48370   4.252  16.786   5.006 -0.1195 -0.1840 -0.0316
33240ION     NA48371  11.420   4.128   1.933  0.0898  0.0267  0.0785
33241ION     NA48372   4.472  17.361   2.946 -0.0553 -0.0138  0.0313
33242ION     NA48373  12.468   3.662   3.897  0.1080  0.0192  0.1576
33243ION     NA48374   4.043  10.508   2.996 -0.0525  0.1347  0.0850
33244ION     NA48375   5.259   5.142  11.020 -0.2544 -0.1929 -0.0927
33245ION     NA48376   1.708   5.288   3.355  0.1764  0.0926 -0.0579
33246ION     NA48377   7.831   2.676   1.220 -0.1615 -0.2352 -0.1516
33247ION     NA48378  13.067  11.725  11.398 -0.1775  0.1826 -0.1496
33248ION     NA48379  13.150   5.114  15.090  0.0955  0.0438 -0.0984
33249ION     NA48380   6.110   0.164   9.623 -0.1402 -0.0379  0.1142
33250ION     NA48381   9.012  14.279  13.755 -0.0024  0.1475  0.0202
33251ION     NA48382   4.036  14.901   0.268  0.2905 -0.1734  0.0314
33252ION     NA48383   8.681   3.755   0.713 -0.1630  0.3426  0.1981
33253ION     NA48384   8.780  10.205  10.110  0.1112 -0.2588  0.1382
33254ION     NA48385   8.542   7.463   3.271 -0.2963  0.4473 -0.0752
33255ION     NA48386  17.921  11.345  10.466  0.0299 -0.0575  0.0060
33256ION     NA48387  15.635   2.726   6.203 -0.2422 -0.0977 -0.1012
33257ION     NA48388   0.745   9.187  10.282  0.3104 -0.4243 -0.3123
33258ION     NA48389   1.420   6.442   2.738  0.3245  0.1462 -0.0356
33259ION     NA48390   6.416   9.274   1.146  0.1454 -0.0194 -0.1625
33260ION     NA48391  17.260   3.584   6.306 -0.0044 -0.0905  0.0714
33261ION     NA48392   5.905  15.296   5.597 -0.0680 -0.1725 -0.0190
33262ION     NA48393  13.708  14.224   5.734 -0.1572  0.0946  0.0881
33263ION     NA48394   6.521  12.833  10.047  0.0439  0.1155 -0.1044
33264ION     NA48395   8.991   5.565  10.049  0.2155 -0.2464  0.0762
33265ION     NA48396   1.932   7.677   0.328 -0.0450  0.2329 -0.0589
33266ION     NA48397   5.172   4.200  14.283  0.2659  0.2844 -0.2059
33267ION     NA48398  10.359   2.847   9.790  0.2950  0.4972  0.3701
33268ION     NA48399   2.826   0.556  10.208 -0.3605  0.3134  0.1018
33269ION     NA48400  17.579   7.700   1.111  0.0286  0.0189  0.1382
33270ION     NA48401   7.948   8.236  10.432  0.2781 -0.2328  0.2107
33271ION     NA48402   2.059   9.364  10.163 -0.1144  0.1588  0.1907
33272ION     NA48403   5.201   6.874  10.463  0.0146  0.0836 -0.1348
33273ION     NA48404  12.314  12.537  11.336  0.0646 -0.0077  0.3585
33274ION     NA48405  13.258   8.218  15.461 -0.1322 -0.1461  0.2005
33275ION     NA48406  12.901   0.117   0.226 -0.0486  0.2245 -0.1556
33276ION     NA48407   3.928  13.504   5.086 -0.2175 -0.0780  0.0869
33277ION     NA48408   0.361   6.212  10.480 -0.1197  0.2275  0.2086
33278ION     NA48409   3.743  17.868   3.440  0.2112  0.3789  0.1292
33279ION     NA48410  11.982   3.232   0.469  0.0058  0.1667 -0.2359
33280ION     NA48411   0.534   1.883   3.510  0.0287  0.0884 -0.0227
33281ION     NA48412  14.846   3.083   1.542  0.3477  0.1704 -0.3946
33282ION     NA48413   4.410  11.297  12.322  0.1411  0.1431  0.1121
33283ION     NA48414  17.912  17.281   2.940 -0.0026  0.0150 -0.1013
33284ION     NA48415  10.180   6.667  10.108  0.3122  0.1786 -0.1832
33285ION     NA48416   3.625   6.199   3.093 -0.2558 -0.1549  0.1317
33286ION     NA48417  17.806  13.908  11.917  0.0014 -0.1291 -0.1480
33287ION     NA48418  13.132   0.753   3.488 -0.2023  0.2483  0.1759
33288ION     NA48419   7.788   8.830  10.078 -0.1224 -0.2209  0.1329
33289ION     NA48420  16.347   6.476   3.834 -0.0283 -0.0693 -0.1766
33290ION     NA48421   0.041   1.259  15.216  0.4207  0.3054 -0.0851
33291ION     NA48422  10.378   0.812  10.126 -0.0155  0.2381 -0.3369
33292ION     NA48423  13.795   0.166   5.735 -0.0215  0.0087  0.1324
33293ION     NA48424   5.736   7.978   2.878  0.4374 -0.0376 -0.0439
33294ION     NA48425   1.104  10.170   0.917 -0.0004  0.1292  0.2948
33295ION     NA48426   4.224   5.661   3.406 -0.1566 -0.1615 -0.0893
33296ION     NA48427   4.041  13.158   2.362 -0.1841  0.3419  0.0764
33297ION     NA48428   2.725  14.856   5.965  0.0364 -0.1496 -0.0150
33298ION     NA48429   0.995  16.763   5.782 -0.0089 -0.0621 -0.0118
33299ION     NA48430  13.335  12.866   1.917  0.2154  0.4637  0.1366
33300ION     NA48431   6.897  12.908   1.260  0.1624 -0.0094 -0.0792
33301ION     NA48432   3.967   0.473  14.711  0.1404 -0.0536 -0.4323
33302ION     NA48433  15.399  14.002  14.609  0.2554 -0.2727  0.0072
33303ION     NA48434   9.362   3.230   2.173 -0.2535 -0.1920  0.1084
33304ION     NA48435  12.827  11.779   1.584 -0.3116 -0.1511  0.0274
33305ION     NA48436   5.666   2.549   9.953 -0.0222  0.1460 -0.0452
33306ION     NA48437  14.886   9.524  15.625  0.0109  0.0394 -0.1978
33307ION     NA48438   0.781  11.598   6.198  0.3444 -0.0080  0.1753
33308ION     NA48439   0.502   1.814   6.284 -0.0602  0.3421  0.0183
33309ION     NA48440   4.398   7.919  10.197 -0.1774  0.5346  0.2472
33310ION     NA48441   3.275  12.585  10.044  0.0791  0.1916 -0.1539
33311ION     NA48442   5.155   8.635  10.334  0.1455  0.1580 -0.1493
33312ION     NA48443   3.688   0.473  10.132  0.0732  0.0197 -0.2194
33313ION     NA48444  18.281  16.205   1.436  0.2390 -0.0027 -0.0459
33314ION     NA48445  11.635  14.525   0.382  0.2380  0.3083  0.0295
33315ION     NA48446   5.687   8.056  14.901 -0.0790 -0.0811 -0.0102
33316ION     NA48447  15.312  16.347  12.973 -0.0842 -0.1378  0.1202
33317ION     NA48448  15.179  11.863  14.866  0.0893  0.3928  0.1918
33318ION     NA48449  14.651   1.015   2.784  0.1844  0.1850 -0.0129
33319ION     NA48450   1.775   6.385  13.447  0.1836 -0.2679 -0.1140
33320ION     NA48451   3.012   3.047   6.253 -0.0199  0.1146 -0.1934
33321ION     NA48452  17.396  10.839   4.444 -0.1794  0.0145  0.0798
33322ION     NA48453  13.793  10.896   6.060  0.2387 -0.0127 -0.1184
33323ION     NA48454   9.358  12.514   9.723  0.1805  0.3607 -0.1463
33324ION     NA48455  11.767  11.371   0.927 -0.0730 -0.2405  0.1594
33325ION     NA48456   6.354  12.524   4.368 -0.1121  0.0316  0.3691
33326ION     NA48457   8.307   4.345   9.980  0.2213 -0.1822  0.2149
33327ION     NA48458  11.634   5.555  10.041 -0.2591  0.0849  0.0123
33328ION     NA48459   7.666  16.833   5.073 -0.1235  0.1578 -0.3250
33329ION     NA48460   5.625   0.968   9.991 -0.2814  0.1864 -0.1602
33330ION     NA48461  10.198  10.854  11.539  0.0584  0.1859 -0.0306
33331ION     NA48462  10.300  15.358   9.495 -0.0880 -0.1878  0.0051
33332ION     NA48463  16.674  16.607   4.096 -0.0538 -0.1837 -0.0104
33333ION     NA48464   3.561  13.491   9.758 -0.1825 -0.0666  0.0633
33334ION     NA48465   2.032   5.218   2.287  0.0821 -0.0446  0.1640
33335ION     NA48466   8.677   3.606  10.087 -0.4374  0.1287  0.0754
33336ION     NA48467   5.972  11.507  13.163  0.0383  0.2095 -0.1218
33337ION     NA48468  15.129   5.062   5.929  0.0128  0.0926 -0.2042
33338ION     NA48469  16.530   4.278   3.113  0.2567 -0.1605  0.0927
33339ION     NA48470   3.785  16.621  11.715  0.1303  0.2530 -0.1612
33340ION     NA48471   1.649   6.355  10.256 -0.1830  0.2047  0.0949
33341ION     NA48472  11.428  15.258   5.198 -0.0544 -0.2093 -0.2069
33342ION     NA48473   0.298  16.407   3.841 -0.0243  0.0564  0.1829
33343ION     NA48474  10.012   2.460   1.464  0.0019  0.0869 -0.0025
33344ION     NA48475   6.226  13.988   9.326 -0.2482 -0.0132  0.4911
33345ION     NA48476   1.097   4.615   1.124 -0.0690 -0.0963 -0.0958
33346ION     NA48477  10.773   9.658  12.847  0.4517  0.0508  0.3104
33347ION     NA48478   1.190   5.306   2.693 -0.1742 -0.0903 -0.0759
33348ION     NA48479  10.719  11.071  10.618 -0.1928 -0.1210 -0.3486
33349ION     NA48480  14.512  16.675   2.325  0.1670  0.2052  0.2142
33350ION     NA48481   0.698   9.035  12.608 -0.3478 -0.0612  0.0070
33351ION     NA48482   4.133   9.938  10.061  0.1400 -0.2274  0.4569
33352ION     NA48483   8.352  14.616  15.787 -0.3067 -0.0324  0.3318
33353ION     NA48484   2.762  13.504   2.905 -0.0312  0.1326 -0.4478
33354ION     NA48485   8.154   4.323   2.339  0.0475 -0.0157  0.2297
33355ION     NA48486   7.007  12.249   5.454  0.1079 -0.1972  0.0738
33356ION     NA48487   7.672  10.399  12.486 -0.1800  0.0210  0.2053
33357ION     NA48488  15.249   7.761  10.628 -0.0159 -0.1444  0.1122
33358ION     NA48489   8.120  15.657   9.555  0.2601  0.1813  0.0284
33359ION     NA48490  13.682   0.863   0.940  0.2620 -0.2295  0.0518
33360ION     NA48491  17.994   4.680  11.039 -0.0412 -0.1685  0.0758
33361ION     NA48492  17.042   7.693   6.132  0.2522  0.0587 -0.0358
33362ION     NA48493  13.771  14.853   9.961  0.1850  0.0894  0.2028
33363ION     NA48494   1.715   7.012  12.463  0.1004 -0.1437 -0.2601
33364ION     NA48495   2.504  12.017   1.273 -0.1277 -0.2086  0.1067
33365ION     NA48496   5.924   4.397  10.843  0.0090  0.4000 -0.0961
33366ION     NA48497  17.110  12.961  10.554 -0.0579 -0.0440  0.0577
33367ION     NA48498   0.069   3.105   6.258 -0.0987 -0.0330  0.0256
33368ION     NA48499  13.741   9.742  10.421  0.1372 -0.0624  0.1901
33369ION     NA48500   0.520   6.634  10.684 -0.0892 -0.0629 -0.2048
33370ION     NA48501   6.691  15.631   9.644  0.2778 -0.1704  0.2329
33371ION     NA48502   8.952  17.748  11.184 -0.2454 -0.1102  0.0608
33372ION     NA48503  13.470   6.281  10.409  0.1973  0.1030  0.2127
33373ION     NA48504   9.706  13.647  11.309 -0.0628  0.1345  0.1475
33374ION     NA48505   3.131  14.046  10.446 -0.0494  0.4613 -0.1100
33375ION     NA48506  12.865  17.448   9.777 -0.3152 -0.4491 -0.4031
33376ION     NA48507  18.130   6.441   1.757  0.0411 -0.1580  0.1831
33377ION     NA48508   4.133   2.783   5.562  0.1859  0.3214  0.1406
33378ION     NA48509  11.335   1.939   3.088  0.0850 -0.0112  0.4454
33379ION     NA48510   2.772   9.102  13.533 -0.1257 -0.0359  0.2512
33380ION     NA48511   6.958   6.210   2.494  0.0031  0.2887  0.1899
33381ION     NA48512   9.998  13.898   2.272 -0.0747 -0.2963 -0.2444
33382ION     NA48513   1.216   5.097  13.200 -0.0868  0.3954  0.5354
33383ION     NA48514   7.913  11.022   0.703 -0.0946  0.0082 -0.0715
33384ION     NA48515   3.516   7.052   6.161  0.0047 -0.2666 -0.1876
33385ION     NA48516  10.304   1.997   0.729 -0.1141  0.2148 -0.2288
33386ION     NA48517   7.770  12.877   9.689  0.0310 -0.1623 -0.0725
33387ION     NA48518  11.999  14.935   9.546  0.0299 -0.1055  0.0442
33388ION     NA48519  11.591   6.917   4.490  0.0163 -0.0368  0.1380
33389ION     NA48520  11.529  13.770   9.839  0.0224 -0.0724  0.1750
33390ION     NA48521   4.550  16.077   5.232  0.1176  0.1818 -0.1618
33391ION     NA48522   4.944   0.709  12.372 -0.0022 -0.0663  0.0930
33392ION     NA48523   5.401   0.966   5.189  0.2712  0.2541  0.2332
33393ION     NA48524   0.920  10.469  10.075 -0.1501 -0.2140 -0.1072
33394ION     NA48525  14.292  10.526  11.704 -0.2070  0.3359  0.0581
33395ION     NA48526   7.021   9.136  10.145 -0.0683  0.2655 -0.0073
33396ION     NA48527   0.523  16.961  15.226  0.1052 -0.1548 -0.0707
33397ION     NA48528   9.711   8.719  13.447  0.1749 -0.1321  0.0784
33398ION     NA48529  14.736   4.995  15.130  0.1143  0.0304  0.0231
33399ION     NA48530   8.949   8.043   0.583 -0.3899  0.0897  0.1504
33400ION     NA48531  11.021   5.766  11.908 -0.2199  0.1532 -0.0316
33401ION     NA48532  11.935   9.145  10.273  0.1290 -0.2813 -0.1018
33402ION     NA48533   0.592  15.177  10.104  0.1456  0.0239  0.0339
33403ION     NA48534   1.322   7.545  10.353  0.0843  0.0452 -0.0209
33404ION     NA48535   0.993  13.199   2.575 -0.0734  0.0001 -0.2136
33405ION     NA48536   8.553   2.901   3.242 -0.0391  0.2770 -0.0045
33406ION     NA48537  11.644   4.486   3.270  0.1999 -0.2061 -0.1762
33407ION     NA48538   2.345   1.409   1.112 -0.1130  0.1134  0.0229
33408ION     NA48539   4.254   2.078   3.065 -0.0146  0.2721  0.0948
33409ION     NA48540  18.010   7.516   0.104  0.2195  0.0957  0.0583
33410ION     NA48541  14.949  13.393   1.271 -0.0859  0.0592  0.1687
33411ION     NA48542   7.505  14.438   2.048  0.0865  0.1995 -0.2929
33412ION     NA48543   8.588   9.300  12.955  0.0611  0.0925 -0.1255
33413ION     NA48544  15.652   1.613   0.983  0.2236  0.0016  0.2501
33414ION     NA48545  13.162   8.620   2.986  0.0913  0.2274  0.1168
33415ION     NA48546   4.742  13.204   5.361  0.2022 -0.0652 -0.0234
33416ION     NA48547  12.545   9.860   1.332 -0.0174 -0.0233  0.2259
33417ION     NA48548  16.833  18.136   0.133  0.0049  0.1873  0.3215
33418ION     NA48549  16.666  14.057  10.491 -0.1387 -0.0063 -0.1034
33419ION     NA48550   0.891   8.184   6.365 -0.0188 -0.2347 -0.1404
33420ION     NA48551  10.697   8.671  12.519 -0.2013  0.2039 -0.0579
33421ION     NA48552  11.163  10.217   4.278 -0.2411  0.0506  0.0478
33422ION     NA48553  12.980   9.101   6.265 -0.4054  0.0479 -0.2705
33423ION     NA48554   2.005  13.506   6.045 -0.0960 -0.0641  0.2138
33424ION     NA48555   1.882   9.793   3.639  0.1045 -0.4594 -0.0758
33425ION     NA48556   8.215   3.044  13.899  0.0357 -0.0926 -0.2216
33426ION     NA48557  15.637   8.824   6.251 -0.0743  0.1213  0.1733
33427ION     NA48558  15.809  11.138  10.250  0.0719 -0.0194  0.2456
33428ION     NA48559   7.881  16.005   2.367  0.1697 -0.2301 -0.1708
33429ION     NA48560  11.157  18.159   4.892 -0.0921 -0.0985  0.2225
33430ION     NA48561   5.319   8.445  12.810 -0.0274 -0.0699 -0.1176
33431ION     NA48562  12.453  18.230   9.950  0.2447  0.3730 -0.0555
33432ION     NA48563   6.101   4.998   2.509 -0.1325 -0.1137 -0.1861
33433ION     NA48564   0.320  14.016  12.207 -0.0703  0.0979  0.0462
33434ION     NA48565   0.863   0.945  10.378  0.3312  0.3839  0.0920
33435ION     NA48566  16.550   0.588   0.324  0.0080 -0.1115 -0.0683
33436ION     NA48567   8.311   5.421   4.733  0.3179  0.6639  0.0808
33437ION     NA48568   3.336   3.798  10.344  0.0566 -0.0724 -0.0029
33438ION     NA48569   1.170   5.423  10.627  0.2278 -0.0523 -0.1172
33439ION     NA48570  10.848  11.031   5.133 -0.0293 -0.2070  0.0963
33440ION     NA48571   1.149  16.813   1.320 -0.1242 -0.2953  0.2000
33441ION     NA48572   4.949  14.432   3.321 -0.0090 -0.2016 -0.2913
33442ION     NA48573  16.166   2.377  14.525  0.0599 -0.1415  0.2177
33443ION     NA48574   6.921   2.634   5.140 -0.1231  0.4605  0.1720
33444ION     NA48575  13.771   8.948  13.452  0.0987  0.2364  0.1502
33445ION     NA48576   5.403   1.670   9.879 -0.0278  0.0746 -0.1167
33446ION     NA48577  17.533  13.694   6.047 -0.1512  0.1166  0.0853
33447ION     NA48578   3.407  15.657   2.754 -0.1965  0.0809 -0.2273
33448ION     NA48579  15.707   1.174  10.526  0.1880 -0.0668  0.1032
33449ION     NA48580  17.225   5.200  13.454  0.3039  0.0197  0.0656
33450ION     NA48581   5.885  16.764   9.925 -0.1647  0.0354 -0.0656
33451ION     NA48582   9.625   4.417  10.259  0.2155  0.2160 -0.1501
33452ION     NA48583   5.985  11.721   2.407  0.2013 -0.1951  0.0493
33453ION     NA48584   1.847  16.942   5.507 -0.1886  0.1925  0.3443
33454ION     NA48585   9.799  18.553   9.818  0.0215 -0.0208 -0.3398
33455ION     NA48586  12.357  15.739   9.570  0.1859 -0.4071  0.3650
33456ION     NA48587   9.101  15.847   9.663  0.1557  0.2057  0.1702
33457ION     NA48588  13.490  18.356   9.980  0.2827 -0.1355  0.4826
33458ION     NA48589   1.692   3.776   3.517  0.0571  0.0085  0.0316
33459ION     NA48590   0.639   7.719  12.710  0.0217 -0.3506  0.1354
33460ION     NA48591  11.690   1.524   9.715  0.3083  0.1515  0.2637
33461ION     NA48592   2.363  13.389  10.157  0.0864 -0.0647 -0.1157
33462ION     NA48593  16.963   1.949  14.888 -0.2086  0.1818  0.0646
33463ION     NA48594  11.514  18.133  15.337  0.0549  0.4716  0.0672
33464ION     NA48595   6.508   8.627  10.693 -0.2235 -0.5845  0.1934
33465ION     NA48596  14.676   4.996  10.253 -0.0108  0.1998 -0.1460
33466ION     NA48597  14.897  16.899   0.007  0.2430  0.1036 -0.1877
33467ION     NA48598   5.832   9.073   5.801  0.1481 -0.0722  0.0892
33468ION     NA48599  13.942   5.182  13.808 -0.0333  0.0656 -0.2314
33469ION     NA48600  14.155   6.872   2.983  0.1273  0.1956 -0.2598
33470ION     NA48601   5.075   3.574  10.040 -0.2166  0.0768 -0.1321
33471ION     NA48602   6.233   4.871  14.658 -0.0822  0.3065  0.0833
33472ION     NA48603   0.500  16.711  10.239  0.0469  0.1676 -0.0403
33473ION     NA48604  14.469   8.192   0.382 -0.2158 -0.0301 -0.0563
33474ION     NA48605   3.045   8.513   3.571  0.3002  0.0324  0.1545
33475ION     NA48606  17.970   0.739   3.123 -0.1633 -0.2147 -0.2236
33476ION     NA48607  17.069   9.392   3.502 -0.0105 -0.1201  0.4960
33477ION     NA48608   8.885  11.275  13.047 -0.1619 -0.2400 -0.1382
33478ION     NA48609  10.858  10.599   9.855 -0.1835  0.1134 -0.2056
33479ION     NA48610   4.981  15.421   0.092 -0.2533 -0.1716 -0.1917
33480ION     NA48611   0.021   9.956   5.651  0.0249 -0.3318  0.0422
33481ION     NA48612   0.456   5.202   3.534 -0.2724  0.1666 -0.1046
33482ION     NA48613  12.450  14.027   9.504  0.1512  0.0631 -0.0346
33483ION     NA48614   9.423  11.667   9.842 -0.0384  0.0338  0.1140
33484ION     NA48615   8.321  18.493   5.398 -0.1874  0.4205 -0.2150
33485ION     NA48616   5.140   5.052  10.046 -0.2121  0.1838  0.1010
33486ION     NA48617   7.969   7.430  10.261 -0.1547 -0.0761 -0.2017
33487ION     NA48618   6.630   9.180   3.803  0.2691  0.0135 -0.1999
33488ION     NA48619   7.443   2.389   9.703 -0.1005 -0.2571 -0.0794
33489ION     NA48620   9.554   0.723  12.252 -0.0200 -0.0773  0.4165
33490ION     NA48621   9.641   9.957   9.993 -0.1512 -0.1371 -0.0107
33491ION     NA48622   6.866  16.756   5.307  0.3057 -0.2293  0.3029
33492ION     NA48623  15.784  15.399   3.825  0.0717 -0.2008  0.2505
33493ION     NA48624   4.588   9.378   5.070 -0.0280  0.2359 -0.3716
33494ION     NA48625  13.433   3.480  11.258  0.0485  0.2025  0.0318
33495ION     NA48626   2.220  11.887   3.237 -0.0378 -0.1346  0.0827
33496ION     NA48627  12.909  10.370   2.261  0.0437 -0.0674  0.2340
33497ION     NA48628  17.859   3.657   6.114  0.0059  0.2484 -0.2123
33498ION     NA48629   2.390   0.518   2.033  0.2695 -0.1030 -0.1267
33499ION     NA48630   6.874   0.137   4.493  0.0689  0.2307 -0.0498
33500ION     NA48631   9.298  10.900   9.902 -0.3330 -0.2269  0.0082
33501ION     NA48632   4.901   0.745   5.719 -0.3037  0.2724  0.0435
33502ION     NA48633  11.124  13.148  14.768  0.2753  0.3787  0.1793
33503ION     NA48634  17.835  15.114   2.126  0.1086 -0.0897 -0.4556
33504ION     NA48635   3.253   7.515   0.475  0.0429 -0.0450  0.1348
33505ION     NA48636  16.756  18.123   0.988  0.0050 -0.1374 -0.1036
33506ION     NA48637  10.071   4.606   1.430  0.0942  0.1805  0.2919
33507ION     NA48638  17.107  15.332  15.756 -0.0163  0.3926  0.0004
33508ION     NA48639   8.447   6.492  10.017  0.4140 -0.2673 -0.2068
33509ION     NA48640  13.135  13.359  10.173  0.2998 -0.1488 -0.0810
33510ION     NA48641   1.482  15.494   1.262  0.0417  0.0938 -0.0671
33511ION     NA48642   2.710  15.265   0.407  0.2127  0.0816  0.4871
33512ION     NA48643  13.219  10.928  10.293  0.1936  0.3455  0.1591
33513ION     NA48644   3.783   8.956  10.136 -0.3255 -0.2188  0.1502
33514ION     NA48645  18.070   3.153   2.053  0.0899  0.0221  0.0380
33515ION     NA48646   0.254   4.966   0.640  0.1432  0.0964  0.0415
33516ION     NA48647  18.191  15.734   5.168  0.1344  0.1648  0.1557
33517ION     NA48648  17.844  16.949  11.770  0.3797  0.2551  0.0017
33518ION     NA48649  13.857   6.452   6.289  0.0035  0.0443  0.3072
33519ION     NA48650   4.491   7.293   5.827  0.2832  0.3846  0.0310
33520ION     NA48651   9.088  16.108  13.576 -0.2370  0.0405 -0.2502
33521ION     NA48652  18.171  10.243  11.671  0.2163  0.3594 -0.0830
33522ION     NA48653   1.506   7.632   4.478 -0.1948  0.0014 -0.0477
33523ION     NA48654   4.738  17.894   9.547  0.0124 -0.2518 -0.1318
33524ION     NA48655  14.732   3.392  10.508  0.1703 -0.0523 -0.0333
33525ION     NA48656  18.508  10.551  10.403  0.0784  0.0806  0.0413
33526ION     NA48657   3.240   1.064   0.512 -0.1950 -0.0177 -0.1443
33527ION     NA48658   1.528   8.156  10.052  0.2819  0.1449  0.0289
33528ION     NA48659  10.342  14.430   5.484  0.3817 -0.3646  0.1906
33529ION     NA48660  17.247   4.431   4.142  0.0659 -0.0160 -0.2314
33530ION     NA48661   7.800   5.705   0.181  0.1725  0.1453  0.2126
33531ION     NA48662  11.403  15.837  10.091 -0.2327 -0.0002 -0.2634
33532ION     NA48663   0.186   0.808  10.413  0.1221 -0.1073  0.0655
33533ION     NA48664   1.578  18.039   5.573 -0.0601  0.0079 -0.1861
33534ION     NA48665  17.317  12.305   1.268  0.0273 -0.3073  0.2339
33535ION     NA48666   4.089  15.261  10.245  0.0711 -0.1512 -0.3446
33536ION     NA48667  15.727  11.088   5.689  0.0047 -0.2406 -0.1282
33537ION     NA48668   0.552   8.818   2.299 -0.1236  0.0109  0.0390
33538ION     NA48669  11.195  12.000  11.405  0.0920  0.1169 -0.1437
33539ION     NA48670   5.671  13.245  15.476 -0.0469 -0.3648 -0.2735
33540ION     NA48671   4.837   0.695   9.846  0.0993  0.1630 -0.1789
33541ION     NA48672  18.522   1.259  10.557  0.1165 -0.0137  0.2030
33542ION     NA48673  14.170   2.997   4.562  0.2777  0.0913  0.1461
33543ION     NA48674   6.474  14.747   9.582 -0.0187 -0.0954  0.0552
33544ION     NA48675  16.492   8.173  13.485 -0.1393 -0.3285 -0.1713
33545ION     NA48676   8.722   8.174  10.184  0.2640  0.1173 -0.2550
33546ION     NA48677   7.013   5.361   4.393  0.1146  0.2461  0.3904
33547ION     NA48678  17.908  12.208  10.200 -0.1720  0.4487  0.3041
33548ION     NA48679  16.218   4.250  10.458 -0.4011 -0.0312  0.0443
33549ION     NA48680   4.630  13.765   9.782 -0.1030  0.1456 -0.0861
33550ION     NA48681   4.283   0.472  10.932  0.1318  0.2075  0.0212
33551ION     NA48682   3.495  12.461   0.981 -0.3021  0.4598 -0.1808
33552ION     NA48683   0.242  14.026   6.110  0.2264  0.2599 -0.0642
33553ION     NA48684   9.512   6.332   5.764 -0.0287  0.2764 -0.1713
33554ION     NA48685   0.032   4.340  12.709 -0.2278 -0.1611  0.0362
33555ION     NA48686  16.172   7.877  10.263  0.0429  0.0336  0.2031
33556ION     NA48687  10.006   3.090  15.328  0.0035  0.0147 -0.0191
33557ION     NA48688   3.771   1.448  10.021 -0.0581 -0.0893  0.1042
33558ION     NA48689   5.096   4.414   5.871 -0.1546 -0.0469  0.1119
33559ION     NA48690   2.752   5.264   1.683 -0.3145 -0.1803 -0.0596
33560ION     NA48691  18.227   0.994   6.085  0.0737  0.1907  0.0987
33561ION     NA48692   4.927   6.553  11.845 -0.4302 -0.0805 -0.1495
33562ION     NA48693   7.363  17.200   9.700 -0.0611  0.4333  0.0930
33563ION     NA48694   4.250  12.809  12.094 -0.2071  0.1499  0.0511
33564ION     NA48695  12.131   3.705   2.704 -0.0552 -0.1650  0.0175
33565ION     NA48696   7.352  14.694  12.917  0.2829 -0.1259  0.3500
33566ION     NA48697   9.900  16.546   9.537  0.0903  0.1380  0.2109
33567ION     NA48698  18.227  14.043  15.480  0.1229  0.2564 -0.0124
33568ION     NA48699   6.208   6.036  10.350 -0.1876  0.1082 -0.1764
33569ION     NA48700  12.376   9.758   6.111  0.4491 -0.2539 -0.3397
33570ION     NA48701  17.306  12.765   5.941  0.1902 -0.2860 -0.1056
33571ION     NA48702   3.902  14.693   5.351  0.0399 -0.3320 -0.0675
33572ION     NA48703   8.075  12.789   5.659 -0.0281  0.2593 -0.2586
33573ION     NA48704   9.293   6.405  12.916  0.0211 -0.0706 -0.2169
33574ION     NA48705   5.365  18.430  12.095  0.1504  0.0320  0.2107
33575ION     NA48706  15.255  13.790  10.257 -0.2678 -0.0353  0.3043
33576ION     NA48707  17.435  14.103  13.717  0.0145 -0.0221  0.0843
33577ION     NA48708   8.581   8.254  12.618 -0.1875 -0.0184  0.0299
33578ION     NA48709   0.417  17.504   4.580 -0.1442 -0.4512  0.1921
33579ION     NA48710   6.657  18.300   5.338  0.2503  0.1068  0.1714
33580ION     NA48711  17.356   5.009   0.516  0.0834  0.1427 -0.2405
33581ION     NA48712  15.717  14.896  15.903  0.0989 -0.0763  0.1197
33582ION     NA48713   7.668   1.025   9.455 -0.0540  0.3243 -0.0756
33583ION     NA48714   4.279  10.890   0.809 -0.1635 -0.1451 -0.0056
33584ION     NA48715  12.105  12.289  10.002  0.0293 -0.0635  0.0076
33585ION     NA48716  16.539   9.663  10.386  0.0230 -0.0675  0.0336
33586ION     NA48717   0.413   7.223   6.398  0.2573 -0.4327 -0.0607
33587ION     NA48718  16.392  14.061   6.041 -0.0664  0.3869  0.1474
33588ION     NA48719  14.422  10.497  10.015  0.0400  0.0873  0.3002
33589ION     NA48720   1.325   0.482   5.350  0.0585 -0.1811 -0.1079
33590ION     NA48721  10.143  12.021   4.100  0.0686 -0.2684 -0.0887
33591ION     NA48722   7.111   6.143  12.180 -0.4780 -0.1563 -0.2196
33592ION     NA48723  12.745   3.888  14.740  0.0895  0.0095 -0.2760
33593ION     NA48724   0.668  12.226  10.165 -0.1245  0.2694 -0.0592
33594ION     NA48725   6.723  17.011  10.224  0.2652  0.2449 -0.1537
33595ION     NA48726  11.220  15.229  11.142 -0.1382 -0.1428 -0.2355
33596ION     NA48727   5.926   8.646   4.335  0.1114 -0.0658 -0.0585
33597ION     NA48728   7.672  13.664   5.504 -0.3429 -0.2039  0.1098
33598ION     NA48729  10.151   7.073   4.494  0.0654 -0.1313  0.0351
33599ION     NA48730   4.294  11.689  10.022 -0.0075 -0.1585 -0.2406
33600ION     NA48731   6.772  16.700  13.718  0.1564  0.0930  0.1624
33601ION     NA48732   8.359  12.636  13.739  0.1491 -0.0037 -0.1838
33602ION     NA48733  12.040  11.207  10.082  0.0489  0.1653  0.0515
33603ION     NA48734  10.953   0.468  12.727 -0.1193 -0.1852  0.2669
33604ION     NA48735   8.081  11.652  14.350 -0.2125 -0.0049  0.1365
33605ION     NA48736  18.068  18.112  10.145 -0.1979 -0.0419  0.2543
33606ION     NA48737  17.079   4.366  10.477 -0.2172 -0.0559 -0.0981
33607ION     NA48738   0.732   3.335   1.343  0.2540 -0.3432  0.4053
33608ION     NA48739   2.367   8.333  10.112  0.0657  0.1698  0.2544
33609ION     NA48740   1.903  15.898  14.587 -0.2196 -0.2945 -0.3315
33610ION     NA48741  11.730  18.418   2.967 -0.1489  0.2341 -0.4237
33611ION     NA48742  16.059  14.581   9.961 -0.2104 -0.1937  0.2277
33612ION     NA48743  17.302   6.329   3.359 -0.0359 -0.2750  0.1099
33613ION     NA48744  13.226  13.394  13.026  0.1633  0.1130  0.0448
33614ION     NA48745   5.124   3.409  15.106 -0.3983  0.0091  0.0681
33615ION     NA48746   7.196   8.340   1.631  0.0683 -0.2003  0.0506
33616ION     NA48747  15.080   7.574   6.558  0.4372  0.2166  0.2369
33617ION     NA48748   5.137  12.911   9.482  0.1450  0.1417  0.1818
33618ION     NA48749  16.837  17.566  10.280  0.0063  0.1011 -0.0250
33619ION     NA48750   0.471   9.049   6.349  0.1961 -0.2319 -0.1921
33620ION     NA48751   3.699   4.746  10.193  0.0157  0.1651 -0.0443
33621ION     NA48752   8.040  14.649  14.084 -0.1684 -0.0936 -0.1680
33622ION     NA48753   9.221  13.409   9.652 -0.0248  0.1242 -0.1924
33623ION     NA48754   3.777  14.957   5.892  0.1145 -0.1226 -0.0023
33624ION     NA48755   4.711   2.259  10.235 -0.0676 -0.0226 -0.0402
33625ION     NA48756   8.503  13.841   4.508  0.1679  0.0113  0.1489
33626ION     NA48757  15.900  17.620   5.974  0.0608 -0.0009 -0.1562
33627ION     NA48758   7.929  10.038  10.257 -0.2264 -0.0764  0.0075
33628ION     NA48759   1.008  14.560  13.408  0.1576  0.1168 -0.0312
33629ION     NA48760   0.799   0.594   6.133  0.1099  0.1989  0.1677
33630ION     NA48761   5.691  11.131  14.332  0.0043  0.0960 -0.0838
33631ION     NA48762   0.560  14.662   5.809  0.2592 -0.1429  0.0371
33632ION     NA48763  16.430   2.127   6.230 -0.2762 -0.0436  0.0631
33633ION     NA48764  13.885   8.894  10.240 -0.3940 -0.2153  0.2798
33634ION     NA48765  15.547   1.580   5.214 -0.0106 -0.1194 -0.1615
33635ION     NA48766  14.728  15.251  10.123  0.0823 -0.1115  0.2067
33636ION     NA48767   6.745   0.785   9.645  0.1487  0.1678 -0.2358
33637ION     NA48768   6.258   3.601  10.462 -0.2034 -0.1709  0.0674
33638ION     NA48769  13.501   0.307   2.443  0.2414 -0.2945  0.0745
33639ION     NA48770  18.456  11.382  10.571  0.2443  0.1242  0.3172
33640ION     NA48771  18.389  11.870   3.624  0.0317  0.4386  0.2369
33641ION     NA48772  13.539   7.106  15.589 -0.0920 -0.1018 -0.3513
33642ION     NA48773  16.064  14.889   5.851 -0.1874  0.0222 -0.1026
33643ION     NA48774  13.379  17.133   2.582  0.0401 -0.2129 -0.0052
33644ION     NA48775   0.156   8.899  15.826 -0.0878 -0.1763  0.4135
33645ION     NA48776  14.006   4.791  15.606 -0.1851 -0.1054 -0.1082
33646ION     NA48777  12.160   7.000  10.341 -0.0441  0.2089 -0.0729
33647ION     NA48778   7.468  10.697   9.868 -0.0115  0.0876 -0.1252
33648ION     NA48779  13.129   8.139   5.673 -0.2883 -0.2703  0.0591
33649ION     NA48780   8.410  12.861  11.657  0.3966 -0.0249  0.1621
33650ION     NA48781   6.576  10.498   9.838  0.0552  0.2111  0.0602
33651ION     NA48782   4.206  16.311  12.820  0.1339 -0.1109  0.1747
33652ION     NA48783   6.306   0.847  15.219  0.1474  0.3136 -0.0749
33653ION     NA48784  10.828   7.086   5.870 -0.1443 -0.0289  0.1073
33654ION     NA48785   8.872   7.389   2.333 -0.0425  0.0121 -0.0883
33655ION     NA48786   7.080   5.423   1.929  0.4482  0.2243  0.0995
33656ION     NA48787  12.233  16.926   4.964 -0.0597 -0.3960  0.1865
33657ION     NA48788  12.624  14.529   4.410  0.3094 -0.0288  0.6307
33658ION     NA48789   4.995   8.715   4.251 -0.4689 -0.1349 -0.0955
33659ION     NA48790  14.427  15.887  14.425  0.2495  0.0414 -0.4378
33660ION     NA48791  16.977  14.748  10.003  0.0146 -0.0321 -0.0806
33661ION     NA48792  10.027  17.880  15.051 -0.2102 -0.2591  0.1794
33662ION     NA48793   1.395   4.152   6.297 -0.1784  0.0377 -0.0286
33663ION     NA48794  16.432   3.109   6.462 -0.0037 -0.2628 -0.0888
33664ION     NA48795   1.906  13.933   2.726  0.0469  0.0711 -0.1553
33665ION     NA48796  10.238  11.469   2.991  0.0717 -0.0524  0.0929
33666ION     NA48797   1.083   5.026   6.300  0.0398 -0.1837  0.1317
33667ION     NA48798  10.923  14.678   9.799 -0.1801 -0.3969  0.0607
33668ION     NA48799  16.157   9.740   5.234 -0.0306  0.0582  0.1034
33669ION     NA48800   3.230   1.048   5.945 -0.0359  0.2518 -0.0953
33670ION     NA48801  18.138   5.525  10.683 -0.3088  0.1771 -0.2448
33671ION     NA48802  13.128  10.022   5.955  0.2515 -0.1080  0.2206
33672ION     NA48803   9.121   0.322  14.515 -0.3994  0.0299 -0.0674
33673ION     NA48804   7.199   5.742   5.668 -0.1147  0.1383 -0.2746
33674ION     NA48805   1.450   5.573   0.981  0.1656  0.4076  0.3816
33675ION     NA48806  17.771  17.852   3.505  0.0307 -0.0799  0.5169
33676ION     NA48807  10.670  16.334   9.562 -0.1421 -0.2105 -0.0517
33677ION     NA48808   4.686   2.401   3.798 -0.0819 -0.1279  0.0747
33678ION     NA48809   8.012   8.707  14.999 -0.2194  0.2585 -0.1924
33679ION     NA48810  16.647   1.824  12.565 -0.0801  0.2648 -0.0982
33680ION     NA48811  12.303   5.942   1.626  0.1371  0.2178 -0.1103
33681ION     NA48812  15.006  17.195  13.646  0.3235 -0.0447  0.2447
33682ION     NA48813  10.162   6.103   2.653  0.0427 -0.2509 -0.1448
33683ION     NA48814   0.034   9.368  13.782 -0.0701 -0.0170 -0.0714
33684ION     NA48815   0.918  11.890  14.511  0.0002 -0.0397  0.2934
33685ION     NA48816   6.847   7.494   3.374 -0.0330 -0.0280 -0.4745
33686ION     NA48817  12.696   3.954  10.221  0.1550  0.1966 -0.3550
33687ION     NA48818  17.495   9.620  10.339 -0.0172 -0.1818  0.0399
33688ION     NA48819  14.242  14.912   1.092  0.1808  0.0346  0.3518
33689ION     NA48820  11.875  10.337   1.678 -0.3197  0.3993  0.0917
33690ION     NA48821   0.548  17.611   9.820 -0.0593  0.0572 -0.0921
33691ION     NA48822   8.292   1.789  10.257  0.2443  0.0760  0.2253
33692ION     NA48823   3.999  11.735   0.294 -0.0407  0.0315 -0.0362
33693ION     NA48824   4.184  16.995   0.847  0.1735 -0.2214 -0.0244
33694ION     NA48825   8.578  12.074   5.703  0.0336 -0.0754  0.1329
33695ION     NA48826  13.716  17.461   4.133 -0.2302 -0.4149  0.1983
33696ION     NA48827  18.020   8.191  10.392  0.1335 -0.1409 -0.2637
33697ION     NA48828   8.160   1.691   5.342  0.1392 -0.2435  0.1443
33698ION     NA48829  14.143   4.082   0.102 -0.0687  0.0624 -0.3987
33699ION     NA48830  10.742   9.757  10.020 -0.0958  0.0605  0.4870
33700ION     NA48831  10.677   7.927   1.572 -0.0279 -0.0093  0.1873
33701ION     NA48832  13.183  11.178   5.792  0.3255  0.0036 -0.1518
33702ION     NA48833  11.318  11.851   9.938  0.1073  0.0213 -0.0795
33703ION     NA48834   3.056   8.720  11.864 -0.1020 -0.0211  0.0075
33704ION     NA48835   8.037   4.996   5.797  0.1499  0.0811  0.0971
33705ION     NA48836   3.877  10.290  14.775  0.2490  0.1358  0.1494
33706ION     NA48837  18.267  15.620  10.109 -0.4975 -0.2278  0.2530
33707ION     NA48838  10.800   3.057  13.803  0.0440  0.4008  0.0278
33708ION     NA48839  14.568   4.017   5.705  0.0931  0.0696  0.0513
33709ION     NA48840   0.953  18.020  14.777 -0.3436  0.4798  0.0756
33710ION     NA48841   8.755   0.723   9.663  0.0316  0.2918 -0.3245
33711ION     NA48842  13.967   0.837  15.419 -0.1640  0.3125 -0.2052
33712ION     NA48843   3.770  18.241  13.113  0.2959 -0.0016  0.0248
33713ION     NA48844   6.046   4.787  10.222 -0.0642 -0.3541  0.2219
33714ION     NA48845   9.420   9.310  14.244  0.2293 -0.1482 -0.0274
33715ION     NA48846   5.670   9.348   3.462  0.0694  0.4140 -0.0476
33716ION     NA48847  15.393  16.306   4.566  0.1934 -0.1454  0.1164
33717ION     NA48848  11.828  11.575  10.935  0.0934  0.2601 -0.1564
33718ION     NA48849  14.721   9.496  10.578  0.3027 -0.0432  0.2299
33719ION     NA48850   5.928  14.229   2.845  0.4395 -0.0375  0.0721
33720ION     NA48851  18.230  12.583   4.380 -0.2664 -0.1468 -0.0527
33721ION     NA48852   8.357   5.434   5.696 -0.2173 -0.0389 -0.4730
33722ION     NA48853  17.584  11.180  12.961 -0.1874 -0.2521  0.0666
33723ION     NA48854  17.724   6.352  10.941 -0.0155  0.1815  0.3333
33724ION     NA48855   2.427   9.266   4.990  0.0035 -0.2509  0.1947
33725ION     NA48856  14.311   6.394  10.596 -0.5279 -0.1551 -0.0495
33726ION     NA48857  13.203  14.279   9.821  0.2225  0.1573 -0.2009
33727ION     NA48858   3.873  13.682   3.298  0.0819  0.0052 -0.3684
33728ION     NA48859   8.991   5.332   3.628 -0.3731  0.3255 -0.0429
33729ION     NA48860  10.730   3.041   5.655 -0.0953 -0.1130  0.0206
33730ION     NA48861  12.963   4.613  10.337 -0.1016  0.2827 -0.3244
33731ION     NA48862   3.440  13.245   2.384 -0.2702 -0.1928 -0.0533
33732ION     NA48863   8.779  12.415   9.766 -0.0889  0.0321  0.0136
33733ION     NA48864   7.737   3.884   0.439 -0.2585  0.2484 -0.0309
33734ION     NA48865  10.911  18.482   9.788 -0.2102 -0.0645 -0.1250
33735ION     NA48866   6.084   6.968  10.021 -0.1717  0.2000  0.0113
33736ION     NA48867   7.495  16.382   0.458 -0.1505  0.0227 -0.0309
33737ION     NA48868  13.139   6.334   4.533  0.2539  0.0166  0.0059
33738ION     NA48869  11.398  16.913   9.568 -0.0120  0.2043  0.0219
33739ION     NA48870   7.218   3.077  14.062  0.0670  0.0352 -0.1294
33740ION     NA48871   7.609  16.346  14.802 -0.2283 -0.0473  0.0196
33741ION     NA48872   8.632  17.457  12.415 -0.2475  0.2073  0.2010
33742ION     NA48873   6.491  12.264   1.865  0.0905 -0.2434 -0.5398
33743ION     NA48874   1.551  12.282  10.204 -0.1176 -0.2611  0.1540
33744ION     NA48875  13.739   7.877  10.390  0.0362  0.0209  0.1108
33745ION     NA48876  16.563   2.162  10.373 -0.0484  0.2150 -0.6248
33746ION     NA48877   4.439   4.292  10.143  0.0923  0.1515 -0.1333
33747ION     NA48878  15.727  17.961  10.834  0.3711 -0.1330 -0.1581
33748ION     NA48879  14.951  12.782  10.516 -0.1077  0.0104  0.1064
33749ION     NA48880   2.618   0.900  11.074  0.1098  0.0214 -0.0403
33750ION     NA48881  11.015   3.583   0.294 -0.1600  0.1430 -0.1195
33751ION     NA48882  14.247   9.639   4.053  0.1255  0.0840 -0.1714
33752ION     NA48883  11.205   4.174  10.072  0.1052 -0.1135  0.0410
33753ION     NA48884   0.412  13.125  10.212  0.1340  0.3028  0.1504
33754ION     NA48885   7.986   2.503   9.921  0.0162 -0.0231 -0.0784
33755ION     NA48886   1.081   1.948  10.681  0.0220  0.3020  0.1207
33756ION     NA48887   4.757  14.698   9.892 -0.1115 -0.0146 -0.1454
33757ION     NA48888   4.701   5.954  10.150 -0.1448 -0.1282  0.0184
33758ION     NA48889  10.520  17.224   9.525  0.0493 -0.0243  0.0201
33759ION     NA48890   7.972   1.490  14.425 -0.0580  0.0947  0.0035
33760ION     NA48891  15.848   4.540   0.101  0.0843 -0.0084 -0.0962
33761ION     NA48892  17.095   9.571   5.266 -0.2862 -0.0531 -0.1902
33762ION     NA48893   0.747   8.638  12.193  0.1113 -0.1957  0.3528
33763ION     NA48894  11.190   6.792  10.199  0.0776 -0.0178  0.2271
33764ION     NA48895   7.899  11.456  13.349  0.0267 -0.0975  0.0738
33765ION     NA48896  16.391   4.802   3.775  0.0605  0.0289 -0.0075
33766ION     NA48897   2.871  17.796   4.059 -0.1822 -0.1040  0.4033
33767ION     NA48898  16.354  15.000  13.643  0.1741 -0.0008 -0.0724
33768ION     NA48899  18.530   1.319   0.696 -0.0752  0.1832 -0.0170
33769ION     NA48900   5.653  16.031  10.533  0.0499  0.1066  0.4172
33770ION     NA48901   0.405  12.839  13.401 -0.1369  0.2975 -0.2147
33771ION     NA48902  14.166   9.692   5.648  0.1729  0.0509  0.2732
33772ION     NA48903   6.398  15.393   5.000  0.1479 -0.0271  0.1970
33773ION     NA48904  11.915   6.699   0.170  0.1459 -0.0290 -0.0761
33774ION     NA48905  16.443   7.258  13.323 -0.1979  0.1654  0.3247
33775ION     NA48906  10.843   5.051  10.366 -0.3373 -0.1939 -0.1895
33776ION     NA48907   4.399   9.663  11.950  0.0847  0.2397 -0.0517
33777ION     NA48908   6.858   1.651   3.445  0.1826  0.0774 -0.1215
33778ION     NA48909   7.468  11.872   9.578 -0.2063  0.3958  0.1119
33779ION     NA48910   3.991  16.742  10.118  0.1010 -0.0527 -0.1666
33780ION     NA48911   9.363  10.314  11.907 -0.1614 -0.0139  0.2921
33781ION     NA48912  18.524  10.167   6.378 -0.1276  0.0868 -0.3879
33782ION     NA48913  15.147   3.730  10.441  0.0032  0.4587  0.0810
33783ION     NA48914   9.163   8.933  10.404 -0.3364 -0.3730 -0.1384
33784ION     NA48915  15.412   1.173   3.654 -0.0095  0.3207 -0.0465
33785ION     NA48916  17.782   7.250  12.756 -0.0455  0.2282 -0.0949
33786ION     NA48917  15.471  16.631  12.154  0.2201  0.2044  0.0597
33787ION     NA48918  17.529  14.955   6.189 -0.1455 -0.1141 -0.1624
33788ION     NA48919   4.535   5.411   5.319  0.3959 -0.0455  0.0032
33789ION     NA48920  15.551   2.871  10.448  0.0988 -0.0577 -0.0844
33790ION     NA48921   0.218  18.237   2.190 -0.0835 -0.0064  0.0225
33791ION     NA48922  11.292   0.834   5.477  0.4469  0.4424  0.0957
33792ION     NA48923  13.788  12.233   5.856  0.1089 -0.0541  0.0332
33793ION     NA48924   6.335   3.332   5.799 -0.2891  0.1029 -0.0284
33794ION     NA48925   0.856  17.572   3.215  0.2318  0.0154  0.2725
33795ION     NA48926  13.319   0.333  13.366  0.0077  0.0825 -0.1730
33796ION     NA48927  13.902  17.421   9.831 -0.2047 -0.2042 -0.1555
33797ION     NA48928  16.864  15.716   9.810 -0.0590  0.1979  0.3058
33798ION     NA48929  15.816  17.137   4.237 -0.4551 -0.3299 -0.1108
33799ION     NA48930   9.271  12.807   0.277 -0.0958 -0.1052 -0.2630
33800ION     NA48931   5.245  13.764   9.348 -0.0600  0.2230  0.1251
33801ION     NA48932   8.349   3.475   4.010 -0.2941 -0.2010  0.0073
33802ION     NA48933   9.580   3.240   9.912  0.0612 -0.2386 -0.2014
33803ION     CL48934   7.323   3.032   4.606  0.2096  0.0670  0.1254
33804ION     CL48935   0.530  11.264   5.811 -0.0140 -0.1348 -0.2070
33805ION     CL48936   5.306  14.388   3.680 -0.0923 -0.1306 -0.1190
33806ION     CL48937   6.008   0.490  15.056  0.0535 -0.0387 -0.0011
33807ION     CL48938  10.480  11.417  15.620 -0.0632 -0.0387 -0.1102
33808ION     CL48939  13.570   5.374  14.180 -0.1621  0.3486 -0.1550
33809ION     CL48940  17.877  16.225   1.688 -0.0634  0.2420  0.0789
33810ION     CL48941  12.711  11.423  11.277  0.1692 -0.1792  0.2139
33811ION     CL48942   4.536   8.409   4.135  0.1243 -0.3626  0.3809
33812ION     CL48943  10.945   3.488  13.558 -0.0168 -0.1909 -0.4687
33813ION     CL48944  15.770   2.682  14.612  0.0816  0.0377 -0.0857
33814ION     CL48945  18.500   8.781   4.523 -0.0387 -0.0406 -0.0216
33815ION     CL48946  18.412   4.271  12.220 -0.2180 -0.0140  0.0125
33816ION     CL48947  17.377  13.024   3.972 -0.0773  0.2910 -0.2143
  18.57334  18.57334  15.94913
